     192
 i =     5700, time =     8550.000, E =     -1100.0732476925
  O         6.1519417433       -3.6081561517        3.1868022800
  H         6.4147681496       -4.5505078095        3.2253362657
  H         6.5998660324       -3.2512384940        3.9858451492
  O        -5.7343847200        2.4204553245        5.2143896023
  H        -5.6890591410        1.7030132535        4.5677899332
  H        -4.9453640654        2.3413983944        5.8018205711
  O         6.0164859742        5.1942573191        5.9858992269
  H         5.1272288077        5.4418924590        5.6215042708
  H         6.1611491285        4.2566328960        5.7715172640
  O        -2.2640207292        0.2449109287       -3.8275487956
  H        -1.8364970065        0.6954656524       -3.0281558361
  H        -1.6913200112       -0.4995021373       -4.0857913735
  O        -3.6129044821        5.2060393525        4.6648616904
  H        -4.4223820393        5.5895082375        5.1000377664
  H        -3.5369114453        5.9045150571        3.9742620143
  O         7.1951362913       -0.0603498920        3.5884066554
  H         6.9877142670       -0.9036286106        4.0159011917
  H         6.8780926936       -0.0603052461        2.6088806623
  O         4.1605438933       -5.7506704113        1.3871471238
  H         4.0578581986       -4.9250148003        0.8322362157
  H         3.7295145487       -6.4516058723        0.9103217085
  O        -0.6244283456       -2.2988381184       -1.1491819799
  H        -1.4054057278       -2.9250357406       -1.2604966306
  H        -0.9109149598       -1.5656473587       -0.5905607564
  O         3.5982846973       -2.8538212425        3.7037916372
  H         4.5643988546       -3.0487538249        3.6678756225
  H         3.3843831435       -2.7706076555        2.7666579856
  O         2.6558016919        2.8953275447        6.3935750821
  H         3.3385731761        2.2170502956        6.2915705651
  H         2.9339825388        3.5278201405        7.1263970042
  O         4.7308066055       -3.3796254475       -5.3054788524
  H         4.9722345980       -2.6678062154       -4.8122520414
  H         3.7662220569       -3.4590798018       -5.3945039109
  O         2.4787332619       -2.4799279427        0.8835828194
  H         1.9205596208       -3.3052956324        0.8490510849
  H         3.1792082084       -2.6357840165        0.2360210605
  O         1.5678597738       -5.4934831859       -4.7029028601
  H         2.0924363376       -6.3057349132       -4.4854113978
  H         1.9105379788       -5.2915040522       -5.5925880180
  O         4.8131343565        4.8620672078       -2.3043793248
  H         5.3812469553        4.1203062164       -2.4187621128
  H         5.4273596392        5.6257329196       -2.2070371160
  O         3.3728896185       -0.5551660961        5.0889643224
  H         3.6235548823       -1.3076288314        4.4825298931
  H         2.8391344258        0.0170352221        4.4814622966
  O        -1.3562117434        2.3785526916        6.2287844925
  H        -1.2393824183        1.9526696895        5.3727524159
  H        -1.3823239542        1.6660966279        6.8955199196
  O        -1.9185050902       -3.1907521120        2.8804968019
  H        -1.4054089122       -3.5136950205        2.1328650104
  H        -1.5318821208       -3.7022869681        3.5953868446
  O        -2.3459408880        3.5285251122        2.4690468513
  H        -1.6711638383        2.9705320716        2.9082675759
  H        -2.6848218000        3.8460814900        3.3796912176
  O         1.9502372679       -1.2727238949       -4.9881322619
  H         2.2085366145       -0.8196512799       -5.8512575635
  H         2.5023917375       -1.0393954543       -4.1968194527
  O        -1.2901555769       -0.2445323254        0.5051876697
  H        -1.9060741020       -0.1943365373        1.2498780748
  H        -0.3464492883       -0.1727608241        0.8260180558
  O        -3.3250895461        4.1311773869       -2.5096900686
  H        -3.9499896444        4.8658925279       -2.3893702163
  H        -3.2578435253        3.7444811567       -1.6408198271
  O         6.1737479235        5.8827158634        2.9368525289
  H         5.2532080150        6.0502698859        2.5632865094
  H         6.1047763070        5.4999738316        3.7744216990
  O         5.8879989382       -1.3254350636       -3.8716134786
  H         6.0603804459       -0.4029546679       -4.2152683201
  H         6.6774620415       -1.4269661167       -3.2936010359
  O        -5.1221781426        6.2201813610       -2.1740801274
  H        -5.3830172420        6.7520929305       -1.3814196675
  H        -5.2937119408        6.7560550286       -2.9789716639
  O         7.6689385890        1.1824960968       -1.2656720788
  H         8.2036237138        1.9718769765       -1.1414497190
  H         6.8446630697        1.5511883278       -1.6780422555
  O         1.3081454041       -0.1704305451        0.8211908594
  H         1.8719362526        0.1249761339        0.0832345504
  H         1.5746150565       -1.1521288870        0.7389364665
  O        -5.4882574988       -4.8786868592        0.2703100230
  H        -4.8576945152       -5.2413657189        0.9421632144
  H        -6.3993220528       -5.1819873381        0.5083293648
  O        -3.5083715400        3.8048028923        0.1056050348
  H        -4.4659990058        3.9857349904        0.2911844431
  H        -3.1889357924        3.3493073822        0.8611072165
  O         4.8421463255        0.9160391893       -5.5779410762
  H         5.6140832169        1.2193184598       -6.0674132005
  H         4.3616409554        0.3824679059       -6.2260853629
  O         4.6228100822       -3.7790186292       -0.9174266353
  H         5.3899386794       -3.1162882050       -0.9690662988
  H         4.0573893233       -3.7770814462       -1.7508807235
  O         2.5730709847        1.2907943844       -1.2029406802
  H         3.3042065269        1.7593895133       -0.7307886589
  H         1.9558340861        1.9672774441       -1.6160324542
  O        -2.7151851502       -0.3548469058        2.7140482864
  H        -2.5083143699       -1.2912355628        2.9259941681
  H        -3.6253126804       -0.2373908440        2.9897937949
  O         2.7102956079       -9.0353039153        2.1860296535
  H         3.0470063610       -8.6630346324        1.3976113916
  H         3.0304067701       -8.3637073877        2.8666683578
  O         2.1262099730       -3.8775488789       -2.6283756019
  H         1.7595811878       -4.2530473788       -3.4313888984
  H         1.8908313465       -2.9256786450       -2.6113130040
  O        -5.9929807198        4.1498396530        0.5668425397
  H        -6.7292983460        3.4928930373        0.3952309270
  H        -6.1384041219        4.6070959417        1.4264248026
  O         2.4039880863       -5.0969814485       -7.4873641602
  H         1.5044091997       -4.8614449415       -7.4825848806
  H         2.8604464977       -4.3880408780       -7.9856229578
  O         0.8245526117        2.8836174525       -2.6960161591
  H         0.7290224349        2.4723436445       -3.5913330916
  H         0.2431290769        3.6471456183       -2.6819861998
  O        -3.4121372045       -5.5672956108        2.3698840398
  H        -3.0161171613       -4.6962379225        2.4168127851
  H        -2.8340702331       -5.9603590933        1.6276572323
  O         3.4052772415        4.6933183333        4.3228350613
  H         3.0105594773        5.5648719104        4.4260368385
  H         2.9717086960        4.1391431043        4.9894353256
  O        -4.3518168794        2.3157898199       -4.4275596063
  H        -3.7797724876        1.5365965149       -4.4047530992
  H        -3.8293064888        2.9851664284       -3.8613052400
  O         2.1535955693        0.7715366146        3.1486211310
  H         2.3240448870        1.6500798047        2.7523261836
  H         1.9750113893        0.1249248078        2.4140789578
  O        -8.0061955950        1.8269469877        0.5804838901
  H        -8.3078559587        2.0396890668        1.4868648631
  H        -7.3721976420        1.1084589209        0.6061562569
  O        -0.8468043251        1.3815313597        3.7341234942
  H         0.0730941658        1.0379150399        3.8813504236
  H        -1.3363505501        0.6160812086        3.3450307692
  O        -2.0858310093        5.9811512429        0.0979195204
  H        -1.3328532742        5.5882423103        0.5723662229
  H        -2.7912050537        5.2231776426        0.0987984697
  O        -0.3257220545       -1.7651642843       -3.8936586823
  H        -0.2836460765       -1.9124909407       -2.9257423693
  H         0.5455157281       -1.4929447125       -4.2551990820
  O        -6.7755182391        2.2953852208       -3.1397957904
  H        -6.0507317406        2.2698214215       -3.8188596484
  H        -7.5875050494        1.8892991159       -3.4806495040
  O         6.8379628356       -2.2256743159       -0.6896701547
  H         7.2159961021       -3.0969436265       -0.3443842398
  H         7.4632630138       -1.8468636778       -1.3549866354
  O        -1.4293445550        1.5847709997       -1.5698429439
  H        -0.6740462843        2.2073793166       -1.6468280360
  H        -1.2994586582        1.0225062366       -0.7996992026
  O         0.6388531892        6.5452062616       -1.1861360746
  H         1.2248879617        7.1880093261       -1.5818264863
  H         0.0817910252        6.0821467953       -1.8208960156
  O         6.8460555949       -2.3546642131        5.5797080048
  H         7.6430378833       -2.6983295055        5.9264690178
  H         6.1874035927       -2.8125035452        6.1248232360
  O        -0.7164099264       -7.4940784024       -2.9690602448
  H        -0.4234380511       -7.2017785255       -3.8167596744
  H        -1.7256586508       -7.5564945025       -2.9802787443
  O        -4.0405901087       -1.4510777936       -2.8025462539
  H        -3.7683147516       -2.1902941645       -3.3815562034
  H        -3.4159803422       -0.6681358444       -2.8721613731
  O         2.9164358478        4.7103592414       -0.3072079077
  H         2.1501910930        5.3026986186       -0.4801577060
  H         3.6324542492        4.8378650621       -0.9047873808
  O        -3.6915022565       -3.6442455033       -4.6181097758
  H        -2.8747752810       -4.0489611555       -4.8072072915
  H        -4.3930791452       -4.3209113048       -4.6731114390
  O        -0.1460080356        5.0465213994        1.6891829953
  H        -0.8271467419        4.5821874857        2.1874204662
  H         0.5580541722        4.4419657135        1.5345902816
  O        -1.2941988475       -4.1494188604       -5.2420937169
  H        -0.8069667773       -4.7288541291       -4.5888799315
  H        -0.8042554182       -3.2429561536       -5.1634152794
  O        -6.0407479421       -0.0913748801        0.8112222975
  H        -5.4092389602        0.2855788225        0.1437709143
  H        -6.0142014231       -1.0472928615        0.6342059110
  O         2.6453185693        4.5917743366       -3.8557333773
  H         3.4168983012        4.6959218242       -3.2526202849
  H         2.0627394821        3.9132474178       -3.4942734813
  O         3.2770237337       -0.9289899969       -2.5959915444
  H         2.9779952449       -0.1602040254       -2.0840002588
  H         4.2440415450       -1.0507970233       -2.5192461796
  O        -1.0822620852        5.1242583688        6.5494248043
  H        -0.8945387081        4.1439307916        6.4834402632
  H        -1.8612390219        5.2003166003        5.9692971844
  O         0.3295838889       -4.0323943952        0.6380920095
  H         0.1882301355       -4.8769747019        0.1749891350
  H         0.0878358975       -3.4105850114       -0.0252557387
  O         6.5296123098        7.2087956065        7.7688274334
  H         5.9118533121        7.8808029054        7.5274784707
  H         6.3931232228        6.3678251788        7.3046713379
  O        -0.3517985541       -4.9945184885        4.7668318952
  H        -0.6157574179       -5.9173214439        4.8882638869
  H        -0.5069883834       -4.7152359671        5.6604638103
  O        -2.3772770988       -4.2980030291       -1.5688068393
  H        -2.1040438533       -4.9615264476       -0.8821380287
  H        -3.2039764105       -4.6568453681       -1.9298468510
