 DBCSR| CPU Multiplication driver                                           XSMM (U)
 DBCSR| Multrec recursion limit                                              512 (U)
 DBCSR| Multiplication stack size                                           1000 (D)
 DBCSR| Maximum elements for images                                    UNLIMITED (U)
 DBCSR| Multiplicative factor virtual images                                   1 (U)
 DBCSR| Use multiplication densification                                       T (D)
 DBCSR| Multiplication size stacks                                             3 (U)
 DBCSR| Use memory pool for CPU allocation                                     F (U)
 DBCSR| OMP: Current number of threads                                         1
 DBCSR| OMP: Max number of threads                                             1
 DBCSR| Split modifier for TAS multiplication algorithm                  1.0E+00 (U)


  **** **** ******  **  PROGRAM STARTED AT               2023-02-01 10:45:19.663
 ***** ** ***  *** **   PROGRAM STARTED ON                                moritz
 **    ****   ******    PROGRAM STARTED BY                                   ole
 ***** **    ** ** **   PROGRAM PROCESS ID                                148596
  **** **  *******  **  PROGRAM STARTED IN /home/ole/git/pao_ml_equivar/2H2O_rot
                                           ations/phi_21

 CP2K| version string:                 CP2K version 2023.1 (Development Version)
 CP2K| source code revision number:                                  git:03b4147
 CP2K| cp2kflags: omp libint fftw3 libxc quip xsmm spglib libvori libbqb libtorc
 CP2K|            h
 CP2K| is freely available from                            https://www.cp2k.org/
 CP2K| Program compiled at                           Mi 01 Feb 2023 10:36:52 CET
 CP2K| Program compiled on                                                moritz
 CP2K| Program compiled for                                                local
 CP2K| Data directory path                               /home/ole/git/cp2k/data
 CP2K| Input file name                                            2H2O_pao44.inp

 GLOBAL| Force Environment number                                              1
 GLOBAL| Basis set file name                                        BASIS_MOLOPT
 GLOBAL| Potential file name                                      GTH_POTENTIALS
 GLOBAL| MM Potential file name                                     MM_POTENTIAL
 GLOBAL| Coordinate file name                                         coords.xyz
 GLOBAL| Method name                                                        CP2K
 GLOBAL| Project name                                                 2H2O_pao44
 GLOBAL| Run type                                                         ENERGY
 GLOBAL| FFT library                                                       FFTW3
 GLOBAL| Diagonalization library                                       ScaLAPACK
 GLOBAL| DGEMM library                                                      BLAS
 GLOBAL| Orthonormality check for eigenvectors                          DISABLED
 GLOBAL| Matrix multiplication library                                 ScaLAPACK
 GLOBAL| All-to-all communication in single precision                          F
 GLOBAL| FFTs using library dependent lengths                                  F
 GLOBAL| Grid backend                                                       AUTO
 GLOBAL| Global print level                                                  LOW
 GLOBAL| MPI I/O enabled                                                       T
 GLOBAL| Total number of message passing processes                             1
 GLOBAL| Number of threads for this process                                    1
 GLOBAL| This output is from process                                           0
 GLOBAL| Stack size for threads created by OpenMP (OMP_STACKSIZE)        default
 GLOBAL| CPU model name           AMD Ryzen Threadripper 3970X 32-Core Processor
 GLOBAL| CPUID                                                              1002
 GLOBAL| Compiled for CPUID                                                    0

 *** HINT in environment.F:884 :: The compiler target flags (generic) used ***
 *** to build this binary cannot exploit all extensions of this CPU model  ***
 *** (x86_avx2). Consider compiler target flags as part of FCFLAGS and     ***
 *** CFLAGS (ARCH file).                                                   ***


 MEMORY| system memory details [Kb]
 MEMORY|                        rank 0           min           max       average
 MEMORY| MemTotal            131773860     131773860     131773860     131773860
 MEMORY| MemFree             118696576     118696576     118696576     118696576
 MEMORY| Buffers                301580        301580        301580        301580
 MEMORY| Cached                7018548       7018548       7018548       7018548
 MEMORY| Slab                   776140        776140        776140        776140
 MEMORY| SReclaimable           331304        331304        331304        331304
 MEMORY| MemLikelyFree       126348008     126348008     126348008     126348008


 GENERATE|  Preliminary Number of Bonds generated:                             0
 GENERATE|  Achieved consistency in connectivity generation.

 *******************************************************************************
 *******************************************************************************
 **                                                                           **
 **     #####                         ##              ##                      **
 **    ##   ##            ##          ##              ##                      **
 **   ##     ##                       ##            ######                    **
 **   ##     ##  ##   ##  ##   #####  ##  ##   ####   ##    #####    #####    **
 **   ##     ##  ##   ##  ##  ##      ## ##   ##      ##   ##   ##  ##   ##   **
 **   ##  ## ##  ##   ##  ##  ##      ####     ###    ##   ######   ######    **
 **    ##  ###   ##   ##  ##  ##      ## ##      ##   ##   ##       ##        **
 **     #######   #####   ##   #####  ##  ##  ####    ##    #####   ##        **
 **           ##                                                    ##        **
 **                                                                           **
 **                                                ... make the atoms dance   **
 **                                                                           **
 **            Copyright (C) by CP2K developers group (2000-2023)             **
 **                      J. Chem. Phys. 152, 194103 (2020)                    **
 **                                                                           **
 *******************************************************************************


 TOTAL NUMBERS AND MAXIMUM NUMBERS

  Total number of            - Atomic kinds:                                   2
                             - Atoms:                                          6
                             - Shell sets:                                     6
                             - Shells:                                        22
                             - Primitive Cartesian functions:                 42
                             - Cartesian basis functions:                     48
                             - Spherical basis functions:                     46

  Maximum angular momentum of- Orbital basis functions:                        2
                             - Local part of the GTH pseudopotential:          2
                             - Non-local part of the GTH pseudopotential:      0

 ------------------------------ Linear scaling SCF -----------------------------
 eps_scf:                                                              0.100E-07
 eps_filter:                                                           0.100E-07
 mixing_fraction:                                                      0.450E+00
 max_scf:                                                                     25
 fixed chemical potential (mu)                                                 F
 has unit metric:                                                              F
 Computing inv(S):                                                             T
 Computing sqrt(S):                                                            T
 Computing S preconditioner                                                    F
 S sqrt method:                                                     NEWTONSCHULZ
 S sqrt order:                                                                 3
 Extrapolation order:                                                          1
 Use single precision matrices                                                 F
 S preconditioner type                                                      NONE
 Polarized Atomic Orbitals (PAO)                                               T
 Purification method                                   Trace resetting 4th order
 Cluster type                                                             ATOMIC
 Computing Chebyshev                                                       FALSE
 Using PAO                                                                     T
 -------------------------------------------------------------------------------

 
 PAO|                                  EPS_PAO                           0.1E-04
 PAO|                                  MIXING                            0.5E+00
 PAO|                                  MAX_PAO                              1000
 PAO|                                  MAX_CYCLES                           1000
 PAO|                                  PARAMETERIZATION              EQUIVARIANT
 PAO|                                  PRECONDITION                            F
 PAO|                                  REGULARIZATION                    0.0E+00
 PAO|                                  EPS_PGF                           0.1E-09
 PAO|                                  PENALTY_DISTANCE                  0.1E+00
 PAO|                                  PENALTY_STRENGTH                  0.5E-02
 PAO|                                  LINPOT_PRECONDITION_DELTA         0.0E+00
 PAO|                                  LINPOT_INITGUESS_DELT             0.0E+00
 PAO|                                  LINPOT_REGULARIZATION_DELTA       0.0E+00
 PAO|                                  LINPOT_REGULARIZATION_STRENGTH    0.0E+00
 PAO|                                  OPTIMIZER                              CG
 PAO|                                  CG_INIT_STEPS                           2
 PAO|                                  CG_RESET_LIMIT                    0.1E+00
 PAO|                                  CHECK_UNITARY_TOL                -0.1E+01
 PAO|                                  CHECK_GRADIENT_TOL               -0.1E+01
 PAO|                                  NUM_GRADIENT_ORDER                      2
 PAO|                                  NUM_GRADIENT_EPS                  0.1E-07
 PAO|                                  PRINT%RESTART%WRITE_CYCLES            100
 PAO|                                  RESTART_FILE 
 PAO|                                  PREOPT_DM_FILE 2H2O_ref_LS_DM_SPIN_1_RESTART.dm
 PAO|                                  MACHINE_LEARNING%METHOD       GAUSSIAN_PR
 PAO|                                  MACHINE_LEARNING%PRIOR               ZERO
 PAO|                                  MACHINE_LEARNING%DESCRIPTOR     POTENTIAL
 PAO|                                  MACHINE_LEARNING%TOLERANCE        0.1E-01
 PAO|                                  MACHINE_LEARNING%GP_NOISE_VAR     0.1E+00
 PAO|                                  MACHINE_LEARNING%GP_SCALE         0.5E-01
 

 Calculating atomic Fock matrix for atomic kind: O

 Electronic structure
    Total number of core electrons                                          2.00
    Total number of valence electrons                                       6.00
    Total number of electrons                                               8.00
    Multiplicity                                                   not specified
    S   [  2.00] 2.00
    P      4.00


 *******************************************************************************
                  Iteration          Convergence                     Energy [au]
 *******************************************************************************
                          1        0.708315                     -15.576645311500
                          2        0.608879                     -15.587933561584
                          3        0.102828E-01                 -15.656849565404
                          4        0.113889E-02                 -15.656866888140
                          5        0.434197E-03                 -15.656867072159
                          6        0.263771E-03                 -15.656867091904
                          7        0.478536E-06                 -15.656867103452

 Energy components [Hartree]           Total Energy ::          -15.656867103452
                                        Band Energy ::           -3.000198112285
                                     Kinetic Energy ::           11.759971203220
                                   Potential Energy ::          -27.416838306672
                                      Virial (-V/T) ::            2.331369510426
                                        Core Energy ::          -26.140716385623
                                          XC Energy ::           -3.154051012914
                                     Coulomb Energy ::           13.637900295084
                       Total Pseudopotential Energy ::          -37.935781716540
                       Local Pseudopotential Energy ::          -39.218907440693
                    Nonlocal Pseudopotential Energy ::            1.283125724153
                                        Confinement ::            0.350941276976

 Orbital energies  State     L     Occupation   Energy[a.u.]          Energy[eV]

                       1     0          2.000      -0.864471          -23.523463

                       1     1          4.000      -0.317814           -8.648154


 Total Electron Density at R=0:                                         0.000068

 Calculating atomic Fock matrix for atomic kind: H

 Electronic structure
    Total number of core electrons                                          0.00
    Total number of valence electrons                                       1.00
    Total number of electrons                                               1.00
    Multiplicity                                                   not specified
    S      1.00


 *******************************************************************************
                  Iteration          Convergence                     Energy [au]
 *******************************************************************************
                          1        0.437545E-02                  -0.424159432110
                          2        0.531356E-03                  -0.424178438213
                          3        0.259176E-06                  -0.424178722480

 Energy components [Hartree]           Total Energy ::           -0.424178722480
                                        Band Energy ::           -0.199015229016
                                     Kinetic Energy ::            0.464007633961
                                   Potential Energy ::           -0.888186356441
                                      Virial (-V/T) ::            1.914163240935
                                        Core Energy ::           -0.479160803564
                                          XC Energy ::           -0.244352904054
                                     Coulomb Energy ::            0.299334985138
                       Total Pseudopotential Energy ::           -0.962295316385
                       Local Pseudopotential Energy ::           -0.962295316385
                    Nonlocal Pseudopotential Energy ::            0.000000000000
                                        Confinement ::            0.191268788606

 Orbital energies  State     L     Occupation   Energy[a.u.]          Energy[eV]

                       1     0          1.000      -0.199015           -5.415480


 Total Electron Density at R=0:                                         0.242907
 PAO| Made initial guess for matrix_X with norm:   4.8989794855663558     

     Lanczos converged:  T threshold:   0.100E-02
     Est. extremal eigenvalues:    0.336E+01   0.110E+00
     Est. condition number :    0.305E+02

 Order=           3
     NS sqrt iter    1 1.00000000   0.821E+00       0.001       64.512
     NS sqrt iter    2 1.00000000   0.440E+00       0.001      110.592
     NS sqrt iter    3 1.00000000   0.171E+00       0.001      110.592
     NS sqrt iter    4 1.00000000   0.213E-01       0.001      110.592
     NS sqrt iter    5 1.00000000   0.637E-04       0.001       99.584
     Symmetrizing Results
     Final NS sqrt iter    5 1.00000000   0.525E-08

 PAO| Read restart DM 2H2O_ref_LS_DM_SPIN_1_RESTART.dm with checksum:    73.792760995574071     
 PAO| Quickstep energy from restart density:  -34.450566256790182     
 PAO| ======================= Iteration:         1 =============================

     Lanczos converged:  T threshold:   0.100E-02
     Est. extremal eigenvalues:    0.336E+01   0.110E+00
     Est. condition number :    0.305E+02

 Order=           3
     NS sqrt iter    1 1.00000000   0.821E+00       0.001       64.512
     NS sqrt iter    2 1.00000000   0.440E+00       0.001      110.592
     NS sqrt iter    3 1.00000000   0.171E+00       0.001      110.592
     NS sqrt iter    4 1.00000000   0.213E-01       0.001      110.592
     NS sqrt iter    5 1.00000000   0.637E-04       0.001       99.584
     Symmetrizing Results
     Final NS sqrt iter    5 1.00000000   0.525E-08

     Est. extremal eigenvalues     -0.92029     1.96120  converged:  T
     TRS4 it   1 1.00000000   0.902E+00       0.000       16.128   0.100E-07
     TRS4 it   2 1.00000000   0.711E+00       0.000       32.256   0.100E-07
     TRS4 it   3 1.00000000   0.507E+00       0.000       32.256   0.100E-07
     TRS4 it   4 1.00000000   0.319E+00       0.000       32.256   0.100E-07
     TRS4 it   5 1.00000000   0.160E+00       0.000       32.256   0.100E-07
     TRS4 it   6 1.00000000   0.511E-01       0.000       32.256   0.100E-07
     TRS4 it   7 1.00000000   0.727E-02       0.000       32.256   0.100E-07
     TRS4 it   8 1.00000000   0.208E-03       0.000       32.256   0.100E-07
     TRS4 it   9 1.00000000   0.193E-06       0.000       32.256   0.100E-07
     TRS4 it  10 1.00000000   0.167E-12       0.000       32.256   0.100E-07
     Final TRS4 iteration   10 1.00000000   0.167E-12
     Chemical potential (mu):      -0.06567
 
 PAO| energy:  -7.6293324077754852      penalty:   4.8687508994109331E-033
 PAO|CG| warming up with steepest descent
 PAO|CG| beta:    0.0000000000000000     
 PAO| norm of gradient:  0.78355862529360587     
 PAO|LS| adapt:  T F F
 PAO|LS| adapt: scan_steps:    0.0000000000000000        0.0000000000000000        0.0000000000000000     
 PAO|LS| adapt: energies:   -7.6293324077754852        0.0000000000000000        0.0000000000000000     
 PAO| ======================= Iteration:         2 =============================

     Lanczos converged:  T threshold:   0.100E-02
     Est. extremal eigenvalues:    0.328E+01   0.122E+00
     Est. condition number :    0.268E+02

 Order=           3
     NS sqrt iter    1 1.00000000   0.804E+00       0.001       64.512
     NS sqrt iter    2 1.00000000   0.425E+00       0.001      110.592
     NS sqrt iter    3 1.00000000   0.154E+00       0.001      110.592
     NS sqrt iter    4 1.00000000   0.149E-01       0.001      110.592
     NS sqrt iter    5 1.00000000   0.221E-04       0.001       82.944
     Symmetrizing Results
     Final NS sqrt iter    5 1.00000000   0.762E-09

     Est. extremal eigenvalues     -0.92396     1.90542  converged:  T
     TRS4 it   1 1.00000000   0.900E+00       0.000       16.128   0.100E-07
     TRS4 it   2 1.00000000   0.693E+00       0.000       32.256   0.100E-07
     TRS4 it   3 1.00000000   0.492E+00       0.000       32.256   0.100E-07
     TRS4 it   4 1.00000000   0.300E+00       0.000       32.256   0.100E-07
     TRS4 it   5 1.00000000   0.141E+00       0.000       32.256   0.100E-07
     TRS4 it   6 1.00000000   0.401E-01       0.000       32.256   0.100E-07
     TRS4 it   7 1.00000000   0.452E-02       0.000       32.256   0.100E-07
     TRS4 it   8 1.00000000   0.813E-04       0.000       32.256   0.100E-07
     TRS4 it   9 1.00000000   0.293E-07       0.000       32.256   0.100E-07
     Final TRS4 iteration    9 1.00000000   0.293E-07
     Chemical potential (mu):      -0.05377
 
 PAO| energy:  -7.6848416809646594      penalty:   2.2509802926351400E-008
 PAO|LS| adapt:  T T F
 PAO|LS| adapt: scan_steps:    0.0000000000000000       0.10000000000000001        0.0000000000000000     
 PAO|LS| adapt: energies:   -7.6293324077754852       -7.6848416809646594        0.0000000000000000     
 PAO| ======================= Iteration:         3 =============================

     Lanczos converged:  T threshold:   0.100E-02
     Est. extremal eigenvalues:    0.318E+01   0.133E+00
     Est. condition number :    0.239E+02

 Order=           3
     NS sqrt iter    1 1.00000000   0.786E+00       0.001       64.512
     NS sqrt iter    2 1.00000000   0.408E+00       0.001      110.592
     NS sqrt iter    3 1.00000000   0.137E+00       0.001      110.592
     NS sqrt iter    4 1.00000000   0.104E-01       0.001      110.592
     NS sqrt iter    5 1.00000000   0.794E-05       0.001       82.944
     Symmetrizing Results
     Final NS sqrt iter    5 1.00000000   0.100E-09

     Est. extremal eigenvalues     -0.92739     1.85928  converged:  T
     TRS4 it   1 1.00000000   0.898E+00       0.000       16.128   0.100E-07
     TRS4 it   2 1.00000000   0.677E+00       0.000       32.256   0.100E-07
     TRS4 it   3 1.00000000   0.478E+00       0.000       32.256   0.100E-07
     TRS4 it   4 1.00000000   0.282E+00       0.000       32.256   0.100E-07
     TRS4 it   5 1.00000000   0.124E+00       0.000       32.256   0.100E-07
     TRS4 it   6 1.00000000   0.306E-01       0.000       32.256   0.100E-07
     TRS4 it   7 1.00000000   0.262E-02       0.000       32.256   0.100E-07
     TRS4 it   8 1.00000000   0.273E-04       0.000       32.256   0.100E-07
     TRS4 it   9 1.00000000   0.331E-08       0.000       32.256   0.100E-07
     Final TRS4 iteration    9 1.00000000   0.331E-08
     Chemical potential (mu):      -0.04089
 
 PAO| energy:  -7.7279167942524625      penalty:   3.6015707221418301E-007
 PAO|LS| adapt:  T T F
 PAO|LS| adapt: scan_steps:    0.0000000000000000       0.20000000000000001        0.0000000000000000     
 PAO|LS| adapt: energies:   -7.6293324077754852       -7.7279167942524625        0.0000000000000000     
 PAO| ======================= Iteration:         4 =============================

     Lanczos converged:  T threshold:   0.100E-02
     Est. extremal eigenvalues:    0.299E+01   0.151E+00
     Est. condition number :    0.198E+02

 Order=           3
     NS sqrt iter    1 1.00000000   0.749E+00       0.001       64.512
     NS sqrt iter    2 1.00000000   0.374E+00       0.001      110.592
     NS sqrt iter    3 1.00000000   0.107E+00       0.001      110.592
     NS sqrt iter    4 1.00000000   0.521E-02       0.001      110.592
     NS sqrt iter    5 1.00000000   0.119E-05       0.001       82.944
     Symmetrizing Results
     Final NS sqrt iter    5 1.00000000   0.240E-11

     Est. extremal eigenvalues     -0.93273     1.78931  converged:  T
     TRS4 it   1 1.00000000   0.895E+00       0.000       16.128   0.100E-07
     TRS4 it   2 1.00000000   0.649E+00       0.000       32.256   0.100E-07
     TRS4 it   3 1.00000000   0.451E+00       0.000       32.256   0.100E-07
     TRS4 it   4 1.00000000   0.247E+00       0.000       32.256   0.100E-07
     TRS4 it   5 1.00000000   0.925E-01       0.000       32.256   0.100E-07
     TRS4 it   6 1.00000000   0.165E-01       0.000       32.256   0.100E-07
     TRS4 it   7 1.00000000   0.729E-03       0.000       32.256   0.100E-07
     TRS4 it   8 1.00000000   0.203E-05       0.000       32.256   0.100E-07
     TRS4 it   9 1.00000000   0.184E-10       0.000       32.256   0.100E-07
     Final TRS4 iteration    9 1.00000000   0.184E-10
     Chemical potential (mu):      -0.01240
 
 PAO| energy:  -7.7751514490597273      penalty:   5.7625149585763328E-006
 PAO|LS| Need extra step
 PAO|LS| adapt:  T T F
 PAO|LS| adapt: scan_steps:    0.0000000000000000       0.40000000000000002        0.0000000000000000     
 PAO|LS| adapt: energies:   -7.6293324077754852       -7.7751514490597273        0.0000000000000000     
 PAO| ======================= Iteration:         5 =============================

     Lanczos converged:  T threshold:   0.100E-02
     Est. extremal eigenvalues:    0.264E+01   0.180E+00
     Est. condition number :    0.146E+02

 Order=           3
     NS sqrt iter    1 1.00000000   0.686E+00       0.001       64.512
     NS sqrt iter    2 1.00000000   0.312E+00       0.001      110.592
     NS sqrt iter    3 1.00000000   0.667E-01       0.001      110.592
     NS sqrt iter    4 1.00000000   0.146E-02       0.001      110.592
     NS sqrt iter    5 1.00000000   0.311E-07       0.001       61.312
     Symmetrizing Results
     Final NS sqrt iter    5 1.00000000   0.421E-08

     Est. extremal eigenvalues     -0.93397     1.70443  converged:  T
     TRS4 it   1 1.00000000   0.888E+00       0.000       16.128   0.100E-07
     TRS4 it   2 1.00000000   0.610E+00       0.000       32.256   0.100E-07
     TRS4 it   3 1.00000000   0.404E+00       0.000       32.256   0.100E-07
     TRS4 it   4 1.00000000   0.190E+00       0.000       32.256   0.100E-07
     TRS4 it   5 1.00000000   0.513E-01       0.000       32.256   0.100E-07
     TRS4 it   6 1.00000000   0.463E-02       0.000       32.256   0.100E-07
     TRS4 it   7 1.00000000   0.486E-04       0.000       32.256   0.100E-07
     TRS4 it   8 1.00000000   0.692E-08       0.000       32.256   0.100E-07
     Final TRS4 iteration    8 1.00000000   0.692E-08
     Chemical potential (mu):       0.03612
 
 PAO| energy:  -7.7203465055339509      penalty:   9.2200253762451229E-005
 PAO|LS| Need extra step
 PAO|LS| adapt:  T T T
 PAO|LS| adapt: scan_steps:    0.0000000000000000       0.40000000000000002       0.80000000000000004     
 PAO|LS| adapt: energies:   -7.6293324077754852       -7.7751514490597273       -7.7203465055339509     
 PAO|LS| adapt: suggested step_size:   0.49073102385505074     
 PAO|LS| adapt: predicted energy  -7.7803125754815206     
 PAO| ======================= Iteration:         6 =============================

     Lanczos converged:  T threshold:   0.100E-02
     Est. extremal eigenvalues:    0.290E+01   0.159E+00
     Est. condition number :    0.183E+02

 Order=           3
     NS sqrt iter    1 1.00000000   0.733E+00       0.001       64.512
     NS sqrt iter    2 1.00000000   0.359E+00       0.001      110.592
     NS sqrt iter    3 1.00000000   0.961E-01       0.001      110.592
     NS sqrt iter    4 1.00000000   0.386E-02       0.001      110.592
     NS sqrt iter    5 1.00000000   0.518E-06       0.001       82.944
     Symmetrizing Results
     Final NS sqrt iter    5 1.00000000   0.466E-12

     Est. extremal eigenvalues     -0.93421     1.76490  converged:  T
     TRS4 it   1 1.00000000   0.893E+00       0.000       16.128   0.100E-07
     TRS4 it   2 1.00000000   0.639E+00       0.000       32.256   0.100E-07
     TRS4 it   3 1.00000000   0.439E+00       0.000       32.256   0.100E-07
     TRS4 it   4 1.00000000   0.232E+00       0.000       32.256   0.100E-07
     TRS4 it   5 1.00000000   0.806E-01       0.000       32.256   0.100E-07
     TRS4 it   6 1.00000000   0.123E-01       0.000       32.256   0.100E-07
     TRS4 it   7 1.00000000   0.384E-03       0.000       32.256   0.100E-07
     TRS4 it   8 1.00000000   0.537E-06       0.000       32.256   0.100E-07
     TRS4 it   9 1.00000000   0.126E-11       0.000       32.256   0.100E-07
     Final TRS4 iteration    9 1.00000000   0.126E-11
     Chemical potential (mu):       0.00144
 
 PAO| energy:  -7.7795831084406055      penalty:   1.3054077442399863E-005
 PAO|CG| warming up with steepest descent
 PAO|CG| beta:    0.0000000000000000     
 PAO| norm of gradient:  0.41712687188599024     
 PAO| energy improvement: -0.15025070066512036     
 PAO| step      6                   -7.779583108  0.261E-01  0.491E+00     0.059
 PAO|LS| adapt:  T F F
 PAO|LS| adapt: scan_steps:    0.0000000000000000        0.0000000000000000        0.0000000000000000     
 PAO|LS| adapt: energies:   -7.7795831084406055        0.0000000000000000        0.0000000000000000     
 PAO| ======================= Iteration:         7 =============================

     Lanczos converged:  T threshold:   0.100E-02
     Est. extremal eigenvalues:    0.282E+01   0.172E+00
     Est. condition number :    0.164E+02

 Order=           3
     NS sqrt iter    1 1.00000000   0.716E+00       0.001       64.512
     NS sqrt iter    2 1.00000000   0.338E+00       0.001      110.592
     NS sqrt iter    3 1.00000000   0.805E-01       0.001      110.592
     NS sqrt iter    4 1.00000000   0.237E-02       0.001      110.592
     NS sqrt iter    5 1.00000000   0.133E-06       0.001       78.336
     Symmetrizing Results
     Final NS sqrt iter    5 1.00000000   0.119E-08

     Est. extremal eigenvalues     -0.93593     1.74936  converged:  T
     TRS4 it   1 1.00000000   0.892E+00       0.000       16.128   0.100E-07
     TRS4 it   2 1.00000000   0.636E+00       0.000       32.256   0.100E-07
     TRS4 it   3 1.00000000   0.439E+00       0.000       32.256   0.100E-07
     TRS4 it   4 1.00000000   0.233E+00       0.000       32.256   0.100E-07
     TRS4 it   5 1.00000000   0.813E-01       0.000       32.256   0.100E-07
     TRS4 it   6 1.00000000   0.122E-01       0.000       32.256   0.100E-07
     TRS4 it   7 1.00000000   0.360E-03       0.000       32.256   0.100E-07
     TRS4 it   8 1.00000000   0.448E-06       0.000       32.256   0.100E-07
     TRS4 it   9 1.00000000   0.858E-12       0.000       32.256   0.100E-07
     Final TRS4 iteration    9 1.00000000   0.858E-12
     Chemical potential (mu):       0.00337
 
 PAO| energy:  -7.7736312851644440      penalty:   1.9751244310566014E-005
 PAO|LS| adapt:  T F T
 PAO|LS| adapt: scan_steps:    0.0000000000000000        0.0000000000000000       0.49073102385505074     
 PAO|LS| adapt: energies:   -7.7795831084406055        0.0000000000000000       -7.7736312851644440     
 PAO| ======================= Iteration:         8 =============================

     Lanczos converged:  T threshold:   0.100E-02
     Est. extremal eigenvalues:    0.286E+01   0.165E+00
     Est. condition number :    0.173E+02

 Order=           3
     NS sqrt iter    1 1.00000000   0.724E+00       0.001       64.512
     NS sqrt iter    2 1.00000000   0.348E+00       0.001      110.592
     NS sqrt iter    3 1.00000000   0.881E-01       0.001      110.592
     NS sqrt iter    4 1.00000000   0.304E-02       0.001      110.592
     NS sqrt iter    5 1.00000000   0.268E-06       0.001       81.536
     Symmetrizing Results
     Final NS sqrt iter    5 1.00000000   0.645E-09

     Est. extremal eigenvalues     -0.93602     1.75655  converged:  T
     TRS4 it   1 1.00000000   0.892E+00       0.000       16.128   0.100E-07
     TRS4 it   2 1.00000000   0.637E+00       0.000       32.256   0.100E-07
     TRS4 it   3 1.00000000   0.439E+00       0.000       32.256   0.100E-07
     TRS4 it   4 1.00000000   0.232E+00       0.000       32.256   0.100E-07
     TRS4 it   5 1.00000000   0.807E-01       0.000       32.256   0.100E-07
     TRS4 it   6 1.00000000   0.123E-01       0.000       32.256   0.100E-07
     TRS4 it   7 1.00000000   0.381E-03       0.000       32.256   0.100E-07
     TRS4 it   8 1.00000000   0.520E-06       0.000       32.256   0.100E-07
     TRS4 it   9 1.00000000   0.117E-11       0.000       32.256   0.100E-07
     Final TRS4 iteration    9 1.00000000   0.117E-11
     Chemical potential (mu):       0.00192
 
 PAO| energy:  -7.7992032322769305      penalty:   1.4152955074829740E-005
 PAO|LS| adapt:  T T T
 PAO|LS| adapt: scan_steps:    0.0000000000000000       0.24536551192752537       0.49073102385505074     
 PAO|LS| adapt: energies:   -7.7795831084406055       -7.7992032322769305       -7.7736312851644440     
 PAO|LS| adapt: suggested step_size:   0.22920811822552309     
 PAO|LS| adapt: predicted energy  -7.7993012146208649     
 PAO| ======================= Iteration:         9 =============================

     Lanczos converged:  T threshold:   0.100E-02
     Est. extremal eigenvalues:    0.286E+01   0.165E+00
     Est. condition number :    0.174E+02

 Order=           3
     NS sqrt iter    1 1.00000000   0.725E+00       0.001       64.512
     NS sqrt iter    2 1.00000000   0.349E+00       0.001      110.592
     NS sqrt iter    3 1.00000000   0.886E-01       0.001      110.592
     NS sqrt iter    4 1.00000000   0.309E-02       0.001      110.592
     NS sqrt iter    5 1.00000000   0.280E-06       0.001       81.536
     Symmetrizing Results
     Final NS sqrt iter    5 1.00000000   0.675E-09

     Est. extremal eigenvalues     -0.93597     1.75706  converged:  T
     TRS4 it   1 1.00000000   0.892E+00       0.000       16.128   0.100E-07
     TRS4 it   2 1.00000000   0.637E+00       0.000       32.256   0.100E-07
     TRS4 it   3 1.00000000   0.439E+00       0.000       32.256   0.100E-07
     TRS4 it   4 1.00000000   0.232E+00       0.000       32.256   0.100E-07
     TRS4 it   5 1.00000000   0.807E-01       0.000       32.256   0.100E-07
     TRS4 it   6 1.00000000   0.123E-01       0.000       32.256   0.100E-07
     TRS4 it   7 1.00000000   0.382E-03       0.000       32.256   0.100E-07
     TRS4 it   8 1.00000000   0.523E-06       0.000       32.256   0.100E-07
     TRS4 it   9 1.00000000   0.119E-11       0.000       32.256   0.100E-07
     Final TRS4 iteration    9 1.00000000   0.119E-11
     Chemical potential (mu):       0.00186
 
 PAO| energy:  -7.7993252419744605      penalty:   1.3980686200032304E-005
 PAO|CG| trace_G_new    3.6850048573138248E-002
 PAO|CG| trace_G_prev   0.17399482724939133     
 PAO|CG| trace_G_mix   -1.4391711811871828E-003
 PAO|CG| trace_D   0.17399482724939133     
 PAO|CG| trace_D_Gnew   1.4391711811871828E-003
 PAO|CG| beta:   0.22005952912292326     
 PAO| norm of gradient:  0.19196366472105664     
 PAO| energy improvement:  -1.9742133533855011E-002
 PAO| step      9                   -7.799325242  0.120E-01  0.229E+00     0.037
 PAO|LS| adapt:  T F F
 PAO|LS| adapt: scan_steps:    0.0000000000000000        0.0000000000000000        0.0000000000000000     
 PAO|LS| adapt: energies:   -7.7993252419744605        0.0000000000000000        0.0000000000000000     
 PAO| ======================= Iteration:        10 =============================

     Lanczos converged:  T threshold:   0.100E-02
     Est. extremal eigenvalues:    0.283E+01   0.171E+00
     Est. condition number :    0.166E+02

 Order=           3
     NS sqrt iter    1 1.00000000   0.717E+00       0.001       64.512
     NS sqrt iter    2 1.00000000   0.341E+00       0.001      110.592
     NS sqrt iter    3 1.00000000   0.830E-01       0.001      110.592
     NS sqrt iter    4 1.00000000   0.255E-02       0.001      110.592
     NS sqrt iter    5 1.00000000   0.155E-06       0.001       78.976
     Symmetrizing Results
     Final NS sqrt iter    5 1.00000000   0.118E-08

     Est. extremal eigenvalues     -0.93686     1.74921  converged:  T
     TRS4 it   1 1.00000000   0.889E+00       0.000       16.128   0.100E-07
     TRS4 it   2 1.00000000   0.635E+00       0.000       32.256   0.100E-07
     TRS4 it   3 1.00000000   0.436E+00       0.000       32.256   0.100E-07
     TRS4 it   4 1.00000000   0.229E+00       0.000       32.256   0.100E-07
     TRS4 it   5 1.00000000   0.783E-01       0.000       32.256   0.100E-07
     TRS4 it   6 1.00000000   0.115E-01       0.000       32.256   0.100E-07
     TRS4 it   7 1.00000000   0.331E-03       0.000       32.256   0.100E-07
     TRS4 it   8 1.00000000   0.383E-06       0.000       32.256   0.100E-07
     TRS4 it   9 1.00000000   0.629E-12       0.000       32.256   0.100E-07
     Final TRS4 iteration    9 1.00000000   0.629E-12
     Chemical potential (mu):       0.00501
 
 PAO| energy:  -7.8043541576533633      penalty:   1.4517184714194215E-005
 PAO|LS| adapt:  T T F
 PAO|LS| adapt: scan_steps:    0.0000000000000000       0.22920811822552309        0.0000000000000000     
 PAO|LS| adapt: energies:   -7.7993252419744605       -7.8043541576533633        0.0000000000000000     
 PAO| ======================= Iteration:        11 =============================

     Lanczos converged:  T threshold:   0.100E-02
     Est. extremal eigenvalues:    0.279E+01   0.177E+00
     Est. condition number :    0.158E+02

 Order=           3
     NS sqrt iter    1 1.00000000   0.710E+00       0.001       64.512
     NS sqrt iter    2 1.00000000   0.333E+00       0.001      110.592
     NS sqrt iter    3 1.00000000   0.776E-01       0.001      110.592
     NS sqrt iter    4 1.00000000   0.209E-02       0.001      110.592
     NS sqrt iter    5 1.00000000   0.848E-07       0.001       75.264
     Symmetrizing Results
     Final NS sqrt iter    5 1.00000000   0.652E-09

     Est. extremal eigenvalues     -0.93677     1.74244  converged:  T
     TRS4 it   1 1.00000000   0.887E+00       0.000       16.128   0.100E-07
     TRS4 it   2 1.00000000   0.632E+00       0.000       32.256   0.100E-07
     TRS4 it   3 1.00000000   0.434E+00       0.000       32.256   0.100E-07
     TRS4 it   4 1.00000000   0.226E+00       0.000       32.256   0.100E-07
     TRS4 it   5 1.00000000   0.760E-01       0.000       32.256   0.100E-07
     TRS4 it   6 1.00000000   0.108E-01       0.000       32.256   0.100E-07
     TRS4 it   7 1.00000000   0.286E-03       0.000       32.256   0.100E-07
     TRS4 it   8 1.00000000   0.277E-06       0.000       32.256   0.100E-07
     TRS4 it   9 1.00000000   0.322E-12       0.000       32.256   0.100E-07
     Final TRS4 iteration    9 1.00000000   0.322E-12
     Chemical potential (mu):       0.00829
 
 PAO| energy:  -7.8029371167238040      penalty:   1.5720983694242923E-005
 PAO|LS| adapt:  T T T
 PAO|LS| adapt: scan_steps:    0.0000000000000000       0.22920811822552309       0.45841623645104618     
 PAO|LS| adapt: energies:   -7.7993252419744605       -7.8043541576533633       -7.8029371167238040     
 PAO|LS| adapt: suggested step_size:   0.29342442193725538     
 PAO|LS| adapt: predicted energy  -7.8046071387079481     
 PAO| ======================= Iteration:        12 =============================

     Lanczos converged:  T threshold:   0.100E-02
     Est. extremal eigenvalues:    0.282E+01   0.172E+00
     Est. condition number :    0.163E+02

 Order=           3
     NS sqrt iter    1 1.00000000   0.715E+00       0.001       64.512
     NS sqrt iter    2 1.00000000   0.339E+00       0.001      110.592
     NS sqrt iter    3 1.00000000   0.815E-01       0.001      110.592
     NS sqrt iter    4 1.00000000   0.241E-02       0.001      110.592
     NS sqrt iter    5 1.00000000   0.131E-06       0.001       78.080
     Symmetrizing Results
     Final NS sqrt iter    5 1.00000000   0.129E-08

     Est. extremal eigenvalues     -0.93693     1.74720  converged:  T
     TRS4 it   1 1.00000000   0.889E+00       0.000       16.128   0.100E-07
     TRS4 it   2 1.00000000   0.634E+00       0.000       32.256   0.100E-07
     TRS4 it   3 1.00000000   0.435E+00       0.000       32.256   0.100E-07
     TRS4 it   4 1.00000000   0.228E+00       0.000       32.256   0.100E-07
     TRS4 it   5 1.00000000   0.777E-01       0.000       32.256   0.100E-07
     TRS4 it   6 1.00000000   0.113E-01       0.000       32.256   0.100E-07
     TRS4 it   7 1.00000000   0.318E-03       0.000       32.256   0.100E-07
     TRS4 it   8 1.00000000   0.350E-06       0.000       32.256   0.100E-07
     TRS4 it   9 1.00000000   0.524E-12       0.000       32.256   0.100E-07
     Final TRS4 iteration    9 1.00000000   0.524E-12
     Chemical potential (mu):       0.00592
 
 PAO| energy:  -7.8045909870086021      penalty:   1.4779544427726476E-005
 PAO|CG| trace_G_new    1.1794023344905334E-002
 PAO|CG| trace_G_prev    3.6850048573138248E-002
 PAO|CG| trace_G_mix   -4.5924020771934289E-004
 PAO|CG| trace_D    4.4642549577840564E-002
 PAO|CG| trace_D_Gnew   2.0986718294134336E-004
 PAO|CG| beta:   0.33251689012851571     
 PAO| norm of gradient:  0.10860029164281897     
 PAO| energy improvement:  -5.2657450341415668E-003
 PAO| step     12                   -7.804590987  0.679E-02  0.293E+00     0.037
 PAO|LS| adapt:  T F F
 PAO|LS| adapt: scan_steps:    0.0000000000000000        0.0000000000000000        0.0000000000000000     
 PAO|LS| adapt: energies:   -7.8045909870086021        0.0000000000000000        0.0000000000000000     
 PAO| ======================= Iteration:        13 =============================

     Lanczos converged:  T threshold:   0.100E-02
     Est. extremal eigenvalues:    0.278E+01   0.177E+00
     Est. condition number :    0.158E+02

 Order=           3
     NS sqrt iter    1 1.00000000   0.708E+00       0.001       64.512
     NS sqrt iter    2 1.00000000   0.332E+00       0.001      110.592
     NS sqrt iter    3 1.00000000   0.771E-01       0.001      110.592
     NS sqrt iter    4 1.00000000   0.206E-02       0.001      110.592
     NS sqrt iter    5 1.00000000   0.824E-07       0.001       75.136
     Symmetrizing Results
     Final NS sqrt iter    5 1.00000000   0.646E-09

     Est. extremal eigenvalues     -0.93741     1.73921  converged:  T
     TRS4 it   1 1.00000000   0.888E+00       0.000       16.128   0.100E-07
     TRS4 it   2 1.00000000   0.631E+00       0.000       32.256   0.100E-07
     TRS4 it   3 1.00000000   0.431E+00       0.000       32.256   0.100E-07
     TRS4 it   4 1.00000000   0.223E+00       0.000       32.256   0.100E-07
     TRS4 it   5 1.00000000   0.740E-01       0.000       32.256   0.100E-07
     TRS4 it   6 1.00000000   0.102E-01       0.000       32.256   0.100E-07
     TRS4 it   7 1.00000000   0.255E-03       0.000       32.256   0.100E-07
     TRS4 it   8 1.00000000   0.220E-06       0.000       32.256   0.100E-07
     TRS4 it   9 1.00000000   0.203E-12       0.000       32.256   0.100E-07
     Final TRS4 iteration    9 1.00000000   0.203E-12
     Chemical potential (mu):       0.01046
 
 PAO| energy:  -7.8066547271450162      penalty:   1.5083288160062729E-005
 PAO|LS| adapt:  T T F
 PAO|LS| adapt: scan_steps:    0.0000000000000000       0.29342442193725538        0.0000000000000000     
 PAO|LS| adapt: energies:   -7.8045909870086021       -7.8066547271450162        0.0000000000000000     
 PAO| ======================= Iteration:        14 =============================

     Lanczos converged:  T threshold:   0.100E-02
     Est. extremal eigenvalues:    0.275E+01   0.181E+00
     Est. condition number :    0.152E+02

 Order=           3
     NS sqrt iter    1 1.00000000   0.701E+00       0.001       64.512
     NS sqrt iter    2 1.00000000   0.325E+00       0.001      110.592
     NS sqrt iter    3 1.00000000   0.730E-01       0.001      110.592
     NS sqrt iter    4 1.00000000   0.176E-02       0.001      110.592
     NS sqrt iter    5 1.00000000   0.515E-07       0.001       71.936
     Symmetrizing Results
     Final NS sqrt iter    5 1.00000000   0.650E-09

     Est. extremal eigenvalues     -0.93739     1.73155  converged:  T
     TRS4 it   1 1.00000000   0.887E+00       0.000       16.128   0.100E-07
     TRS4 it   2 1.00000000   0.627E+00       0.000       32.256   0.100E-07
     TRS4 it   3 1.00000000   0.427E+00       0.000       32.256   0.100E-07
     TRS4 it   4 1.00000000   0.218E+00       0.000       32.256   0.100E-07
     TRS4 it   5 1.00000000   0.705E-01       0.000       32.256   0.100E-07
     TRS4 it   6 1.00000000   0.921E-02       0.000       32.256   0.100E-07
     TRS4 it   7 1.00000000   0.205E-03       0.000       32.256   0.100E-07
     TRS4 it   8 1.00000000   0.138E-06       0.000       32.256   0.100E-07
     TRS4 it   9 1.00000000   0.775E-13       0.000       32.256   0.100E-07
     Final TRS4 iteration    9 1.00000000   0.775E-13
     Chemical potential (mu):       0.01491
 
 PAO| energy:  -7.8060152573471333      penalty:   1.5864338074433529E-005
 PAO|LS| adapt:  T T T
 PAO|LS| adapt: scan_steps:    0.0000000000000000       0.29342442193725538       0.58684884387451075     
 PAO|LS| adapt: energies:   -7.8045909870086021       -7.8066547271450162       -7.8060152573471333     
 PAO|LS| adapt: suggested step_size:   0.37072431926738797     
 PAO|LS| adapt: predicted energy  -7.8067485297929107     
 PAO| ======================= Iteration:        15 =============================

     Lanczos converged:  T threshold:   0.100E-02
     Est. extremal eigenvalues:    0.277E+01   0.178E+00
     Est. condition number :    0.156E+02

 Order=           3
     NS sqrt iter    1 1.00000000   0.706E+00       0.001       64.512
     NS sqrt iter    2 1.00000000   0.330E+00       0.001      110.592
     NS sqrt iter    3 1.00000000   0.760E-01       0.001      110.592
     NS sqrt iter    4 1.00000000   0.197E-02       0.001      110.592
     NS sqrt iter    5 1.00000000   0.728E-07       0.001       74.880
     Symmetrizing Results
     Final NS sqrt iter    5 1.00000000   0.572E-09

     Est. extremal eigenvalues     -0.93746     1.73716  converged:  T
     TRS4 it   1 1.00000000   0.887E+00       0.000       16.128   0.100E-07
     TRS4 it   2 1.00000000   0.630E+00       0.000       32.256   0.100E-07
     TRS4 it   3 1.00000000   0.430E+00       0.000       32.256   0.100E-07
     TRS4 it   4 1.00000000   0.222E+00       0.000       32.256   0.100E-07
     TRS4 it   5 1.00000000   0.731E-01       0.000       32.256   0.100E-07
     TRS4 it   6 1.00000000   0.994E-02       0.000       32.256   0.100E-07
     TRS4 it   7 1.00000000   0.241E-03       0.000       32.256   0.100E-07
     TRS4 it   8 1.00000000   0.195E-06       0.000       32.256   0.100E-07
     TRS4 it   9 1.00000000   0.157E-12       0.000       32.256   0.100E-07
     Final TRS4 iteration    9 1.00000000   0.157E-12
     Chemical potential (mu):       0.01165
 
 PAO| energy:  -7.8067454593205303      penalty:   1.5239691681955387E-005
 PAO|CG| trace_G_new    2.6253995672819428E-003
 PAO|CG| trace_G_prev    1.1794023344905334E-002
 PAO|CG| trace_G_mix    6.3774962535700398E-005
 PAO|CG| trace_D    1.6590468885618326E-002
 PAO|CG| trace_D_Gnew   3.3883585792909190E-005
 PAO|CG| beta:   0.21719684028375166     
 PAO| norm of gradient:   5.1238653058818230E-002
 PAO| energy improvement:  -2.1544723119282239E-003
 PAO| step     15                   -7.806745459  0.320E-02  0.371E+00     0.037
 PAO|LS| adapt:  T F F
 PAO|LS| adapt: scan_steps:    0.0000000000000000        0.0000000000000000        0.0000000000000000     
 PAO|LS| adapt: energies:   -7.8067454593205303        0.0000000000000000        0.0000000000000000     
 PAO| ======================= Iteration:        16 =============================

     Lanczos converged:  T threshold:   0.100E-02
     Est. extremal eigenvalues:    0.276E+01   0.178E+00
     Est. condition number :    0.155E+02

 Order=           3
     NS sqrt iter    1 1.00000000   0.704E+00       0.001       64.512
     NS sqrt iter    2 1.00000000   0.328E+00       0.001      110.592
     NS sqrt iter    3 1.00000000   0.753E-01       0.001      110.592
     NS sqrt iter    4 1.00000000   0.191E-02       0.001      110.592
     NS sqrt iter    5 1.00000000   0.663E-07       0.001       74.112
     Symmetrizing Results
     Final NS sqrt iter    5 1.00000000   0.560E-09

     Est. extremal eigenvalues     -0.93748     1.73575  converged:  T
     TRS4 it   1 1.00000000   0.887E+00       0.000       16.128   0.100E-07
     TRS4 it   2 1.00000000   0.629E+00       0.000       32.256   0.100E-07
     TRS4 it   3 1.00000000   0.429E+00       0.000       32.256   0.100E-07
     TRS4 it   4 1.00000000   0.220E+00       0.000       32.256   0.100E-07
     TRS4 it   5 1.00000000   0.718E-01       0.000       32.256   0.100E-07
     TRS4 it   6 1.00000000   0.961E-02       0.000       32.256   0.100E-07
     TRS4 it   7 1.00000000   0.227E-03       0.000       32.256   0.100E-07
     TRS4 it   8 1.00000000   0.174E-06       0.000       32.256   0.100E-07
     TRS4 it   9 1.00000000   0.126E-12       0.000       32.256   0.100E-07
     Final TRS4 iteration    9 1.00000000   0.126E-12
     Chemical potential (mu):       0.01249
 
 PAO| energy:  -7.8068706545315525      penalty:   1.5020846997184976E-005
 PAO|LS| adapt:  T T F
 PAO|LS| adapt: scan_steps:    0.0000000000000000       0.37072431926738797        0.0000000000000000     
 PAO|LS| adapt: energies:   -7.8067454593205303       -7.8068706545315525        0.0000000000000000     
 PAO| ======================= Iteration:        17 =============================

     Lanczos converged:  T threshold:   0.100E-02
     Est. extremal eigenvalues:    0.275E+01   0.179E+00
     Est. condition number :    0.154E+02

 Order=           3
     NS sqrt iter    1 1.00000000   0.702E+00       0.001       64.512
     NS sqrt iter    2 1.00000000   0.327E+00       0.001      110.592
     NS sqrt iter    3 1.00000000   0.746E-01       0.001      110.592
     NS sqrt iter    4 1.00000000   0.186E-02       0.001      110.592
     NS sqrt iter    5 1.00000000   0.605E-07       0.001       73.472
     Symmetrizing Results
     Final NS sqrt iter    5 1.00000000   0.561E-09

     Est. extremal eigenvalues     -0.93739     1.73441  converged:  T
     TRS4 it   1 1.00000000   0.887E+00       0.000       16.128   0.100E-07
     TRS4 it   2 1.00000000   0.628E+00       0.000       32.256   0.100E-07
     TRS4 it   3 1.00000000   0.428E+00       0.000       32.256   0.100E-07
     TRS4 it   4 1.00000000   0.218E+00       0.000       32.256   0.100E-07
     TRS4 it   5 1.00000000   0.706E-01       0.000       32.256   0.100E-07
     TRS4 it   6 1.00000000   0.930E-02       0.000       32.256   0.100E-07
     TRS4 it   7 1.00000000   0.213E-03       0.000       32.256   0.100E-07
     TRS4 it   8 1.00000000   0.155E-06       0.000       32.256   0.100E-07
     TRS4 it   9 1.00000000   0.102E-12       0.000       32.256   0.100E-07
     Final TRS4 iteration    9 1.00000000   0.102E-12
     Chemical potential (mu):       0.01331
 
 PAO| energy:  -7.8052995882339520      penalty:   1.4928487364562603E-005
 PAO|LS| adapt:  T T T
 PAO|LS| adapt: scan_steps:    0.0000000000000000       0.37072431926738797       0.74144863853477594     
 PAO|LS| adapt: energies:   -7.8067454593205303       -7.8068706545315525       -7.8052995882339520     
 PAO|LS| adapt: suggested step_size:   0.21272404289626701     
 PAO|LS| adapt: predicted energy  -7.8070247097279637     
 PAO| ======================= Iteration:        18 =============================

     Lanczos converged:  T threshold:   0.100E-02
     Est. extremal eigenvalues:    0.277E+01   0.178E+00
     Est. condition number :    0.155E+02

 Order=           3
     NS sqrt iter    1 1.00000000   0.705E+00       0.001       64.512
     NS sqrt iter    2 1.00000000   0.329E+00       0.001      110.592
     NS sqrt iter    3 1.00000000   0.756E-01       0.001      110.592
     NS sqrt iter    4 1.00000000   0.194E-02       0.001      110.592
     NS sqrt iter    5 1.00000000   0.690E-07       0.001       74.368
     Symmetrizing Results
     Final NS sqrt iter    5 1.00000000   0.564E-09

     Est. extremal eigenvalues     -0.93749     1.73634  converged:  T
     TRS4 it   1 1.00000000   0.887E+00       0.000       16.128   0.100E-07
     TRS4 it   2 1.00000000   0.629E+00       0.000       32.256   0.100E-07
     TRS4 it   3 1.00000000   0.430E+00       0.000       32.256   0.100E-07
     TRS4 it   4 1.00000000   0.221E+00       0.000       32.256   0.100E-07
     TRS4 it   5 1.00000000   0.723E-01       0.000       32.256   0.100E-07
     TRS4 it   6 1.00000000   0.975E-02       0.000       32.256   0.100E-07
     TRS4 it   7 1.00000000   0.233E-03       0.000       32.256   0.100E-07
     TRS4 it   8 1.00000000   0.182E-06       0.000       32.256   0.100E-07
     TRS4 it   9 1.00000000   0.139E-12       0.000       32.256   0.100E-07
     Final TRS4 iteration    9 1.00000000   0.139E-12
     Chemical potential (mu):       0.01213
 
 PAO| energy:  -7.8070242563243033      penalty:   1.5098931422577853E-005
 PAO|CG| trace_G_new    7.2570586188264511E-004
 PAO|CG| trace_G_prev    2.6253995672819428E-003
 PAO|CG| trace_G_mix    1.4058724140053880E-006
 PAO|CG| trace_D    3.3933272858190497E-003
 PAO|CG| trace_D_Gnew  -1.7222810007376134E-006
 PAO|CG| beta:   0.27588181185635763     
 PAO| norm of gradient:   2.6938928372944704E-002
 PAO| energy improvement:  -2.7879700377297922E-004
 PAO| step     18                   -7.807024256  0.168E-02  0.213E+00     0.037
 PAO|LS| adapt:  T F F
 PAO|LS| adapt: scan_steps:    0.0000000000000000        0.0000000000000000        0.0000000000000000     
 PAO|LS| adapt: energies:   -7.8070242563243033        0.0000000000000000        0.0000000000000000     
 PAO| ======================= Iteration:        19 =============================

     Lanczos converged:  T threshold:   0.100E-02
     Est. extremal eigenvalues:    0.277E+01   0.178E+00
     Est. condition number :    0.156E+02

 Order=           3
     NS sqrt iter    1 1.00000000   0.705E+00       0.001       64.512
     NS sqrt iter    2 1.00000000   0.329E+00       0.001      110.592
     NS sqrt iter    3 1.00000000   0.758E-01       0.001      110.592
     NS sqrt iter    4 1.00000000   0.195E-02       0.001      110.592
     NS sqrt iter    5 1.00000000   0.697E-07       0.001       74.368
     Symmetrizing Results
     Final NS sqrt iter    5 1.00000000   0.576E-09

     Est. extremal eigenvalues     -0.93749     1.73643  converged:  T
     TRS4 it   1 1.00000000   0.887E+00       0.000       16.128   0.100E-07
     TRS4 it   2 1.00000000   0.629E+00       0.000       32.256   0.100E-07
     TRS4 it   3 1.00000000   0.429E+00       0.000       32.256   0.100E-07
     TRS4 it   4 1.00000000   0.221E+00       0.000       32.256   0.100E-07
     TRS4 it   5 1.00000000   0.722E-01       0.000       32.256   0.100E-07
     TRS4 it   6 1.00000000   0.974E-02       0.000       32.256   0.100E-07
     TRS4 it   7 1.00000000   0.233E-03       0.000       32.256   0.100E-07
     TRS4 it   8 1.00000000   0.185E-06       0.000       32.256   0.100E-07
     TRS4 it   9 1.00000000   0.144E-12       0.000       32.256   0.100E-07
     Final TRS4 iteration    9 1.00000000   0.144E-12
     Chemical potential (mu):       0.01185
 
 PAO| energy:  -7.8071421162627752      penalty:   1.4809856560535608E-005
 PAO|LS| adapt:  T T F
 PAO|LS| adapt: scan_steps:    0.0000000000000000       0.21272404289626701        0.0000000000000000     
 PAO|LS| adapt: energies:   -7.8070242563243033       -7.8071421162627752        0.0000000000000000     
 PAO| ======================= Iteration:        20 =============================

     Lanczos converged:  T threshold:   0.100E-02
     Est. extremal eigenvalues:    0.277E+01   0.178E+00
     Est. condition number :    0.156E+02

 Order=           3
     NS sqrt iter    1 1.00000000   0.705E+00       0.001       64.512
     NS sqrt iter    2 1.00000000   0.329E+00       0.001      110.592
     NS sqrt iter    3 1.00000000   0.760E-01       0.001      110.592
     NS sqrt iter    4 1.00000000   0.196E-02       0.001      110.592
     NS sqrt iter    5 1.00000000   0.705E-07       0.001       74.368
     Symmetrizing Results
     Final NS sqrt iter    5 1.00000000   0.589E-09

     Est. extremal eigenvalues     -0.93748     1.73652  converged:  T
     TRS4 it   1 1.00000000   0.887E+00       0.000       16.128   0.100E-07
     TRS4 it   2 1.00000000   0.629E+00       0.000       32.256   0.100E-07
     TRS4 it   3 1.00000000   0.429E+00       0.000       32.256   0.100E-07
     TRS4 it   4 1.00000000   0.220E+00       0.000       32.256   0.100E-07
     TRS4 it   5 1.00000000   0.721E-01       0.000       32.256   0.100E-07
     TRS4 it   6 1.00000000   0.972E-02       0.000       32.256   0.100E-07
     TRS4 it   7 1.00000000   0.234E-03       0.000       32.256   0.100E-07
     TRS4 it   8 1.00000000   0.187E-06       0.000       32.256   0.100E-07
     TRS4 it   9 1.00000000   0.149E-12       0.000       32.256   0.100E-07
     Final TRS4 iteration    9 1.00000000   0.149E-12
     Chemical potential (mu):       0.01156
 
 PAO| energy:  -7.8071863532224111      penalty:   1.4533220733031272E-005
 PAO|LS| adapt:  T T F
 PAO|LS| adapt: scan_steps:    0.0000000000000000       0.42544808579253401        0.0000000000000000     
 PAO|LS| adapt: energies:   -7.8070242563243033       -7.8071863532224111        0.0000000000000000     
 PAO| ======================= Iteration:        21 =============================

     Lanczos converged:  T threshold:   0.100E-02
     Est. extremal eigenvalues:    0.277E+01   0.177E+00
     Est. condition number :    0.156E+02

 Order=           3
     NS sqrt iter    1 1.00000000   0.705E+00       0.001       64.512
     NS sqrt iter    2 1.00000000   0.330E+00       0.001      110.592
     NS sqrt iter    3 1.00000000   0.765E-01       0.001      110.592
     NS sqrt iter    4 1.00000000   0.198E-02       0.001      110.592
     NS sqrt iter    5 1.00000000   0.723E-07       0.001       74.624
     Symmetrizing Results
     Final NS sqrt iter    5 1.00000000   0.602E-09

     Est. extremal eigenvalues     -0.93748     1.73670  converged:  T
     TRS4 it   1 1.00000000   0.887E+00       0.000       16.128   0.100E-07
     TRS4 it   2 1.00000000   0.629E+00       0.000       32.256   0.100E-07
     TRS4 it   3 1.00000000   0.429E+00       0.000       32.256   0.100E-07
     TRS4 it   4 1.00000000   0.220E+00       0.000       32.256   0.100E-07
     TRS4 it   5 1.00000000   0.719E-01       0.000       32.256   0.100E-07
     TRS4 it   6 1.00000000   0.970E-02       0.000       32.256   0.100E-07
     TRS4 it   7 1.00000000   0.235E-03       0.000       32.256   0.100E-07
     TRS4 it   8 1.00000000   0.193E-06       0.000       32.256   0.100E-07
     TRS4 it   9 1.00000000   0.158E-12       0.000       32.256   0.100E-07
     Final TRS4 iteration    9 1.00000000   0.158E-12
     Chemical potential (mu):       0.01098
 
 PAO| energy:  -7.8070516100549590      penalty:   1.4016684469108659E-005
 PAO|LS| Need extra step
 PAO|LS| adapt:  T T T
 PAO|LS| adapt: scan_steps:    0.0000000000000000       0.42544808579253401       0.85089617158506803     
 PAO|LS| adapt: energies:   -7.8070242563243033       -7.8071863532224111       -7.8070516100549590     
 PAO|LS| adapt: suggested step_size:   0.44505054802212524     
 PAO|LS| adapt: predicted energy  -7.8071866683022586     
 PAO| ======================= Iteration:        22 =============================

     Lanczos converged:  T threshold:   0.100E-02
     Est. extremal eigenvalues:    0.277E+01   0.178E+00
     Est. condition number :    0.156E+02

 Order=           3
     NS sqrt iter    1 1.00000000   0.705E+00       0.001       64.512
     NS sqrt iter    2 1.00000000   0.329E+00       0.001      110.592
     NS sqrt iter    3 1.00000000   0.761E-01       0.001      110.592
     NS sqrt iter    4 1.00000000   0.196E-02       0.001      110.592
     NS sqrt iter    5 1.00000000   0.706E-07       0.001       74.496
     Symmetrizing Results
     Final NS sqrt iter    5 1.00000000   0.577E-09

     Est. extremal eigenvalues     -0.93748     1.73653  converged:  T
     TRS4 it   1 1.00000000   0.887E+00       0.000       16.128   0.100E-07
     TRS4 it   2 1.00000000   0.629E+00       0.000       32.256   0.100E-07
     TRS4 it   3 1.00000000   0.429E+00       0.000       32.256   0.100E-07
     TRS4 it   4 1.00000000   0.220E+00       0.000       32.256   0.100E-07
     TRS4 it   5 1.00000000   0.721E-01       0.000       32.256   0.100E-07
     TRS4 it   6 1.00000000   0.972E-02       0.000       32.256   0.100E-07
     TRS4 it   7 1.00000000   0.234E-03       0.000       32.256   0.100E-07
     TRS4 it   8 1.00000000   0.188E-06       0.000       32.256   0.100E-07
     TRS4 it   9 1.00000000   0.149E-12       0.000       32.256   0.100E-07
     Final TRS4 iteration    9 1.00000000   0.149E-12
     Chemical potential (mu):       0.01154
 
 PAO| energy:  -7.8071867043033603      penalty:   1.4508348529754754E-005
 PAO|CG| trace_G_new    2.2199563341704503E-004
 PAO|CG| trace_G_prev    7.2570586188264511E-004
 PAO|CG| trace_G_mix    2.9415808962685925E-006
 PAO|CG| trace_D    9.8492492043161448E-004
 PAO|CG| trace_D_Gnew  -1.8290175062195259E-006
 PAO|CG| beta:   0.30184963912583079     
 PAO| norm of gradient:   1.4899517892101241E-002
 PAO| energy improvement:  -1.6244797905695663E-004
 PAO| step     22                   -7.807186704  0.931E-03  0.445E+00     0.048
 PAO|LS| adapt:  T F F
 PAO|LS| adapt: scan_steps:    0.0000000000000000        0.0000000000000000        0.0000000000000000     
 PAO|LS| adapt: energies:   -7.8071867043033603        0.0000000000000000        0.0000000000000000     
 PAO| ======================= Iteration:        23 =============================

     Lanczos converged:  T threshold:   0.100E-02
     Est. extremal eigenvalues:    0.277E+01   0.178E+00
     Est. condition number :    0.156E+02

 Order=           3
     NS sqrt iter    1 1.00000000   0.705E+00       0.001       64.512
     NS sqrt iter    2 1.00000000   0.330E+00       0.001      110.592
     NS sqrt iter    3 1.00000000   0.761E-01       0.001      110.592
     NS sqrt iter    4 1.00000000   0.196E-02       0.001      110.592
     NS sqrt iter    5 1.00000000   0.705E-07       0.001       74.368
     Symmetrizing Results
     Final NS sqrt iter    5 1.00000000   0.595E-09

     Est. extremal eigenvalues     -0.93748     1.73612  converged:  T
     TRS4 it   1 1.00000000   0.887E+00       0.000       16.128   0.100E-07
     TRS4 it   2 1.00000000   0.629E+00       0.000       32.256   0.100E-07
     TRS4 it   3 1.00000000   0.429E+00       0.000       32.256   0.100E-07
     TRS4 it   4 1.00000000   0.220E+00       0.000       32.256   0.100E-07
     TRS4 it   5 1.00000000   0.722E-01       0.000       32.256   0.100E-07
     TRS4 it   6 1.00000000   0.976E-02       0.000       32.256   0.100E-07
     TRS4 it   7 1.00000000   0.236E-03       0.000       32.256   0.100E-07
     TRS4 it   8 1.00000000   0.192E-06       0.000       32.256   0.100E-07
     TRS4 it   9 1.00000000   0.157E-12       0.000       32.256   0.100E-07
     Final TRS4 iteration    9 1.00000000   0.157E-12
     Chemical potential (mu):       0.01120
 
 PAO| energy:  -7.8072361135311450      penalty:   1.3825919135814136E-005
 PAO|LS| adapt:  T T F
 PAO|LS| adapt: scan_steps:    0.0000000000000000       0.44505054802212524        0.0000000000000000     
 PAO|LS| adapt: energies:   -7.8071867043033603       -7.8072361135311450        0.0000000000000000     
 PAO| ======================= Iteration:        24 =============================

     Lanczos converged:  T threshold:   0.100E-02
     Est. extremal eigenvalues:    0.277E+01   0.178E+00
     Est. condition number :    0.156E+02

 Order=           3
     NS sqrt iter    1 1.00000000   0.705E+00       0.001       64.512
     NS sqrt iter    2 1.00000000   0.330E+00       0.001      110.592
     NS sqrt iter    3 1.00000000   0.762E-01       0.001      110.592
     NS sqrt iter    4 1.00000000   0.196E-02       0.001      110.592
     NS sqrt iter    5 1.00000000   0.705E-07       0.001       74.240
     Symmetrizing Results
     Final NS sqrt iter    5 1.00000000   0.604E-09

     Est. extremal eigenvalues     -0.93748     1.73571  converged:  T
     TRS4 it   1 1.00000000   0.887E+00       0.000       16.128   0.100E-07
     TRS4 it   2 1.00000000   0.629E+00       0.000       32.256   0.100E-07
     TRS4 it   3 1.00000000   0.429E+00       0.000       32.256   0.100E-07
     TRS4 it   4 1.00000000   0.220E+00       0.000       32.256   0.100E-07
     TRS4 it   5 1.00000000   0.723E-01       0.000       32.256   0.100E-07
     TRS4 it   6 1.00000000   0.980E-02       0.000       32.256   0.100E-07
     TRS4 it   7 1.00000000   0.239E-03       0.000       32.256   0.100E-07
     TRS4 it   8 1.00000000   0.197E-06       0.000       32.256   0.100E-07
     TRS4 it   9 1.00000000   0.164E-12       0.000       32.256   0.100E-07
     Final TRS4 iteration    9 1.00000000   0.164E-12
     Chemical potential (mu):       0.01086
 
 PAO| energy:  -7.8071856255737790      penalty:   1.3171922983417151E-005
 PAO|LS| adapt:  T T T
 PAO|LS| adapt: scan_steps:    0.0000000000000000       0.44505054802212524       0.89010109604425047     
 PAO|LS| adapt: energies:   -7.8071867043033603       -7.8072361135311450       -7.8071856255737790     
 PAO|LS| adapt: suggested step_size:   0.44264763151069447     
 PAO|LS| adapt: predicted energy  -7.8072361149872140     
 PAO| ======================= Iteration:        25 =============================

     Lanczos converged:  T threshold:   0.100E-02
     Est. extremal eigenvalues:    0.277E+01   0.178E+00
     Est. condition number :    0.156E+02

 Order=           3
     NS sqrt iter    1 1.00000000   0.705E+00       0.001       64.512
     NS sqrt iter    2 1.00000000   0.330E+00       0.001      110.592
     NS sqrt iter    3 1.00000000   0.761E-01       0.001      110.592
     NS sqrt iter    4 1.00000000   0.196E-02       0.001      110.592
     NS sqrt iter    5 1.00000000   0.705E-07       0.001       74.368
     Symmetrizing Results
     Final NS sqrt iter    5 1.00000000   0.595E-09

     Est. extremal eigenvalues     -0.93748     1.73612  converged:  T
     TRS4 it   1 1.00000000   0.887E+00       0.000       16.128   0.100E-07
     TRS4 it   2 1.00000000   0.629E+00       0.000       32.256   0.100E-07
     TRS4 it   3 1.00000000   0.429E+00       0.000       32.256   0.100E-07
     TRS4 it   4 1.00000000   0.220E+00       0.000       32.256   0.100E-07
     TRS4 it   5 1.00000000   0.722E-01       0.000       32.256   0.100E-07
     TRS4 it   6 1.00000000   0.976E-02       0.000       32.256   0.100E-07
     TRS4 it   7 1.00000000   0.236E-03       0.000       32.256   0.100E-07
     TRS4 it   8 1.00000000   0.192E-06       0.000       32.256   0.100E-07
     TRS4 it   9 1.00000000   0.156E-12       0.000       32.256   0.100E-07
     Final TRS4 iteration    9 1.00000000   0.156E-12
     Chemical potential (mu):       0.01120
 
 PAO| energy:  -7.8072361141425821      penalty:   1.3829526807700013E-005
 PAO|CG| trace_G_new    7.9429741305868634E-005
 PAO|CG| trace_G_prev    2.2199563341704503E-004
 PAO|CG| trace_G_mix    6.9165194991496134E-007
 PAO|CG| trace_D    3.1283947579616904E-004
 PAO|CG| trace_D_Gnew  -3.5153161467117922E-007
 PAO|CG| beta:   0.35468305454474802     
 PAO| norm of gradient:   8.9123364672721271E-003
 PAO| energy improvement:  -4.9409839221858931E-005
 PAO| step     25                   -7.807236114  0.557E-03  0.443E+00     0.036
 PAO|LS| adapt:  T F F
 PAO|LS| adapt: scan_steps:    0.0000000000000000        0.0000000000000000        0.0000000000000000     
 PAO|LS| adapt: energies:   -7.8072361141425821        0.0000000000000000        0.0000000000000000     
 PAO| ======================= Iteration:        26 =============================

     Lanczos converged:  T threshold:   0.100E-02
     Est. extremal eigenvalues:    0.277E+01   0.178E+00
     Est. condition number :    0.156E+02

 Order=           3
     NS sqrt iter    1 1.00000000   0.705E+00       0.001       64.512
     NS sqrt iter    2 1.00000000   0.329E+00       0.001      110.592
     NS sqrt iter    3 1.00000000   0.760E-01       0.001      110.592
     NS sqrt iter    4 1.00000000   0.195E-02       0.001      110.592
     NS sqrt iter    5 1.00000000   0.696E-07       0.001       74.240
     Symmetrizing Results
     Final NS sqrt iter    5 1.00000000   0.593E-09

     Est. extremal eigenvalues     -0.93749     1.73547  converged:  T
     TRS4 it   1 1.00000000   0.887E+00       0.000       16.128   0.100E-07
     TRS4 it   2 1.00000000   0.629E+00       0.000       32.256   0.100E-07
     TRS4 it   3 1.00000000   0.429E+00       0.000       32.256   0.100E-07
     TRS4 it   4 1.00000000   0.220E+00       0.000       32.256   0.100E-07
     TRS4 it   5 1.00000000   0.721E-01       0.000       32.256   0.100E-07
     TRS4 it   6 1.00000000   0.974E-02       0.000       32.256   0.100E-07
     TRS4 it   7 1.00000000   0.235E-03       0.000       32.256   0.100E-07
     TRS4 it   8 1.00000000   0.190E-06       0.000       32.256   0.100E-07
     TRS4 it   9 1.00000000   0.152E-12       0.000       32.256   0.100E-07
     Final TRS4 iteration    9 1.00000000   0.152E-12
     Chemical potential (mu):       0.01130
 
 PAO| energy:  -7.8072400009621745      penalty:   1.3106575506121728E-005
 PAO|LS| adapt:  T T F
 PAO|LS| adapt: scan_steps:    0.0000000000000000       0.44264763151069447        0.0000000000000000     
 PAO|LS| adapt: energies:   -7.8072361141425821       -7.8072400009621745        0.0000000000000000     
 PAO| ======================= Iteration:        27 =============================

     Lanczos converged:  T threshold:   0.100E-02
     Est. extremal eigenvalues:    0.277E+01   0.178E+00
     Est. condition number :    0.155E+02

 Order=           3
     NS sqrt iter    1 1.00000000   0.704E+00       0.001       64.512
     NS sqrt iter    2 1.00000000   0.329E+00       0.001      110.592
     NS sqrt iter    3 1.00000000   0.759E-01       0.001      110.592
     NS sqrt iter    4 1.00000000   0.195E-02       0.001      110.592
     NS sqrt iter    5 1.00000000   0.687E-07       0.001       74.240
     Symmetrizing Results
     Final NS sqrt iter    5 1.00000000   0.588E-09

     Est. extremal eigenvalues     -0.93749     1.73481  converged:  T
     TRS4 it   1 1.00000000   0.887E+00       0.000       16.128   0.100E-07
     TRS4 it   2 1.00000000   0.628E+00       0.000       32.256   0.100E-07
     TRS4 it   3 1.00000000   0.429E+00       0.000       32.256   0.100E-07
     TRS4 it   4 1.00000000   0.220E+00       0.000       32.256   0.100E-07
     TRS4 it   5 1.00000000   0.720E-01       0.000       32.256   0.100E-07
     TRS4 it   6 1.00000000   0.971E-02       0.000       32.256   0.100E-07
     TRS4 it   7 1.00000000   0.234E-03       0.000       32.256   0.100E-07
     TRS4 it   8 1.00000000   0.187E-06       0.000       32.256   0.100E-07
     TRS4 it   9 1.00000000   0.148E-12       0.000       32.256   0.100E-07
     Final TRS4 iteration    9 1.00000000   0.148E-12
     Chemical potential (mu):       0.01140
 
 PAO| energy:  -7.8071811288505577      penalty:   1.2407322900722658E-005
 PAO|LS| adapt:  T T T
 PAO|LS| adapt: scan_steps:    0.0000000000000000       0.44264763151069447       0.88529526302138895     
 PAO|LS| adapt: energies:   -7.8072361141425821       -7.8072400009621745       -7.8071811288505577     
 PAO|LS| adapt: suggested step_size:   0.24873810490171222     
 PAO|LS| adapt: predicted energy  -7.8072460227790712     
 PAO| ======================= Iteration:        28 =============================

     Lanczos converged:  T threshold:   0.100E-02
     Est. extremal eigenvalues:    0.277E+01   0.178E+00
     Est. condition number :    0.156E+02

 Order=           3
     NS sqrt iter    1 1.00000000   0.705E+00       0.001       64.512
     NS sqrt iter    2 1.00000000   0.329E+00       0.001      110.592
     NS sqrt iter    3 1.00000000   0.760E-01       0.001      110.592
     NS sqrt iter    4 1.00000000   0.196E-02       0.001      110.592
     NS sqrt iter    5 1.00000000   0.700E-07       0.001       74.240
     Symmetrizing Results
     Final NS sqrt iter    5 1.00000000   0.596E-09

     Est. extremal eigenvalues     -0.93749     1.73576  converged:  T
     TRS4 it   1 1.00000000   0.887E+00       0.000       16.128   0.100E-07
     TRS4 it   2 1.00000000   0.629E+00       0.000       32.256   0.100E-07
     TRS4 it   3 1.00000000   0.429E+00       0.000       32.256   0.100E-07
     TRS4 it   4 1.00000000   0.220E+00       0.000       32.256   0.100E-07
     TRS4 it   5 1.00000000   0.721E-01       0.000       32.256   0.100E-07
     TRS4 it   6 1.00000000   0.975E-02       0.000       32.256   0.100E-07
     TRS4 it   7 1.00000000   0.236E-03       0.000       32.256   0.100E-07
     TRS4 it   8 1.00000000   0.191E-06       0.000       32.256   0.100E-07
     TRS4 it   9 1.00000000   0.154E-12       0.000       32.256   0.100E-07
     Final TRS4 iteration    9 1.00000000   0.154E-12
     Chemical potential (mu):       0.01126
 
 PAO| energy:  -7.8072460136453774      penalty:   1.3420340943934018E-005
 PAO|CG| trace_G_new    3.1521210326927714E-005
 PAO|CG| trace_G_prev    7.9429741305868634E-005
 PAO|CG| trace_G_mix    4.7961526952025001E-008
 PAO|CG| trace_D    1.1903433361735603E-004
 PAO|CG| trace_D_Gnew  -2.4838393294447284E-008
 PAO|CG| beta:   0.39624010203908722     
 PAO| norm of gradient:   5.6143753282914492E-003
 PAO| energy improvement:  -9.8995027952852865E-006
 PAO| step     28                   -7.807246014  0.351E-03  0.249E+00     0.037
 PAO|LS| adapt:  T F F
 PAO|LS| adapt: scan_steps:    0.0000000000000000        0.0000000000000000        0.0000000000000000     
 PAO|LS| adapt: energies:   -7.8072460136453774        0.0000000000000000        0.0000000000000000     
 PAO| ======================= Iteration:        29 =============================

     Lanczos converged:  T threshold:   0.100E-02
     Est. extremal eigenvalues:    0.277E+01   0.178E+00
     Est. condition number :    0.156E+02

 Order=           3
     NS sqrt iter    1 1.00000000   0.705E+00       0.001       64.512
     NS sqrt iter    2 1.00000000   0.329E+00       0.001      110.592
     NS sqrt iter    3 1.00000000   0.760E-01       0.001      110.592
     NS sqrt iter    4 1.00000000   0.195E-02       0.001      110.592
     NS sqrt iter    5 1.00000000   0.696E-07       0.001       74.240
     Symmetrizing Results
     Final NS sqrt iter    5 1.00000000   0.593E-09

     Est. extremal eigenvalues     -0.93749     1.73552  converged:  T
     TRS4 it   1 1.00000000   0.887E+00       0.000       16.128   0.100E-07
     TRS4 it   2 1.00000000   0.629E+00       0.000       32.256   0.100E-07
     TRS4 it   3 1.00000000   0.429E+00       0.000       32.256   0.100E-07
     TRS4 it   4 1.00000000   0.220E+00       0.000       32.256   0.100E-07
     TRS4 it   5 1.00000000   0.720E-01       0.000       32.256   0.100E-07
     TRS4 it   6 1.00000000   0.972E-02       0.000       32.256   0.100E-07
     TRS4 it   7 1.00000000   0.234E-03       0.000       32.256   0.100E-07
     TRS4 it   8 1.00000000   0.188E-06       0.000       32.256   0.100E-07
     TRS4 it   9 1.00000000   0.151E-12       0.000       32.256   0.100E-07
     Final TRS4 iteration    9 1.00000000   0.151E-12
     Chemical potential (mu):       0.01137
 
 PAO| energy:  -7.8072529152844279      penalty:   1.2991471230752544E-005
 PAO|LS| adapt:  T T F
 PAO|LS| adapt: scan_steps:    0.0000000000000000       0.24873810490171222        0.0000000000000000     
 PAO|LS| adapt: energies:   -7.8072460136453774       -7.8072529152844279        0.0000000000000000     
 PAO| ======================= Iteration:        30 =============================

     Lanczos converged:  T threshold:   0.100E-02
     Est. extremal eigenvalues:    0.277E+01   0.178E+00
     Est. condition number :    0.155E+02

 Order=           3
     NS sqrt iter    1 1.00000000   0.704E+00       0.001       64.512
     NS sqrt iter    2 1.00000000   0.329E+00       0.001      110.592
     NS sqrt iter    3 1.00000000   0.759E-01       0.001      110.592
     NS sqrt iter    4 1.00000000   0.195E-02       0.001      110.592
     NS sqrt iter    5 1.00000000   0.692E-07       0.001       74.240
     Symmetrizing Results
     Final NS sqrt iter    5 1.00000000   0.590E-09

     Est. extremal eigenvalues     -0.93749     1.73528  converged:  T
     TRS4 it   1 1.00000000   0.887E+00       0.000       16.128   0.100E-07
     TRS4 it   2 1.00000000   0.629E+00       0.000       32.256   0.100E-07
     TRS4 it   3 1.00000000   0.429E+00       0.000       32.256   0.100E-07
     TRS4 it   4 1.00000000   0.220E+00       0.000       32.256   0.100E-07
     TRS4 it   5 1.00000000   0.719E-01       0.000       32.256   0.100E-07
     TRS4 it   6 1.00000000   0.970E-02       0.000       32.256   0.100E-07
     TRS4 it   7 1.00000000   0.233E-03       0.000       32.256   0.100E-07
     TRS4 it   8 1.00000000   0.186E-06       0.000       32.256   0.100E-07
     TRS4 it   9 1.00000000   0.146E-12       0.000       32.256   0.100E-07
     Final TRS4 iteration    9 1.00000000   0.146E-12
     Chemical potential (mu):       0.01150
 
 PAO| energy:  -7.8072579345246647      penalty:   1.2570357717106499E-005
 PAO|LS| adapt:  T T F
 PAO|LS| adapt: scan_steps:    0.0000000000000000       0.49747620980342444        0.0000000000000000     
 PAO|LS| adapt: energies:   -7.8072460136453774       -7.8072579345246647        0.0000000000000000     
 PAO| ======================= Iteration:        31 =============================

     Lanczos converged:  T threshold:   0.100E-02
     Est. extremal eigenvalues:    0.277E+01   0.178E+00
     Est. condition number :    0.155E+02

 Order=           3
     NS sqrt iter    1 1.00000000   0.704E+00       0.001       64.512
     NS sqrt iter    2 1.00000000   0.329E+00       0.001      110.592
     NS sqrt iter    3 1.00000000   0.758E-01       0.001      110.592
     NS sqrt iter    4 1.00000000   0.194E-02       0.001      110.592
     NS sqrt iter    5 1.00000000   0.685E-07       0.001       74.240
     Symmetrizing Results
     Final NS sqrt iter    5 1.00000000   0.584E-09

     Est. extremal eigenvalues     -0.93749     1.73480  converged:  T
     TRS4 it   1 1.00000000   0.887E+00       0.000       16.128   0.100E-07
     TRS4 it   2 1.00000000   0.628E+00       0.000       32.256   0.100E-07
     TRS4 it   3 1.00000000   0.429E+00       0.000       32.256   0.100E-07
     TRS4 it   4 1.00000000   0.220E+00       0.000       32.256   0.100E-07
     TRS4 it   5 1.00000000   0.717E-01       0.000       32.256   0.100E-07
     TRS4 it   6 1.00000000   0.965E-02       0.000       32.256   0.100E-07
     TRS4 it   7 1.00000000   0.230E-03       0.000       32.256   0.100E-07
     TRS4 it   8 1.00000000   0.181E-06       0.000       32.256   0.100E-07
     TRS4 it   9 1.00000000   0.138E-12       0.000       32.256   0.100E-07
     Final TRS4 iteration    9 1.00000000   0.138E-12
     Chemical potential (mu):       0.01174
 
 PAO| energy:  -7.8072623267248149      penalty:   1.1751244544120332E-005
 PAO|LS| Need extra step
 PAO|LS| adapt:  T T F
 PAO|LS| adapt: scan_steps:    0.0000000000000000       0.99495241960684888        0.0000000000000000     
 PAO|LS| adapt: energies:   -7.8072460136453774       -7.8072623267248149        0.0000000000000000     
 PAO| ======================= Iteration:        32 =============================

     Lanczos converged:  T threshold:   0.100E-02
     Est. extremal eigenvalues:    0.276E+01   0.178E+00
     Est. condition number :    0.155E+02

 Order=           3
[...]
     TRS4 it   1 1.00000000   0.880E+00       0.000       16.128   0.100E-07
     TRS4 it   2 1.00000000   0.633E+00       0.000       32.256   0.100E-07
     TRS4 it   3 1.00000000   0.454E+00       0.000       32.256   0.100E-07
     TRS4 it   4 1.00000000   0.277E+00       0.000       32.256   0.100E-07
     TRS4 it   5 1.00000000   0.137E+00       0.000       32.256   0.100E-07
     TRS4 it   6 1.00000000   0.426E-01       0.000       32.256   0.100E-07
     TRS4 it   7 1.00000000   0.577E-02       0.000       32.256   0.100E-07
     TRS4 it   8 1.00000000   0.141E-03       0.000       32.256   0.100E-07
     TRS4 it   9 1.00000000   0.893E-07       0.000       32.256   0.100E-07
     TRS4 it  10 1.00000000   0.359E-13       0.000       32.256   0.100E-07
     Final TRS4 iteration   10 1.00000000   0.359E-13
     Chemical potential (mu):      -0.07543
 
 PAO| energy:  -7.8063140430137787      penalty:   2.3134552209524963E-008
 PAO|CG| warming up with steepest descent
 PAO|CG| beta:    0.0000000000000000     
 PAO| norm of gradient:   1.2812015999570133E-004
 PAO| energy improvement:  -5.1131605616205889E-009
 PAO| step    430                   -7.806314043  0.801E-05  0.262E+00     0.054
 PAO| converged after          430  steps :-)
 PAO| Recalculating energy after mixing.

     Lanczos converged:  T threshold:   0.100E-02
     Est. extremal eigenvalues:    0.248E+01   0.191E+00
     Est. condition number :    0.130E+02

 Order=           3
     NS sqrt iter    1 1.00000000   0.630E+00       0.001       64.512
     NS sqrt iter    2 1.00000000   0.274E+00       0.001      110.592
     NS sqrt iter    3 1.00000000   0.482E-01       0.001      110.592
     NS sqrt iter    4 1.00000000   0.740E-03       0.001      110.592
     NS sqrt iter    5 1.00000000   0.532E-08       0.001       38.144
     Symmetrizing Results
     Final NS sqrt iter    5 1.00000000   0.316E-09

     Est. extremal eigenvalues     -0.93718     1.62870  converged:  T
     TRS4 it   1 1.00000000   0.880E+00       0.000       16.128   0.100E-07
     TRS4 it   2 1.00000000   0.633E+00       0.000       32.256   0.100E-07
     TRS4 it   3 1.00000000   0.454E+00       0.000       32.256   0.100E-07
     TRS4 it   4 1.00000000   0.277E+00       0.000       32.256   0.100E-07
     TRS4 it   5 1.00000000   0.137E+00       0.000       32.256   0.100E-07
     TRS4 it   6 1.00000000   0.426E-01       0.000       32.256   0.100E-07
     TRS4 it   7 1.00000000   0.577E-02       0.000       32.256   0.100E-07
     TRS4 it   8 1.00000000   0.141E-03       0.000       32.256   0.100E-07
     TRS4 it   9 1.00000000   0.893E-07       0.000       32.256   0.100E-07
     TRS4 it  10 1.00000000   0.361E-13       0.000       32.256   0.100E-07
     Final TRS4 iteration   10 1.00000000   0.361E-13
     Chemical potential (mu):      -0.07543
 
 PAO| energy:  -7.8063140417354715      penalty:   2.3379802998410061E-008
 PAO| Writing restart file.
     Est. extremal eigenvalues     -0.93718     1.62870  converged:  T
     TRS4 it   1 1.00000000   0.880E+00       0.000       16.128   0.100E-07
     TRS4 it   2 1.00000000   0.633E+00       0.000       32.256   0.100E-07
     TRS4 it   3 1.00000000   0.454E+00       0.000       32.256   0.100E-07
     TRS4 it   4 1.00000000   0.277E+00       0.000       32.256   0.100E-07
     TRS4 it   5 1.00000000   0.137E+00       0.000       32.256   0.100E-07
     TRS4 it   6 1.00000000   0.426E-01       0.000       32.256   0.100E-07
     TRS4 it   7 1.00000000   0.577E-02       0.000       32.256   0.100E-07
     TRS4 it   8 1.00000000   0.141E-03       0.000       32.256   0.100E-07
     TRS4 it   9 1.00000000   0.893E-07       0.000       32.256   0.100E-07
     TRS4 it  10 1.00000000   0.361E-13       0.000       32.256   0.100E-07
     Final TRS4 iteration   10 1.00000000   0.361E-13
     Chemical potential (mu):      -0.07543

 SCF     1       -34.450022862       -34.450022862    1.719534

*********************************************************
 Using MIXING_FRACTION=0.450 to mix KS matrix:  iscf=  2
 KS_nw=0.450*KS + 0.550*KS_old
*********************************************************
     Est. extremal eigenvalues     -0.93718     1.62870  converged:  T
     TRS4 it   1 1.00000000   0.880E+00       0.000       16.128   0.100E-07
     TRS4 it   2 1.00000000   0.633E+00       0.000       32.256   0.100E-07
     TRS4 it   3 1.00000000   0.454E+00       0.000       32.256   0.100E-07
     TRS4 it   4 1.00000000   0.277E+00       0.000       32.256   0.100E-07
     TRS4 it   5 1.00000000   0.137E+00       0.000       32.256   0.100E-07
     TRS4 it   6 1.00000000   0.426E-01       0.000       32.256   0.100E-07
     TRS4 it   7 1.00000000   0.577E-02       0.000       32.256   0.100E-07
     TRS4 it   8 1.00000000   0.141E-03       0.000       32.256   0.100E-07
     TRS4 it   9 1.00000000   0.893E-07       0.000       32.256   0.100E-07
     TRS4 it  10 1.00000000   0.358E-13       0.000       32.256   0.100E-07
     Final TRS4 iteration   10 1.00000000   0.358E-13
     Chemical potential (mu):      -0.07543

 SCF     2       -34.450022862        -0.000000000    1.439051


 SCF run converged in     2 steps.

 PAO| Storing density matrix for ASPC guess in slot:           1

 ENERGY| Total FORCE_EVAL ( QS ) energy [a.u.]:              -34.450022862155777

 -------------------------------------------------------------------------------
 -                                                                             -
 -                                DBCSR STATISTICS                             -
 -                                                                             -
 -------------------------------------------------------------------------------
 COUNTER                                    TOTAL       BLAS       SMM       ACC
 flops     5 x     5 x     4                20000       0.0%    100.0%      0.0%
 flops    13 x     5 x     4                20800       0.0%    100.0%      0.0%
 flops     5 x    13 x     4                20800       0.0%    100.0%      0.0%
 flops    13 x    13 x     4                40560       0.0%    100.0%      0.0%
 flops     4 x     4 x     5              3375360       0.0%    100.0%      0.0%
 flops     5 x     4 x     5              4118400       0.0%    100.0%      0.0%
 flops     4 x     4 x    13              4387968       0.0%    100.0%      0.0%
 flops    13 x     4 x     5              5353920       0.0%    100.0%      0.0%
 flops     5 x     4 x    13              5353920       0.0%    100.0%      0.0%
 flops     5 x     4 x     4              6550720       0.0%    100.0%      0.0%
 flops    13 x     4 x    13              6960096       0.0%    100.0%      0.0%
 flops    13 x     4 x     4              8696480       0.0%    100.0%      0.0%
 flops     4 x     4 x     4            435416704       0.0%    100.0%      0.0%
 flops inhomo. stacks                           0       0.0%      0.0%      0.0%
 flops total                       480.315728E+06       0.0%    100.0%      0.0%
 flops max/rank                    480.315728E+06       0.0%    100.0%      0.0%
 matmuls inhomo. stacks                         0       0.0%      0.0%      0.0%
 matmuls total                            3541726       0.0%    100.0%      0.0%
 number of processed stacks                 28245       0.0%    100.0%      0.0%
 average stack size                                     0.0     125.4       0.0
 marketing flops                   780.851136E+06
 -------------------------------------------------------------------------------
 # multiplications                          23586
 max memory usage/rank             506.257408E+06
 # max total images/rank                        1
 # max 3D layers                                1
 # MPI messages exchanged                       0
 -------------------------------------------------------------------------------

 -------------------------------------------------------------------------------
 -                                                                             -
 -                                DBM STATISTICS                               -
 -                                                                             -
 -------------------------------------------------------------------------------
    M  x    N  x    K                                          COUNT     PERCENT
 -------------------------------------------------------------------------------

 -------------------------------------------------------------------------------
 -                                                                             -
 -                                GRID STATISTICS                              -
 -                                                                             -
 -------------------------------------------------------------------------------
 LP    KERNEL             BACKEND                              COUNT     PERCENT
 2     collocate ortho    REF                                  38010      30.74%
 2     integrate ortho    REF                                  38010      30.74%
 3     collocate ortho    REF                                  19570      15.83%
 3     integrate ortho    REF                                  19570      15.83%
 4     collocate ortho    REF                                   4240       3.43%
 4     integrate ortho    REF                                   4240       3.43%
 0     collocate general  REF                                      6       0.00%
 -------------------------------------------------------------------------------

 MEMORY| Estimated peak process memory [MiB]                                 483

 -------------------------------------------------------------------------------
 -                                                                             -
 -                           R E F E R E N C E S                               -
 -                                                                             -
 -------------------------------------------------------------------------------
 
 CP2K version 2023.1 (Development Version), the CP2K developers group (2023).
 CP2K is freely available from https://www.cp2k.org/ .

 Kuehne,Thomas D.; Iannuzzi,Marcella; Del Ben,Mauro;
 Rybkin,Vladimir V.; Seewald,Patrick; Stein,Frederick; Laino,Teodoro;
 Khaliullin,Rustam Z.; Schuett,Ole; Schiffmann,Florian; Golze,Dorothea;
 Wilhelm,Jan; Chulkov,Sergey; Bani-Hashemian,Mohammad Hossein;
 Weber,Valery; Borstnik,Urban; Taillefumier,Mathieu;
 Jakobovits,Alice Shoshana; Lazzaro,Alfio; Pabst,Hans; Mueller,Tiziano;
 Schade,Robert; Guidon,Manuel; Andermatt,Samuel; Holmberg,Nico;
 Schenter,Gregory K.; Hehn,Anna; Bussy,Augustin; Belleflamme,Fabian;
 Tabacchi,Gloria; Gloess,Andreas; Lass,Michael; Bethune,Iain;
 Mundy,Christopher J.; Plessl,Christian; Watkins,Matt;
 VandeVondele,Joost; Krack,Matthias; Hutter,Juerg. 
 The Journal of Chemical Physics, 152 (19), (2020). 
 CP2K: An electronic structure and molecular dynamics software package -
 Quickstep: Efficient and accurate electronic structure calculations.
 https://doi.org/10.1063/5.0007045

 Schuett, O; VandeVondele, J. 
 Journal of Chemical Theory and Computation, 14, (2018). 
 Machine Learning Adaptive Basis Sets for Efficient Large Scale
 Density Functional Theory Simulation.
 https://doi.org/10.1021/acs.jctc.8b00378

 Schuett, Ole; Messmer, Peter; Hutter, Juerg; VandeVondele, Joost. 
 Electronic Structure Calculations on Graphics Processing Units, John
 Wiley & Sons, Ltd, 173-190 (2016). 
 GPU-Accelerated Sparse Matrix-Matrix Multiplication for
 Linear Scaling Density Functional Theory.
 https://doi.org/10.1002/9781118670712.ch8

 Heinecke, A; Henry, G; Hutchinson, M; Pabst, H. 
 Proceedings of Intl. Supercomputing Conference, 981-991 (2016). 
 LIBXSMM: Accelerating Small Matrix Multiplications
 by Runtime Code Generation.
 https://doi.org/10.1109/SC.2016.83

 Borstnik, U; VandeVondele, J; Weber, V; Hutter, J. 
 PARALLEL COMPUTING, 40 (5-6), 47-58 (2014). 
 Sparse matrix multiplication: The distributed block-compressed sparse
 row library.
 https://doi.org/10.1016/j.parco.2014.03.012

 Hutter, J; Iannuzzi, M; Schiffmann, F; VandeVondele, J. 
 WIREs Comput Mol Sci., 4 (1), 15-25 (2014). 
 CP2K: atomistic simulations of condensed matter systems.
 https://doi.org/10.1002/wcms.1159

 VandeVondele, J; Borstnik, U; Hutter, J. 
 JOURNAL OF CHEMICAL THEORY AND COMPUTATION, 8 (10), 3565-3573 (2012). 
 Linear Scaling Self-Consistent Field Calculations with Millions of Atoms
 in the Condensed Phase.
 https://doi.org/10.1021/ct200897x

 VandeVondele, J; Hutter, J. 
 JOURNAL OF CHEMICAL PHYSICS, 127 (11), 114105 (2007). 
 Gaussian basis sets for accurate calculations on molecular systems in
 gas and condensed phases.
 https://doi.org/10.1063/1.2770708

 Krack, M. 
 THEORETICAL CHEMISTRY ACCOUNTS, 114 (1-3), 145-152 (2005). 
 Pseudopotentials for H to Kr optimized for gradient-corrected
 exchange-correlation functionals.
 https://doi.org/10.1007/s00214-005-0655-y

 VandeVondele, J; Krack, M; Mohamed, F; Parrinello, M; Chassaing, T;
 Hutter, J. COMPUTER PHYSICS COMMUNICATIONS, 167 (2), 103-128 (2005). 
 QUICKSTEP: Fast and accurate density functional calculations using a
 mixed Gaussian and plane waves approach.
 https://doi.org/10.1016/j.cpc.2004.12.014

 Frigo, M; Johnson, SG. 
 PROCEEDINGS OF THE IEEE, 93 (2), 216-231 (2005). 
 The design and implementation of FFTW3.
 https://doi.org/10.1109/JPROC.2004.840301

 Niklasson, AMN; Tymczak, CJ; Challacombe, M. 
 JOURNAL OF CHEMICAL PHYSICS, 118 (19), 8611-8620 (2003). 
 Trace resetting density matrix purification in O(N)
 self-consistent-field theory.
 https://doi.org/10.1063/1.1559913

 Hartwigsen, C; Goedecker, S; Hutter, J. 
 PHYSICAL REVIEW B, 58 (7), 3641-3662 (1998). 
 Relativistic separable dual-space Gaussian pseudopotentials from H to Rn.
 https://doi.org/10.1103/PhysRevB.58.3641

 Lippert, G; Hutter, J; Parrinello, M. 
 MOLECULAR PHYSICS, 92 (3), 477-487 (1997). 
 A hybrid Gaussian and plane wave density functional scheme.
 https://doi.org/10.1080/002689797170220

 Perdew, JP; Burke, K; Ernzerhof, M. 
 PHYSICAL REVIEW LETTERS, 77 (18), 3865-3868 (1996). 
 Generalized gradient approximation made simple.
 https://doi.org/10.1103/PhysRevLett.77.3865

 Goedecker, S; Teter, M; Hutter, J. 
 PHYSICAL REVIEW B, 54 (3), 1703-1710 (1996). 
 Separable dual-space Gaussian pseudopotentials.
 https://doi.org/10.1103/PhysRevB.54.1703


 -------------------------------------------------------------------------------
 -                                                                             -
 -                                T I M I N G                                  -
 -                                                                             -
 -------------------------------------------------------------------------------
 SUBROUTINE                       CALLS  ASD         SELF TIME        TOTAL TIME
                                MAXIMUM       AVERAGE  MAXIMUM  AVERAGE  MAXIMUM
 CP2K                                 1  1.0    0.008    0.008   24.372   24.372
 qs_energies                          1  2.0    0.000    0.000   23.987   23.987
 ls_scf                               1  3.0    0.000    0.000   23.863   23.863
 ls_scf_main                          4  4.0    0.001    0.001   16.173   16.173
 ls_scf_dm_to_ks                      9  5.0    0.000    0.000   16.112   16.112
 qs_ks_update_qs_env                 10  6.0    0.000    0.000   14.444   14.444
 rebuild_ks_matrix                   10  7.0    0.000    0.000   14.444   14.444
 qs_ks_build_kohn_sham_matrix        10  8.0    0.002    0.002   14.444   14.444
 qs_vxc_create                       10  9.0    0.000    0.000    9.477    9.477
 xc_vxc_pw_create                    10 10.0    0.216    0.216    9.477    9.477
 pw_transfer                        191 11.1    0.020    0.020    7.695    7.695
 fft_wrap_pw1pw2                    171 12.3    0.003    0.003    7.433    7.433
 fft_wrap_pw1pw2_200                111 13.7    0.914    0.914    7.232    7.232
 xc_pw_derive                        60 12.0    0.001    0.001    5.784    5.784
 xc_rho_set_and_dset_create          10 11.0    0.258    0.258    5.385    5.385
 pao_update                           4  4.0    0.005    0.005    5.348    5.348
 pao_calc_energy                    433  5.0    0.002    0.002    4.846    4.846
 qs_rho_update_rho_low               10  6.0    0.000    0.000    3.974    3.974
 calculate_rho_elec                  10  7.0    0.037    0.037    3.974    3.974
 dbcsr_multiply_generic           23586  8.4    0.244    0.244    3.841    3.841
 xc_pw_divergence                    10 11.0    0.001    0.001    3.734    3.734
 sum_up_and_integrate                10  9.0    0.098    0.098    3.456    3.456
 integrate_v_rspace                  10 10.0    0.001    0.001    3.357    3.357
 fft3d_s                            172 14.2    2.779    2.779    2.792    2.792
 grid_integrate_task_list            10 11.0    2.600    2.600    2.600    2.600
 pao_dm_trs4                        433  6.0    0.001    0.001    2.540    2.540
 density_matrix_trs4                442  7.0    0.088    0.088    2.451    2.451
 pao_guess_initial_P                  1  4.0    0.000    0.000    2.310    2.310
 pao_read_preopt_dm                   1  5.0    0.000    0.000    2.310    2.310
 ls_scf_init_matrix_S               437  7.0    0.002    0.002    2.295    2.295
 grid_collocate_task_list            10  8.0    2.288    2.288    2.288    2.288
 pao_rebuild_S                      433  6.0    0.001    0.001    2.272    2.272
 matrix_sqrt_Newton_Schulz          437  8.0    0.051    0.051    2.070    2.070
 xc_functional_eval                  10 12.0    0.000    0.000    1.937    1.937
 pbe_lda_eval                        10 13.0    1.937    1.937    1.937    1.937
 pw_scatter_s                        90 14.7    1.884    1.884    1.884    1.884
 pw_gather_s                         81 13.8    1.814    1.814    1.814    1.814
 density_rs2pw                       10  8.0    0.001    0.001    1.648    1.648
 make_m2s                         47172  9.4    0.089    0.089    1.454    1.454
 multiply_cannon                  23586  9.4    0.581    0.581    1.427    1.427
 make_images                      47172 10.4    0.376    0.376    1.295    1.295
 pw_derive                           60 13.0    1.247    1.247    1.247    1.247
 pw_copy                            120 11.8    0.889    0.889    0.889    0.889
 potential_pw2rs                     10 11.0    0.001    0.001    0.756    0.756
 arnoldi_extremal                   879  8.5    0.002    0.002    0.754    0.754
 arnoldi_normal_ev                  879  9.5    0.006    0.006    0.752    0.752
 pw_poisson_solve                    10  9.0    0.118    0.118    0.627    0.627
 pw_axpy                             90 10.3    0.605    0.605    0.605    0.605
 build_subspace                     879 10.5    0.033    0.033    0.591    0.591
 dbcsr_matrix_vector_mult         21089 11.5    0.067    0.067    0.547    0.547
 pao_calc_AB                        570  5.8    0.000    0.000    0.498    0.498
 pao_calc_AB_equi                   570  6.8    0.014    0.014    0.498    0.498
 -------------------------------------------------------------------------------

 The number of warnings for this run is : 0
 
 -------------------------------------------------------------------------------
  **** **** ******  **  PROGRAM ENDED AT                 2023-02-01 10:45:44.199
 ***** ** ***  *** **   PROGRAM RAN ON                                    moritz
 **    ****   ******    PROGRAM RAN BY                                       ole
 ***** **    ** ** **   PROGRAM PROCESS ID                                148596
  **** **  *******  **  PROGRAM STOPPED IN /home/ole/git/pao_ml_equivar/2H2O_rot
                                           ations/phi_21
