 DBCSR| CPU Multiplication driver                                           BLAS
 DBCSR| Multrec recursion limit                                              512
 DBCSR| Multiplication stack size                                           1000
 DBCSR| Maximum elements for images                                    UNLIMITED
 DBCSR| Multiplicative factor virtual images                                   1
 DBCSR| Use multiplication densification                                       T
 DBCSR| Multiplication size stacks                                             3


  **** **** ******  **  PROGRAM STARTED AT               2019-03-28 17:32:53.049
 ***** ** ***  *** **   PROGRAM STARTED ON        oleschuett.zrh.corp.google.com
 **    ****   ******    PROGRAM STARTED BY                            oleschuett
 ***** **    ** ** **   PROGRAM PROCESS ID                                 32400
  **** **  *******  **  PROGRAM STARTED IN /usr/local/google/home/oleschuett/git
                                           /pao_ml_equivar/2H2O_rotations/phi_21

 CP2K| version string:                    CP2K version 7.0 (Development Version)
 CP2K| source code revision number:                                git:d9814d431
 CP2K| cp2kflags: libint fftw3 libxc libderiv_max_am1=5 libint_max_am=6         
 CP2K| is freely available from                            https://www.cp2k.org/
 CP2K| Program compiled at                          Mon Mar 25 16:50:07 CET 2019
 CP2K| Program compiled on                        oleschuett.zrh.corp.google.com
 CP2K| Program compiled for                                                local
 CP2K| Data directory path       /usr/local/google/home/oleschuett/git/cp2k/data
 CP2K| Input file name                                            2H2O_pao44.inp

 GLOBAL| Force Environment number                                              1
 GLOBAL| Basis set file name                                        BASIS_MOLOPT
 GLOBAL| Potential file name                                      GTH_POTENTIALS
 GLOBAL| MM Potential file name                                     MM_POTENTIAL
 GLOBAL| Coordinate file name                                         coords.xyz
 GLOBAL| Method name                                                        CP2K
 GLOBAL| Project name                                                 2H2O_pao44
 GLOBAL| Preferred FFT library                                             FFTW3
 GLOBAL| Preferred diagonalization lib.                                       SL
 GLOBAL| Run type                                                         ENERGY
 GLOBAL| All-to-all communication in single precision                          F
 GLOBAL| FFTs using library dependent lengths                                  F
 GLOBAL| Global print level                                                  LOW
 GLOBAL| MPI I/O enabled                                                       T
 GLOBAL| Total number of message passing processes                             1
 GLOBAL| Number of threads for this process                                    1
 GLOBAL| This output is from process                                           0
 GLOBAL| CPU model name :  Intel(R) Xeon(R) CPU E5-1650 v4 @ 3.60GHz

 MEMORY| system memory details [Kb]
 MEMORY|                        rank 0           min           max       average
 MEMORY| MemTotal             65953612      65953612      65953612      65953612
 MEMORY| MemFree               4233456       4233456       4233456       4233456
 MEMORY| Buffers               2545912       2545912       2545912       2545912
 MEMORY| Cached               25381788      25381788      25381788      25381788
 MEMORY| Slab                  3623548       3623548       3623548       3623548
 MEMORY| SReclaimable          2422248       2422248       2422248       2422248
 MEMORY| MemLikelyFree        34583404      34583404      34583404      34583404


 GENERATE|  Preliminary Number of Bonds generated:                             0
 GENERATE|  Achieved consistency in connectivity generation.

 *******************************************************************************
 *******************************************************************************
 **                                                                           **
 **     #####                         ##              ##                      **
 **    ##   ##            ##          ##              ##                      **
 **   ##     ##                       ##            ######                    **
 **   ##     ##  ##   ##  ##   #####  ##  ##   ####   ##    #####    #####    **
 **   ##     ##  ##   ##  ##  ##      ## ##   ##      ##   ##   ##  ##   ##   **
 **   ##  ## ##  ##   ##  ##  ##      ####     ###    ##   ######   ######    **
 **    ##  ###   ##   ##  ##  ##      ## ##      ##   ##   ##       ##        **
 **     #######   #####   ##   #####  ##  ##  ####    ##    #####   ##        **
 **           ##                                                    ##        **
 **                                                                           **
 **                                                ... make the atoms dance   **
 **                                                                           **
 **            Copyright (C) by CP2K developers group (2000 - 2018)           **
 **                                                                           **
 *******************************************************************************


 TOTAL NUMBERS AND MAXIMUM NUMBERS

  Total number of            - Atomic kinds:                                   2
                             - Atoms:                                          6
                             - Shell sets:                                     6
                             - Shells:                                        22
                             - Primitive Cartesian functions:                 42
                             - Cartesian basis functions:                     48
                             - Spherical basis functions:                     46

  Maximum angular momentum of- Orbital basis functions:                        2
                             - Local part of the GTH pseudopotential:          2
                             - Non-local part of the GTH pseudopotential:      0

 ------------------------------ Linear scaling SCF -----------------------------
 eps_scf:                                                              0.100E-07
 eps_filter:                                                           0.100E-07
 mixing_fraction:                                                      0.450E+00
 max_scf:                                                                     25
 fixed chemical potential (mu)                                                 F
 has unit metric:                                                              F
 Computing inv(S):                                                             T
 Computing sqrt(S):                                                            T
 Computing s preconditioner                                                    F
 sign sqrt order:                                                              3
 Extrapolation order:                                                          1
 Use single precision matrices                                                 F
 S preconditioner type                                                      NONE
 Polarized Atomic Orbitals (PAO)                                               T
 Purification method                                   Trace resetting 4th order
 Cluster type                                                             ATOMIC
 Computing Chebyshev                                                       FALSE
 Using PAO                                                                     T
 -------------------------------------------------------------------------------

 
 PAO|                                  EPS_PAO                           0.1E-04
 PAO|                                  MIXING                            0.5E+00
 PAO|                                  MAX_PAO                              1000
 PAO|                                  MAX_CYCLES                           1000
 PAO|                                  PARAMETERIZATION                   DIRECT
 PAO|                                  PRECONDITION                            F
 PAO|                                  REGULARIZATION                    0.0E+00
 PAO|                                  EPS_PGF                           0.1E-09
 PAO|                                  PENALTY_DISTANCE                  0.1E+00
 PAO|                                  PENALTY_STRENGTH                  0.5E-02
 PAO|                                  LINPOT_PRECONDITION_DELTA         0.0E+00
 PAO|                                  LINPOT_INITGUESS_DELT             0.0E+00
 PAO|                                  LINPOT_REGULARIZATION_DELTA       0.0E+00
 PAO|                                  LINPOT_REGULARIZATION_STRENGTH    0.0E+00
 PAO|                                  OPTIMIZER                              CG
 PAO|                                  CG_INIT_STEPS                           2
 PAO|                                  CG_RESET_LIMIT                    0.1E+00
 PAO|                                  CHECK_UNITARY_TOL                -0.1E+01
 PAO|                                  CHECK_GRADIENT_TOL               -0.1E+01
 PAO|                                  NUM_GRADIENT_ORDER                      2
 PAO|                                  NUM_GRADIENT_EPS                  0.1E-07
 PAO|                                  PRINT%RESTART%WRITE_CYCLES            100
 PAO|                                  RESTART_FILE 
 PAO|                                  PREOPT_DM_FILE 2H2O_ref_LS_DM_SPIN_1_RESTART.dm
 PAO|                                  MACHINE_LEARNING%METHOD        GAUSSIAN_P
 PAO|                                  MACHINE_LEARNING%PRIOR               ZERO
 PAO|                                  MACHINE_LEARNING%DESCRIPTOR     POTENTIAL
 PAO|                                  MACHINE_LEARNING%TOLERANCE        0.1E-01
 PAO|                                  MACHINE_LEARNING%GP_NOISE_VAR     0.1E+00
 PAO|                                  MACHINE_LEARNING%GP_SCALE         0.5E-01
 

 Calculating atomic Fock matrix for atomic kind: O

 Electronic structure
    Total number of core electrons                                          2.00
    Total number of valence electrons                                       6.00
    Total number of electrons                                               8.00
    Multiplicity                                                   not specified
    S   [  2.00] 2.00
    P      4.00


 *******************************************************************************
                  Iteration          Convergence                     Energy [au]
 *******************************************************************************
                          1        0.708315                     -15.576645311500
                          2        0.608879                     -15.587933561584
                          3        0.102828E-01                 -15.656849565404
                          4        0.113889E-02                 -15.656866888140
                          5        0.434197E-03                 -15.656867072159
                          6        0.263771E-03                 -15.656867091904
                          7        0.478536E-06                 -15.656867103452

 Energy components [Hartree]           Total Energy ::          -15.656867103452
                                        Band Energy ::           -3.000198112285
                                     Kinetic Energy ::           11.759971203220
                                   Potential Energy ::          -27.416838306672
                                      Virial (-V/T) ::            2.331369510426
                                        Core Energy ::          -26.140716385623
                                          XC Energy ::           -3.154051012914
                                     Coulomb Energy ::           13.637900295084
                       Total Pseudopotential Energy ::          -37.935781716540
                       Local Pseudopotential Energy ::          -39.218907440693
                    Nonlocal Pseudopotential Energy ::            1.283125724153
                                        Confinement ::            0.350941276976

 Orbital energies  State     L     Occupation   Energy[a.u.]          Energy[eV]

                       1     0          2.000      -0.864471          -23.523463

                       1     1          4.000      -0.317814           -8.648154


 Total Electron Density at R=0:                                         0.000068

 Calculating atomic Fock matrix for atomic kind: H

 Electronic structure
    Total number of core electrons                                          0.00
    Total number of valence electrons                                       1.00
    Total number of electrons                                               1.00
    Multiplicity                                                   not specified
    S      1.00


 *******************************************************************************
                  Iteration          Convergence                     Energy [au]
 *******************************************************************************
                          1        0.437545E-02                  -0.424159432110
                          2        0.531356E-03                  -0.424178438213
                          3        0.259176E-06                  -0.424178722480

 Energy components [Hartree]           Total Energy ::           -0.424178722480
                                        Band Energy ::           -0.199015229016
                                     Kinetic Energy ::            0.464007633961
                                   Potential Energy ::           -0.888186356441
                                      Virial (-V/T) ::            1.914163240935
                                        Core Energy ::           -0.479160803564
                                          XC Energy ::           -0.244352904054
                                     Coulomb Energy ::            0.299334985138
                       Total Pseudopotential Energy ::           -0.962295316385
                       Local Pseudopotential Energy ::           -0.962295316385
                    Nonlocal Pseudopotential Energy ::            0.000000000000
                                        Confinement ::            0.191268788606

 Orbital energies  State     L     Occupation   Energy[a.u.]          Energy[eV]

                       1     0          1.000      -0.199015           -5.415480


 Total Electron Density at R=0:                                         0.242907
 PAO| Made initial guess for matrix_X with norm:   4.8989794855663558     

     Lanczos converged:  T threshold:   0.100E-02
     Est. extremal eigenvalues:    0.336E+01   0.110E+00
     Est. condition number :    0.305E+02
     NS sqrt iter    1 1.00000000   0.821E+00       0.001       44.237
     NS sqrt iter    2 1.00000000   0.440E+00       0.002       70.683
     NS sqrt iter    3 1.00000000   0.171E+00       0.002       71.807
     NS sqrt iter    4 1.00000000   0.213E-01       0.036        3.055
     NS sqrt iter    5 1.00000000   0.637E-04       0.002       64.196
     Final NS sqrt iter    5 1.00000000   0.525E-08

 PAO| Read restart DM 2H2O_ref_LS_DM_SPIN_1_RESTART.dm with checksum:    73.792760995592701     
 PAO| Quickstep energy from restart density:  -34.450566256779069     
 PAO| ======================= Iteration:         1 =============================

     Lanczos converged:  T threshold:   0.100E-02
     Est. extremal eigenvalues:    0.336E+01   0.110E+00
     Est. condition number :    0.305E+02
     NS sqrt iter    1 1.00000000   0.821E+00       0.002       39.004
     NS sqrt iter    2 1.00000000   0.440E+00       0.002       62.743
     NS sqrt iter    3 1.00000000   0.171E+00       0.002       62.449
     NS sqrt iter    4 1.00000000   0.213E-01       0.002       63.245
     NS sqrt iter    5 1.00000000   0.637E-04       0.002       57.419
     Final NS sqrt iter    5 1.00000000   0.525E-08

     Est. extremal eigenvalues     -0.92029     1.96120  converged:  T
     TRS4 it   1 1.00000000   0.902E+00       0.001       16.128   0.100E-07
     TRS4 it   2 1.00000000   0.711E+00       0.001       32.164   0.100E-07
     TRS4 it   3 1.00000000   0.507E+00       0.001       32.256   0.100E-07
     TRS4 it   4 1.00000000   0.319E+00       0.001       32.256   0.100E-07
     TRS4 it   5 1.00000000   0.160E+00       0.001       32.256   0.100E-07
     TRS4 it   6 1.00000000   0.511E-01       0.001       32.113   0.100E-07
     TRS4 it   7 1.00000000   0.727E-02       0.001       32.007   0.100E-07
     TRS4 it   8 1.00000000   0.208E-03       0.001       32.226   0.100E-07
     TRS4 it   9 1.00000000   0.193E-06       0.001       32.003   0.100E-07
     TRS4 it  10 1.00000000   0.167E-12       0.001       32.104   0.100E-07
     Final TRS4 iteration   10 1.00000000   0.167E-12
     Chemical potential (mu):      -0.06567
 
 PAO| energy:  -7.6293324077923597      penalty:   4.1291938007662339E-033
 PAO|CG| warming up with steepest descent
 PAO|CG| beta:    0.0000000000000000     
 PAO| norm of gradient:  0.78355862529336706     
 PAO|LS| adapt:  T F F
 PAO|LS| adapt: scan_steps:    0.0000000000000000        0.0000000000000000        0.0000000000000000     
 PAO|LS| adapt: energies:   -7.6293324077923597        0.0000000000000000        0.0000000000000000     
 PAO| ======================= Iteration:         2 =============================

     Lanczos converged:  T threshold:   0.100E-02
     Est. extremal eigenvalues:    0.328E+01   0.122E+00
     Est. condition number :    0.268E+02
     NS sqrt iter    1 1.00000000   0.804E+00       0.002       38.947
     NS sqrt iter    2 1.00000000   0.425E+00       0.002       62.022
     NS sqrt iter    3 1.00000000   0.154E+00       0.002       62.946
     NS sqrt iter    4 1.00000000   0.149E-01       0.002       64.470
     NS sqrt iter    5 1.00000000   0.221E-04       0.002       52.026
     Final NS sqrt iter    5 1.00000000   0.762E-09

     Est. extremal eigenvalues     -0.92396     1.90542  converged:  T
     TRS4 it   1 1.00000000   0.900E+00       0.001       16.128   0.100E-07
     TRS4 it   2 1.00000000   0.693E+00       0.001       32.256   0.100E-07
     TRS4 it   3 1.00000000   0.492E+00       0.001       32.256   0.100E-07
     TRS4 it   4 1.00000000   0.300E+00       0.001       32.256   0.100E-07
     TRS4 it   5 1.00000000   0.141E+00       0.001       32.256   0.100E-07
     TRS4 it   6 1.00000000   0.401E-01       0.001       32.256   0.100E-07
     TRS4 it   7 1.00000000   0.452E-02       0.001       32.256   0.100E-07
     TRS4 it   8 1.00000000   0.813E-04       0.001       32.256   0.100E-07
     TRS4 it   9 1.00000000   0.293E-07       0.001       32.256   0.100E-07
     Final TRS4 iteration    9 1.00000000   0.293E-07
     Chemical potential (mu):      -0.05377
 
 PAO| energy:  -7.6848416809814930      penalty:   2.2509802926351122E-008
 PAO|LS| adapt:  T T F
 PAO|LS| adapt: scan_steps:    0.0000000000000000       0.10000000000000001        0.0000000000000000     
 PAO|LS| adapt: energies:   -7.6293324077923597       -7.6848416809814930        0.0000000000000000     
 PAO| ======================= Iteration:         3 =============================

     Lanczos converged:  T threshold:   0.100E-02
     Est. extremal eigenvalues:    0.318E+01   0.133E+00
     Est. condition number :    0.239E+02
     NS sqrt iter    1 1.00000000   0.786E+00       0.002       40.946
     NS sqrt iter    2 1.00000000   0.408E+00       0.002       63.702
     NS sqrt iter    3 1.00000000   0.137E+00       0.002       64.023
     NS sqrt iter    4 1.00000000   0.104E-01       0.002       64.208
     NS sqrt iter    5 1.00000000   0.794E-05       0.002       51.206
     Final NS sqrt iter    5 1.00000000   0.100E-09

     Est. extremal eigenvalues     -0.92739     1.85928  converged:  T
     TRS4 it   1 1.00000000   0.898E+00       0.001       16.128   0.100E-07
     TRS4 it   2 1.00000000   0.677E+00       0.001       32.256   0.100E-07
     TRS4 it   3 1.00000000   0.478E+00       0.001       32.256   0.100E-07
     TRS4 it   4 1.00000000   0.282E+00       0.001       32.256   0.100E-07
     TRS4 it   5 1.00000000   0.124E+00       0.001       32.256   0.100E-07
     TRS4 it   6 1.00000000   0.306E-01       0.001       32.256   0.100E-07
     TRS4 it   7 1.00000000   0.262E-02       0.001       32.256   0.100E-07
     TRS4 it   8 1.00000000   0.273E-04       0.001       32.256   0.100E-07
     TRS4 it   9 1.00000000   0.331E-08       0.001       32.256   0.100E-07
     Final TRS4 iteration    9 1.00000000   0.331E-08
     Chemical potential (mu):      -0.04089
 
 PAO| energy:  -7.7279167942692686      penalty:   3.6015707221423262E-007
 PAO|LS| adapt:  T T F
 PAO|LS| adapt: scan_steps:    0.0000000000000000       0.20000000000000001        0.0000000000000000     
 PAO|LS| adapt: energies:   -7.6293324077923597       -7.7279167942692686        0.0000000000000000     
 PAO| ======================= Iteration:         4 =============================

     Lanczos converged:  T threshold:   0.100E-02
     Est. extremal eigenvalues:    0.299E+01   0.151E+00
     Est. condition number :    0.198E+02
     NS sqrt iter    1 1.00000000   0.749E+00       0.002       40.719
     NS sqrt iter    2 1.00000000   0.374E+00       0.002       63.413
     NS sqrt iter    3 1.00000000   0.107E+00       0.002       64.908
     NS sqrt iter    4 1.00000000   0.521E-02       0.002       64.556
     NS sqrt iter    5 1.00000000   0.119E-05       0.002       52.219
     Final NS sqrt iter    5 1.00000000   0.240E-11

     Est. extremal eigenvalues     -0.93273     1.78931  converged:  T
     TRS4 it   1 1.00000000   0.895E+00       0.001       16.128   0.100E-07
     TRS4 it   2 1.00000000   0.649E+00       0.001       32.256   0.100E-07
     TRS4 it   3 1.00000000   0.451E+00       0.001       32.256   0.100E-07
     TRS4 it   4 1.00000000   0.247E+00       0.001       32.256   0.100E-07
     TRS4 it   5 1.00000000   0.925E-01       0.001       32.256   0.100E-07
     TRS4 it   6 1.00000000   0.165E-01       0.001       32.256   0.100E-07
     TRS4 it   7 1.00000000   0.729E-03       0.001       32.256   0.100E-07
     TRS4 it   8 1.00000000   0.203E-05       0.001       32.256   0.100E-07
     TRS4 it   9 1.00000000   0.184E-10       0.001       32.256   0.100E-07
     Final TRS4 iteration    9 1.00000000   0.184E-10
     Chemical potential (mu):      -0.01240
 
 PAO| energy:  -7.7751514490765157      penalty:   5.7625149585771273E-006
 PAO|LS| Need extra step
 PAO|LS| adapt:  T T F
 PAO|LS| adapt: scan_steps:    0.0000000000000000       0.40000000000000002        0.0000000000000000     
 PAO|LS| adapt: energies:   -7.6293324077923597       -7.7751514490765157        0.0000000000000000     
 PAO| ======================= Iteration:         5 =============================

     Lanczos converged:  T threshold:   0.100E-02
     Est. extremal eigenvalues:    0.264E+01   0.180E+00
     Est. condition number :    0.146E+02
     NS sqrt iter    1 1.00000000   0.686E+00       0.002       40.789
     NS sqrt iter    2 1.00000000   0.312E+00       0.002       63.613
     NS sqrt iter    3 1.00000000   0.667E-01       0.002       63.752
     NS sqrt iter    4 1.00000000   0.146E-02       0.002       63.576
     NS sqrt iter    5 1.00000000   0.311E-07       0.002       39.522
     Final NS sqrt iter    5 1.00000000   0.421E-08

     Est. extremal eigenvalues     -0.93397     1.70443  converged:  T
     TRS4 it   1 1.00000000   0.888E+00       0.001       16.128   0.100E-07
     TRS4 it   2 1.00000000   0.610E+00       0.001       32.256   0.100E-07
     TRS4 it   3 1.00000000   0.404E+00       0.001       32.256   0.100E-07
     TRS4 it   4 1.00000000   0.190E+00       0.001       32.256   0.100E-07
     TRS4 it   5 1.00000000   0.513E-01       0.001       32.256   0.100E-07
     TRS4 it   6 1.00000000   0.463E-02       0.001       32.256   0.100E-07
     TRS4 it   7 1.00000000   0.486E-04       0.001       32.256   0.100E-07
     TRS4 it   8 1.00000000   0.692E-08       0.001       32.256   0.100E-07
     Final TRS4 iteration    8 1.00000000   0.692E-08
     Chemical potential (mu):       0.03612
 
 PAO| energy:  -7.7203465055510092      penalty:   9.2200253762461014E-005
 PAO|LS| Need extra step
 PAO|LS| adapt:  T T T
 PAO|LS| adapt: scan_steps:    0.0000000000000000       0.40000000000000002       0.80000000000000004     
 PAO|LS| adapt: energies:   -7.6293324077923597       -7.7751514490765157       -7.7203465055510092     
 PAO|LS| adapt: suggested step_size:   0.49073102385539519     
 PAO|LS| adapt: predicted energy  -7.7803125754983391     
 PAO| ======================= Iteration:         6 =============================

     Lanczos converged:  T threshold:   0.100E-02
     Est. extremal eigenvalues:    0.290E+01   0.159E+00
     Est. condition number :    0.183E+02
     NS sqrt iter    1 1.00000000   0.733E+00       0.002       40.347
     NS sqrt iter    2 1.00000000   0.359E+00       0.002       63.220
     NS sqrt iter    3 1.00000000   0.961E-01       0.002       64.129
     NS sqrt iter    4 1.00000000   0.386E-02       0.002       63.908
     NS sqrt iter    5 1.00000000   0.518E-06       0.002       51.536
     Final NS sqrt iter    5 1.00000000   0.466E-12

     Est. extremal eigenvalues     -0.93421     1.76490  converged:  T
     TRS4 it   1 1.00000000   0.893E+00       0.001       16.128   0.100E-07
     TRS4 it   2 1.00000000   0.639E+00       0.001       32.256   0.100E-07
     TRS4 it   3 1.00000000   0.439E+00       0.001       28.527   0.100E-07
     TRS4 it   4 1.00000000   0.232E+00       0.001       32.256   0.100E-07
     TRS4 it   5 1.00000000   0.806E-01       0.001       32.256   0.100E-07
     TRS4 it   6 1.00000000   0.123E-01       0.001       32.256   0.100E-07
     TRS4 it   7 1.00000000   0.384E-03       0.001       32.256   0.100E-07
     TRS4 it   8 1.00000000   0.537E-06       0.001       32.256   0.100E-07
     TRS4 it   9 1.00000000   0.126E-11       0.001       32.256   0.100E-07
     Final TRS4 iteration    9 1.00000000   0.126E-11
     Chemical potential (mu):       0.00144
 
 PAO| energy:  -7.7795831084574152      penalty:   1.3054077442438046E-005
 PAO|CG| warming up with steepest descent
 PAO|CG| beta:    0.0000000000000000     
 PAO| norm of gradient:  0.41712687188465303     
 PAO| energy improvement: -0.15025070066505553     
 PAO| step      6                   -7.779583108  0.261E-01  0.491E+00     0.131
 PAO|LS| adapt:  T F F
 PAO|LS| adapt: scan_steps:    0.0000000000000000        0.0000000000000000        0.0000000000000000     
 PAO|LS| adapt: energies:   -7.7795831084574152        0.0000000000000000        0.0000000000000000     
 PAO| ======================= Iteration:         7 =============================

     Lanczos converged:  T threshold:   0.100E-02
     Est. extremal eigenvalues:    0.282E+01   0.172E+00
     Est. condition number :    0.164E+02
     NS sqrt iter    1 1.00000000   0.716E+00       0.002       41.437
     NS sqrt iter    2 1.00000000   0.338E+00       0.002       64.414
     NS sqrt iter    3 1.00000000   0.805E-01       0.002       65.568
     NS sqrt iter    4 1.00000000   0.237E-02       0.002       65.382
     NS sqrt iter    5 1.00000000   0.133E-06       0.002       50.642
     Final NS sqrt iter    5 1.00000000   0.119E-08

     Est. extremal eigenvalues     -0.93593     1.74936  converged:  T
     TRS4 it   1 1.00000000   0.892E+00       0.001       16.128   0.100E-07
     TRS4 it   2 1.00000000   0.636E+00       0.001       32.256   0.100E-07
     TRS4 it   3 1.00000000   0.439E+00       0.001       32.256   0.100E-07
     TRS4 it   4 1.00000000   0.233E+00       0.001       32.256   0.100E-07
     TRS4 it   5 1.00000000   0.813E-01       0.001       32.256   0.100E-07
     TRS4 it   6 1.00000000   0.122E-01       0.001       32.256   0.100E-07
     TRS4 it   7 1.00000000   0.360E-03       0.001       32.256   0.100E-07
     TRS4 it   8 1.00000000   0.448E-06       0.001       32.256   0.100E-07
     TRS4 it   9 1.00000000   0.858E-12       0.001       32.256   0.100E-07
     Final TRS4 iteration    9 1.00000000   0.858E-12
     Chemical potential (mu):       0.00337
 
 PAO| energy:  -7.7736312851818186      penalty:   1.9751244310594797E-005
 PAO|LS| adapt:  T F T
 PAO|LS| adapt: scan_steps:    0.0000000000000000        0.0000000000000000       0.49073102385539519     
 PAO|LS| adapt: energies:   -7.7795831084574152        0.0000000000000000       -7.7736312851818186     
 PAO| ======================= Iteration:         8 =============================

     Lanczos converged:  T threshold:   0.100E-02
     Est. extremal eigenvalues:    0.286E+01   0.165E+00
     Est. condition number :    0.173E+02
     NS sqrt iter    1 1.00000000   0.724E+00       0.002       41.156
     NS sqrt iter    2 1.00000000   0.348E+00       0.002       64.380
     NS sqrt iter    3 1.00000000   0.881E-01       0.002       65.188
     NS sqrt iter    4 1.00000000   0.304E-02       0.002       65.284
     NS sqrt iter    5 1.00000000   0.268E-06       0.002       52.425
     Final NS sqrt iter    5 1.00000000   0.645E-09

     Est. extremal eigenvalues     -0.93602     1.75655  converged:  T
     TRS4 it   1 1.00000000   0.892E+00       0.001       16.128   0.100E-07
     TRS4 it   2 1.00000000   0.637E+00       0.001       32.256   0.100E-07
     TRS4 it   3 1.00000000   0.439E+00       0.001       32.256   0.100E-07
     TRS4 it   4 1.00000000   0.232E+00       0.001       32.256   0.100E-07
     TRS4 it   5 1.00000000   0.807E-01       0.001       32.256   0.100E-07
     TRS4 it   6 1.00000000   0.123E-01       0.001       32.256   0.100E-07
     TRS4 it   7 1.00000000   0.381E-03       0.001       32.256   0.100E-07
     TRS4 it   8 1.00000000   0.520E-06       0.001       32.256   0.100E-07
     TRS4 it   9 1.00000000   0.117E-11       0.001       32.256   0.100E-07
     Final TRS4 iteration    9 1.00000000   0.117E-11
     Chemical potential (mu):       0.00192
 
 PAO| energy:  -7.7992032322937552      penalty:   1.4152955074865664E-005
 PAO|LS| adapt:  T T T
 PAO|LS| adapt: scan_steps:    0.0000000000000000       0.24536551192769759       0.49073102385539519     
 PAO|LS| adapt: energies:   -7.7795831084574152       -7.7992032322937552       -7.7736312851818186     
 PAO|LS| adapt: suggested step_size:   0.22920811822702633     
 PAO|LS| adapt: predicted energy  -7.7993012146376728     
 PAO| ======================= Iteration:         9 =============================

     Lanczos converged:  T threshold:   0.100E-02
     Est. extremal eigenvalues:    0.286E+01   0.165E+00
     Est. condition number :    0.174E+02
     NS sqrt iter    1 1.00000000   0.725E+00       0.002       41.799
     NS sqrt iter    2 1.00000000   0.349E+00       0.002       65.368
     NS sqrt iter    3 1.00000000   0.886E-01       0.002       65.208
     NS sqrt iter    4 1.00000000   0.309E-02       0.002       65.393
     NS sqrt iter    5 1.00000000   0.280E-06       0.002       51.878
     Final NS sqrt iter    5 1.00000000   0.675E-09

     Est. extremal eigenvalues     -0.93597     1.75706  converged:  T
     TRS4 it   1 1.00000000   0.892E+00       0.001       16.128   0.100E-07
     TRS4 it   2 1.00000000   0.637E+00       0.001       32.256   0.100E-07
     TRS4 it   3 1.00000000   0.439E+00       0.001       32.256   0.100E-07
     TRS4 it   4 1.00000000   0.232E+00       0.001       32.256   0.100E-07
     TRS4 it   5 1.00000000   0.807E-01       0.001       32.256   0.100E-07
     TRS4 it   6 1.00000000   0.123E-01       0.001       28.629   0.100E-07
     TRS4 it   7 1.00000000   0.382E-03       0.001       32.256   0.100E-07
     TRS4 it   8 1.00000000   0.523E-06       0.001       32.256   0.100E-07
     TRS4 it   9 1.00000000   0.119E-11       0.001       32.256   0.100E-07
     Final TRS4 iteration    9 1.00000000   0.119E-11
     Chemical potential (mu):       0.00186
 
 PAO| energy:  -7.7993252419912604      penalty:   1.3980686200081986E-005
 PAO|CG| trace_G_new    3.6850048573045947E-002
 PAO|CG| trace_G_prev   0.17399482724827572     
 PAO|CG| trace_G_mix   -1.4391711811929703E-003
 PAO|CG| trace_D   0.17399482724827572     
 PAO|CG| trace_D_Gnew   1.4391711811929703E-003
 PAO|CG| beta:   0.22005952912383700     
 PAO| norm of gradient:  0.19196366472081625     
 PAO| energy improvement:  -1.9742133533845241E-002
 PAO| step      9                   -7.799325242  0.120E-01  0.229E+00     0.081
 PAO|LS| adapt:  T F F
 PAO|LS| adapt: scan_steps:    0.0000000000000000        0.0000000000000000        0.0000000000000000     
 PAO|LS| adapt: energies:   -7.7993252419912604        0.0000000000000000        0.0000000000000000     
 PAO| ======================= Iteration:        10 =============================

     Lanczos converged:  T threshold:   0.100E-02
     Est. extremal eigenvalues:    0.283E+01   0.171E+00
     Est. condition number :    0.166E+02
     NS sqrt iter    1 1.00000000   0.717E+00       0.002       41.321
     NS sqrt iter    2 1.00000000   0.341E+00       0.002       65.439
     NS sqrt iter    3 1.00000000   0.830E-01       0.002       66.063
     NS sqrt iter    4 1.00000000   0.255E-02       0.002       65.375
     NS sqrt iter    5 1.00000000   0.155E-06       0.002       50.714
     Final NS sqrt iter    5 1.00000000   0.118E-08

     Est. extremal eigenvalues     -0.93686     1.74921  converged:  T
     TRS4 it   1 1.00000000   0.889E+00       0.001       16.128   0.100E-07
     TRS4 it   2 1.00000000   0.635E+00       0.001       32.256   0.100E-07
     TRS4 it   3 1.00000000   0.436E+00       0.001       32.256   0.100E-07
     TRS4 it   4 1.00000000   0.229E+00       0.001       32.256   0.100E-07
     TRS4 it   5 1.00000000   0.783E-01       0.001       32.256   0.100E-07
     TRS4 it   6 1.00000000   0.115E-01       0.001       32.256   0.100E-07
     TRS4 it   7 1.00000000   0.331E-03       0.001       32.256   0.100E-07
     TRS4 it   8 1.00000000   0.383E-06       0.009        3.577   0.100E-07
     TRS4 it   9 1.00000000   0.630E-12       0.001       32.256   0.100E-07
     Final TRS4 iteration    9 1.00000000   0.630E-12
     Chemical potential (mu):       0.00501
 
 PAO| energy:  -7.8043541576701356      penalty:   1.4517184714249208E-005
 PAO|LS| adapt:  T T F
 PAO|LS| adapt: scan_steps:    0.0000000000000000       0.22920811822702633        0.0000000000000000     
 PAO|LS| adapt: energies:   -7.7993252419912604       -7.8043541576701356        0.0000000000000000     
 PAO| ======================= Iteration:        11 =============================

     Lanczos converged:  T threshold:   0.100E-02
     Est. extremal eigenvalues:    0.279E+01   0.177E+00
     Est. condition number :    0.158E+02
     NS sqrt iter    1 1.00000000   0.710E+00       0.002       42.127
     NS sqrt iter    2 1.00000000   0.333E+00       0.002       65.760
     NS sqrt iter    3 1.00000000   0.776E-01       0.002       66.386
     NS sqrt iter    4 1.00000000   0.209E-02       0.010       11.177
     NS sqrt iter    5 1.00000000   0.848E-07       0.008        8.930
     Final NS sqrt iter    5 1.00000000   0.652E-09

     Est. extremal eigenvalues     -0.93677     1.74244  converged:  T
     TRS4 it   1 1.00000000   0.887E+00       0.001       16.128   0.100E-07
     TRS4 it   2 1.00000000   0.632E+00       0.001       32.256   0.100E-07
     TRS4 it   3 1.00000000   0.434E+00       0.001       32.256   0.100E-07
     TRS4 it   4 1.00000000   0.226E+00       0.001       32.256   0.100E-07
     TRS4 it   5 1.00000000   0.760E-01       0.001       32.256   0.100E-07
     TRS4 it   6 1.00000000   0.108E-01       0.001       29.380   0.100E-07
     TRS4 it   7 1.00000000   0.286E-03       0.001       32.256   0.100E-07
     TRS4 it   8 1.00000000   0.277E-06       0.001       32.256   0.100E-07
     TRS4 it   9 1.00000000   0.322E-12       0.001       24.489   0.100E-07
     Final TRS4 iteration    9 1.00000000   0.322E-12
     Chemical potential (mu):       0.00829
 
 PAO| energy:  -7.8029371167404173      penalty:   1.5720983694309526E-005
 PAO|LS| adapt:  T T T
 PAO|LS| adapt: scan_steps:    0.0000000000000000       0.22920811822702633       0.45841623645405266     
 PAO|LS| adapt: energies:   -7.7993252419912604       -7.8043541576701356       -7.8029371167404173     
 PAO|LS| adapt: suggested step_size:   0.29342442193455409     
 PAO|LS| adapt: predicted energy  -7.8046071387246894     
 PAO| ======================= Iteration:        12 =============================

     Lanczos converged:  T threshold:   0.100E-02
     Est. extremal eigenvalues:    0.282E+01   0.172E+00
     Est. condition number :    0.163E+02
     NS sqrt iter    1 1.00000000   0.715E+00       0.002       28.827
     NS sqrt iter    2 1.00000000   0.339E+00       0.002       59.316
     NS sqrt iter    3 1.00000000   0.815E-01       0.002       60.401
     NS sqrt iter    4 1.00000000   0.241E-02       0.002       62.522
     NS sqrt iter    5 1.00000000   0.131E-06       0.002       39.534
     Final NS sqrt iter    5 1.00000000   0.129E-08

     Est. extremal eigenvalues     -0.93693     1.74720  converged:  T
     TRS4 it   1 1.00000000   0.889E+00       0.001       16.128   0.100E-07
     TRS4 it   2 1.00000000   0.634E+00       0.001       30.293   0.100E-07
     TRS4 it   3 1.00000000   0.435E+00       0.001       32.256   0.100E-07
     TRS4 it   4 1.00000000   0.228E+00       0.001       32.256   0.100E-07
     TRS4 it   5 1.00000000   0.777E-01       0.001       31.910   0.100E-07
     TRS4 it   6 1.00000000   0.113E-01       0.001       31.976   0.100E-07
     TRS4 it   7 1.00000000   0.318E-03       0.006        5.194   0.100E-07
     TRS4 it   8 1.00000000   0.350E-06       0.001       32.256   0.100E-07
     TRS4 it   9 1.00000000   0.523E-12       0.001       32.256   0.100E-07
     Final TRS4 iteration    9 1.00000000   0.523E-12
     Chemical potential (mu):       0.00592
 
 PAO| energy:  -7.8045909870253452      penalty:   1.4779544427762953E-005
 PAO|CG| trace_G_new    1.1794023344985482E-002
 PAO|CG| trace_G_prev    3.6850048573045947E-002
 PAO|CG| trace_G_mix   -4.5924020775927471E-004
 PAO|CG| trace_D    4.4642549577759025E-002
 PAO|CG| trace_D_Gnew   2.0986718298115050E-004
 PAO|CG| beta:   0.33251689013260716     
 PAO| norm of gradient:  0.10860029164318796     
 PAO| energy improvement:  -5.2657450340847234E-003
 PAO| step     12                   -7.804590987  0.679E-02  0.293E+00     0.118
 PAO|LS| adapt:  T F F
 PAO|LS| adapt: scan_steps:    0.0000000000000000        0.0000000000000000        0.0000000000000000     
 PAO|LS| adapt: energies:   -7.8045909870253452        0.0000000000000000        0.0000000000000000     
 PAO| ======================= Iteration:        13 =============================

     Lanczos converged:  T threshold:   0.100E-02
     Est. extremal eigenvalues:    0.278E+01   0.177E+00
     Est. condition number :    0.158E+02
     NS sqrt iter    1 1.00000000   0.708E+00       0.002       39.837
     NS sqrt iter    2 1.00000000   0.332E+00       0.002       58.888
     NS sqrt iter    3 1.00000000   0.771E-01       0.002       63.039
     NS sqrt iter    4 1.00000000   0.206E-02       0.002       62.825
     NS sqrt iter    5 1.00000000   0.824E-07       0.002       46.190
     Final NS sqrt iter    5 1.00000000   0.646E-09

     Est. extremal eigenvalues     -0.93741     1.73921  converged:  T
     TRS4 it   1 1.00000000   0.888E+00       0.001       16.128   0.100E-07
     TRS4 it   2 1.00000000   0.631E+00       0.001       32.256   0.100E-07
     TRS4 it   3 1.00000000   0.431E+00       0.001       32.256   0.100E-07
     TRS4 it   4 1.00000000   0.223E+00       0.001       32.256   0.100E-07
     TRS4 it   5 1.00000000   0.740E-01       0.001       32.256   0.100E-07
     TRS4 it   6 1.00000000   0.102E-01       0.001       32.256   0.100E-07
     TRS4 it   7 1.00000000   0.255E-03       0.001       31.053   0.100E-07
     TRS4 it   8 1.00000000   0.220E-06       0.001       32.256   0.100E-07
     TRS4 it   9 1.00000000   0.203E-12       0.001       32.256   0.100E-07
     Final TRS4 iteration    9 1.00000000   0.203E-12
     Chemical potential (mu):       0.01046
 
 PAO| energy:  -7.8066547271617592      penalty:   1.5083288160095328E-005
 PAO|LS| adapt:  T T F
 PAO|LS| adapt: scan_steps:    0.0000000000000000       0.29342442193455409        0.0000000000000000     
 PAO|LS| adapt: energies:   -7.8045909870253452       -7.8066547271617592        0.0000000000000000     
 PAO| ======================= Iteration:        14 =============================

     Lanczos converged:  T threshold:   0.100E-02
     Est. extremal eigenvalues:    0.275E+01   0.181E+00
     Est. condition number :    0.152E+02
     NS sqrt iter    1 1.00000000   0.701E+00       0.002       40.732
     NS sqrt iter    2 1.00000000   0.325E+00       0.002       53.706
     NS sqrt iter    3 1.00000000   0.730E-01       0.002       63.656
     NS sqrt iter    4 1.00000000   0.176E-02       0.002       55.337
     NS sqrt iter    5 1.00000000   0.515E-07       0.002       45.700
     Final NS sqrt iter    5 1.00000000   0.650E-09

     Est. extremal eigenvalues     -0.93739     1.73155  converged:  T
     TRS4 it   1 1.00000000   0.887E+00       0.001       16.128   0.100E-07
     TRS4 it   2 1.00000000   0.627E+00       0.001       32.256   0.100E-07
     TRS4 it   3 1.00000000   0.427E+00       0.001       32.256   0.100E-07
     TRS4 it   4 1.00000000   0.218E+00       0.001       32.256   0.100E-07
     TRS4 it   5 1.00000000   0.705E-01       0.001       32.256   0.100E-07
     TRS4 it   6 1.00000000   0.921E-02       0.001       32.256   0.100E-07
     TRS4 it   7 1.00000000   0.205E-03       0.001       32.256   0.100E-07
     TRS4 it   8 1.00000000   0.138E-06       0.001       32.256   0.100E-07
     TRS4 it   9 1.00000000   0.772E-13       0.001       31.959   0.100E-07
     Final TRS4 iteration    9 1.00000000   0.772E-13
     Chemical potential (mu):       0.01491
 
 PAO| energy:  -7.8060152573638995      penalty:   1.5864338074457195E-005
 PAO|LS| adapt:  T T T
 PAO|LS| adapt: scan_steps:    0.0000000000000000       0.29342442193455409       0.58684884386910818     
 PAO|LS| adapt: energies:   -7.8045909870253452       -7.8066547271617592       -7.8060152573638995     
 PAO|LS| adapt: suggested step_size:   0.37072431926588878     
 PAO|LS| adapt: predicted energy  -7.8067485298096582     
 PAO| ======================= Iteration:        15 =============================

     Lanczos converged:  T threshold:   0.100E-02
     Est. extremal eigenvalues:    0.277E+01   0.178E+00
     Est. condition number :    0.156E+02
     NS sqrt iter    1 1.00000000   0.706E+00       0.002       37.018
     NS sqrt iter    2 1.00000000   0.330E+00       0.002       61.765
     NS sqrt iter    3 1.00000000   0.760E-01       0.002       61.664
     NS sqrt iter    4 1.00000000   0.197E-02       0.002       63.776
     NS sqrt iter    5 1.00000000   0.728E-07       0.002       47.025
     Final NS sqrt iter    5 1.00000000   0.572E-09

     Est. extremal eigenvalues     -0.93746     1.73716  converged:  T
     TRS4 it   1 1.00000000   0.887E+00       0.001       16.128   0.100E-07
     TRS4 it   2 1.00000000   0.630E+00       0.001       32.256   0.100E-07
     TRS4 it   3 1.00000000   0.430E+00       0.001       32.256   0.100E-07
     TRS4 it   4 1.00000000   0.222E+00       0.001       32.256   0.100E-07
     TRS4 it   5 1.00000000   0.731E-01       0.001       32.256   0.100E-07
     TRS4 it   6 1.00000000   0.994E-02       0.001       32.256   0.100E-07
     TRS4 it   7 1.00000000   0.241E-03       0.001       32.256   0.100E-07
     TRS4 it   8 1.00000000   0.195E-06       0.001       31.731   0.100E-07
     TRS4 it   9 1.00000000   0.157E-12       0.001       32.256   0.100E-07
     Final TRS4 iteration    9 1.00000000   0.157E-12
     Chemical potential (mu):       0.01165
 
 PAO| energy:  -7.8067454593372778      penalty:   1.5239691681990637E-005
 PAO|CG| trace_G_new    2.6253995672931687E-003
 PAO|CG| trace_G_prev    1.1794023344985482E-002
 PAO|CG| trace_G_mix    6.3774962550319509E-005
 PAO|CG| trace_D    1.6590468885782729E-002
 PAO|CG| trace_D_Gnew   3.3883585795513619E-005
 PAO|CG| beta:   0.21719684028198799     
 PAO| norm of gradient:   5.1238653058927774E-002
 PAO| energy improvement:  -2.1544723119326648E-003
 PAO| step     15                   -7.806745459  0.320E-02  0.371E+00     0.084
 PAO|LS| adapt:  T F F
 PAO|LS| adapt: scan_steps:    0.0000000000000000        0.0000000000000000        0.0000000000000000     
 PAO|LS| adapt: energies:   -7.8067454593372778        0.0000000000000000        0.0000000000000000     
 PAO| ======================= Iteration:        16 =============================

     Lanczos converged:  T threshold:   0.100E-02
     Est. extremal eigenvalues:    0.276E+01   0.178E+00
     Est. condition number :    0.155E+02
     NS sqrt iter    1 1.00000000   0.704E+00       0.002       41.232
     NS sqrt iter    2 1.00000000   0.328E+00       0.002       63.735
     NS sqrt iter    3 1.00000000   0.753E-01       0.002       63.369
     NS sqrt iter    4 1.00000000   0.191E-02       0.002       64.184
     NS sqrt iter    5 1.00000000   0.663E-07       0.002       46.494
     Final NS sqrt iter    5 1.00000000   0.560E-09

     Est. extremal eigenvalues     -0.93748     1.73575  converged:  T
     TRS4 it   1 1.00000000   0.887E+00       0.001       16.128   0.100E-07
     TRS4 it   2 1.00000000   0.629E+00       0.001       32.256   0.100E-07
     TRS4 it   3 1.00000000   0.429E+00       0.001       32.256   0.100E-07
     TRS4 it   4 1.00000000   0.220E+00       0.001       32.256   0.100E-07
     TRS4 it   5 1.00000000   0.718E-01       0.001       32.256   0.100E-07
     TRS4 it   6 1.00000000   0.961E-02       0.001       32.256   0.100E-07
     TRS4 it   7 1.00000000   0.227E-03       0.001       31.227   0.100E-07
     TRS4 it   8 1.00000000   0.174E-06       0.001       32.256   0.100E-07
     TRS4 it   9 1.00000000   0.126E-12       0.001       32.256   0.100E-07
     Final TRS4 iteration    9 1.00000000   0.126E-12
     Chemical potential (mu):       0.01249
 
 PAO| energy:  -7.8068706545483018      penalty:   1.5020846997220608E-005
 PAO|LS| adapt:  T T F
 PAO|LS| adapt: scan_steps:    0.0000000000000000       0.37072431926588878        0.0000000000000000     
 PAO|LS| adapt: energies:   -7.8067454593372778       -7.8068706545483018        0.0000000000000000     
 PAO| ======================= Iteration:        17 =============================

     Lanczos converged:  T threshold:   0.100E-02
     Est. extremal eigenvalues:    0.275E+01   0.179E+00
     Est. condition number :    0.154E+02
     NS sqrt iter    1 1.00000000   0.702E+00       0.002       41.062
     NS sqrt iter    2 1.00000000   0.327E+00       0.002       62.730
     NS sqrt iter    3 1.00000000   0.746E-01       0.002       63.099
     NS sqrt iter    4 1.00000000   0.186E-02       0.002       62.486
     NS sqrt iter    5 1.00000000   0.605E-07       0.002       45.661
     Final NS sqrt iter    5 1.00000000   0.561E-09

     Est. extremal eigenvalues     -0.93739     1.73441  converged:  T
     TRS4 it   1 1.00000000   0.887E+00       0.001       16.128   0.100E-07
     TRS4 it   2 1.00000000   0.628E+00       0.001       32.256   0.100E-07
     TRS4 it   3 1.00000000   0.428E+00       0.001       30.223   0.100E-07
     TRS4 it   4 1.00000000   0.218E+00       0.001       32.256   0.100E-07
     TRS4 it   5 1.00000000   0.706E-01       0.001       32.256   0.100E-07
     TRS4 it   6 1.00000000   0.930E-02       0.001       32.256   0.100E-07
     TRS4 it   7 1.00000000   0.213E-03       0.001       32.256   0.100E-07
     TRS4 it   8 1.00000000   0.155E-06       0.001       32.256   0.100E-07
     TRS4 it   9 1.00000000   0.102E-12       0.001       32.256   0.100E-07
     Final TRS4 iteration    9 1.00000000   0.102E-12
     Chemical potential (mu):       0.01331
 
 PAO| energy:  -7.8052995882507181      penalty:   1.4928487364597670E-005
 PAO|LS| adapt:  T T T
 PAO|LS| adapt: scan_steps:    0.0000000000000000       0.37072431926588878       0.74144863853177756     
 PAO|LS| adapt: energies:   -7.8067454593372778       -7.8068706545483018       -7.8052995882507181     
 PAO|LS| adapt: suggested step_size:   0.21272404289603858     
 PAO|LS| adapt: predicted energy  -7.8070247097447094     
 PAO| ======================= Iteration:        18 =============================

     Lanczos converged:  T threshold:   0.100E-02
     Est. extremal eigenvalues:    0.277E+01   0.178E+00
     Est. condition number :    0.155E+02
     NS sqrt iter    1 1.00000000   0.705E+00       0.002       40.587
     NS sqrt iter    2 1.00000000   0.329E+00       0.002       64.710
     NS sqrt iter    3 1.00000000   0.756E-01       0.002       61.502
     NS sqrt iter    4 1.00000000   0.194E-02       0.002       62.585
     NS sqrt iter    5 1.00000000   0.690E-07       0.002       47.541
     Final NS sqrt iter    5 1.00000000   0.564E-09

     Est. extremal eigenvalues     -0.93749     1.73634  converged:  T
     TRS4 it   1 1.00000000   0.887E+00       0.001       16.128   0.100E-07
     TRS4 it   2 1.00000000   0.629E+00       0.001       32.256   0.100E-07
     TRS4 it   3 1.00000000   0.430E+00       0.001       32.256   0.100E-07
     TRS4 it   4 1.00000000   0.221E+00       0.001       32.256   0.100E-07
     TRS4 it   5 1.00000000   0.723E-01       0.001       32.256   0.100E-07
     TRS4 it   6 1.00000000   0.975E-02       0.001       32.256   0.100E-07
     TRS4 it   7 1.00000000   0.233E-03       0.001       32.256   0.100E-07
     TRS4 it   8 1.00000000   0.182E-06       0.002       19.956   0.100E-07
     TRS4 it   9 1.00000000   0.139E-12       0.001       32.256   0.100E-07
     Final TRS4 iteration    9 1.00000000   0.139E-12
     Chemical potential (mu):       0.01213
 
 PAO| energy:  -7.8070242563410464      penalty:   1.5098931422612829E-005
 PAO|CG| trace_G_new    7.2570586187457420E-004
 PAO|CG| trace_G_prev    2.6253995672931687E-003
 PAO|CG| trace_G_mix    1.4058724244715656E-006
 PAO|CG| trace_D    3.3933272858243080E-003
 PAO|CG| trace_D_Gnew  -1.7222810109268251E-006
 PAO|CG| beta:   0.27588181184811733     
 PAO| norm of gradient:   2.6938928372794903E-002
 PAO| energy improvement:  -2.7879700376853833E-004
 PAO| step     18                   -7.807024256  0.168E-02  0.213E+00     0.083
 PAO|LS| adapt:  T F F
 PAO|LS| adapt: scan_steps:    0.0000000000000000        0.0000000000000000        0.0000000000000000     
 PAO|LS| adapt: energies:   -7.8070242563410464        0.0000000000000000        0.0000000000000000     
 PAO| ======================= Iteration:        19 =============================

     Lanczos converged:  T threshold:   0.100E-02
     Est. extremal eigenvalues:    0.277E+01   0.178E+00
     Est. condition number :    0.156E+02
     NS sqrt iter    1 1.00000000   0.705E+00       0.002       40.982
     NS sqrt iter    2 1.00000000   0.329E+00       0.002       64.241
     NS sqrt iter    3 1.00000000   0.758E-01       0.002       65.013
     NS sqrt iter    4 1.00000000   0.195E-02       0.002       63.848
     NS sqrt iter    5 1.00000000   0.697E-07       0.002       47.720
     Final NS sqrt iter    5 1.00000000   0.576E-09

     Est. extremal eigenvalues     -0.93749     1.73643  converged:  T
     TRS4 it   1 1.00000000   0.887E+00       0.001       16.128   0.100E-07
     TRS4 it   2 1.00000000   0.629E+00       0.001       32.256   0.100E-07
     TRS4 it   3 1.00000000   0.429E+00       0.001       32.256   0.100E-07
     TRS4 it   4 1.00000000   0.221E+00       0.001       32.256   0.100E-07
     TRS4 it   5 1.00000000   0.722E-01       0.001       32.256   0.100E-07
     TRS4 it   6 1.00000000   0.974E-02       0.001       32.256   0.100E-07
     TRS4 it   7 1.00000000   0.233E-03       0.001       32.256   0.100E-07
     TRS4 it   8 1.00000000   0.185E-06       0.001       32.256   0.100E-07
     TRS4 it   9 1.00000000   0.143E-12       0.001       27.338   0.100E-07
     Final TRS4 iteration    9 1.00000000   0.143E-12
     Chemical potential (mu):       0.01185
 
 PAO| energy:  -7.8071421162795183      penalty:   1.4809856560567949E-005
 PAO|LS| adapt:  T T F
 PAO|LS| adapt: scan_steps:    0.0000000000000000       0.21272404289603858        0.0000000000000000     
 PAO|LS| adapt: energies:   -7.8070242563410464       -7.8071421162795183        0.0000000000000000     
 PAO| ======================= Iteration:        20 =============================

     Lanczos converged:  T threshold:   0.100E-02
     Est. extremal eigenvalues:    0.277E+01   0.178E+00
     Est. condition number :    0.156E+02
     NS sqrt iter    1 1.00000000   0.705E+00       0.002       39.933
     NS sqrt iter    2 1.00000000   0.329E+00       0.002       63.219
     NS sqrt iter    3 1.00000000   0.760E-01       0.002       63.007
     NS sqrt iter    4 1.00000000   0.196E-02       0.002       63.535
     NS sqrt iter    5 1.00000000   0.705E-07       0.002       46.741
     Final NS sqrt iter    5 1.00000000   0.589E-09

     Est. extremal eigenvalues     -0.93748     1.73652  converged:  T
     TRS4 it   1 1.00000000   0.887E+00       0.001       16.128   0.100E-07
     TRS4 it   2 1.00000000   0.629E+00       0.001       32.256   0.100E-07
     TRS4 it   3 1.00000000   0.429E+00       0.001       32.256   0.100E-07
     TRS4 it   4 1.00000000   0.220E+00       0.001       32.256   0.100E-07
     TRS4 it   5 1.00000000   0.721E-01       0.001       32.256   0.100E-07
     TRS4 it   6 1.00000000   0.972E-02       0.001       32.256   0.100E-07
     TRS4 it   7 1.00000000   0.234E-03       0.001       32.256   0.100E-07
     TRS4 it   8 1.00000000   0.187E-06       0.001       32.256   0.100E-07
     TRS4 it   9 1.00000000   0.149E-12       0.001       32.256   0.100E-07
     Final TRS4 iteration    9 1.00000000   0.149E-12
     Chemical potential (mu):       0.01156
 
 PAO| energy:  -7.8071863532391559      penalty:   1.4533220733060569E-005
 PAO|LS| adapt:  T T F
 PAO|LS| adapt: scan_steps:    0.0000000000000000       0.42544808579207716        0.0000000000000000     
 PAO|LS| adapt: energies:   -7.8070242563410464       -7.8071863532391559        0.0000000000000000     
 PAO| ======================= Iteration:        21 =============================

     Lanczos converged:  T threshold:   0.100E-02
     Est. extremal eigenvalues:    0.277E+01   0.177E+00
     Est. condition number :    0.156E+02
     NS sqrt iter    1 1.00000000   0.705E+00       0.002       41.160
     NS sqrt iter    2 1.00000000   0.330E+00       0.002       63.535
     NS sqrt iter    3 1.00000000   0.765E-01       0.002       63.973
     NS sqrt iter    4 1.00000000   0.198E-02       0.002       64.202
     NS sqrt iter    5 1.00000000   0.723E-07       0.002       46.861
     Final NS sqrt iter    5 1.00000000   0.602E-09

     Est. extremal eigenvalues     -0.93748     1.73670  converged:  T
     TRS4 it   1 1.00000000   0.887E+00       0.001       16.128   0.100E-07
     TRS4 it   2 1.00000000   0.629E+00       0.001       32.256   0.100E-07
     TRS4 it   3 1.00000000   0.429E+00       0.001       32.256   0.100E-07
     TRS4 it   4 1.00000000   0.220E+00       0.001       32.256   0.100E-07
     TRS4 it   5 1.00000000   0.719E-01       0.001       32.256   0.100E-07
     TRS4 it   6 1.00000000   0.970E-02       0.001       32.256   0.100E-07
     TRS4 it   7 1.00000000   0.235E-03       0.001       31.061   0.100E-07
     TRS4 it   8 1.00000000   0.193E-06       0.001       32.256   0.100E-07
     TRS4 it   9 1.00000000   0.159E-12       0.001       32.256   0.100E-07
     Final TRS4 iteration    9 1.00000000   0.159E-12
     Chemical potential (mu):       0.01098
 
 PAO| energy:  -7.8070516100716940      penalty:   1.4016684469131768E-005
 PAO|LS| Need extra step
 PAO|LS| adapt:  T T T
 PAO|LS| adapt: scan_steps:    0.0000000000000000       0.42544808579207716       0.85089617158415431     
 PAO|LS| adapt: energies:   -7.8070242563410464       -7.8071863532391559       -7.8070516100716940     
 PAO|LS| adapt: suggested step_size:   0.44505054801515637     
 PAO|LS| adapt: predicted energy  -7.8071866683190034     
 PAO| ======================= Iteration:        22 =============================

     Lanczos converged:  T threshold:   0.100E-02
     Est. extremal eigenvalues:    0.277E+01   0.178E+00
     Est. condition number :    0.156E+02
     NS sqrt iter    1 1.00000000   0.705E+00       0.002       41.401
     NS sqrt iter    2 1.00000000   0.329E+00       0.002       63.145
     NS sqrt iter    3 1.00000000   0.761E-01       0.002       64.555
     NS sqrt iter    4 1.00000000   0.196E-02       0.002       64.441
     NS sqrt iter    5 1.00000000   0.706E-07       0.002       45.487
     Final NS sqrt iter    5 1.00000000   0.577E-09

     Est. extremal eigenvalues     -0.93748     1.73653  converged:  T
     TRS4 it   1 1.00000000   0.887E+00       0.001       16.128   0.100E-07
     TRS4 it   2 1.00000000   0.629E+00       0.001       32.256   0.100E-07
     TRS4 it   3 1.00000000   0.429E+00       0.001       32.256   0.100E-07
     TRS4 it   4 1.00000000   0.220E+00       0.001       32.256   0.100E-07
     TRS4 it   5 1.00000000   0.721E-01       0.001       32.256   0.100E-07
     TRS4 it   6 1.00000000   0.972E-02       0.001       32.256   0.100E-07
     TRS4 it   7 1.00000000   0.234E-03       0.001       32.256   0.100E-07
     TRS4 it   8 1.00000000   0.188E-06       0.001       32.256   0.100E-07
     TRS4 it   9 1.00000000   0.149E-12       0.001       32.256   0.100E-07
     Final TRS4 iteration    9 1.00000000   0.149E-12
     Chemical potential (mu):       0.01154
 
 PAO| energy:  -7.8071867043201069      penalty:   1.4508348529791915E-005
 PAO|CG| trace_G_new    2.2199563340774312E-004
 PAO|CG| trace_G_prev    7.2570586187457420E-004
 PAO|CG| trace_G_mix    2.9415809042434941E-006
 PAO|CG| trace_D    9.8492492041410916E-004
 PAO|CG| trace_D_Gnew  -1.8290175187429961E-006
 PAO|CG| beta:   0.30184963910538087     
 PAO| norm of gradient:   1.4899517891789086E-002
 PAO| energy improvement:  -1.6244797906050934E-004
 PAO| step     22                   -7.807186704  0.931E-03  0.445E+00     0.107
 PAO|LS| adapt:  T F F
 PAO|LS| adapt: scan_steps:    0.0000000000000000        0.0000000000000000        0.0000000000000000     
 PAO|LS| adapt: energies:   -7.8071867043201069        0.0000000000000000        0.0000000000000000     
 PAO| ======================= Iteration:        23 =============================

     Lanczos converged:  T threshold:   0.100E-02
     Est. extremal eigenvalues:    0.277E+01   0.178E+00
     Est. condition number :    0.156E+02
     NS sqrt iter    1 1.00000000   0.705E+00       0.002       40.542
     NS sqrt iter    2 1.00000000   0.330E+00       0.002       63.477
     NS sqrt iter    3 1.00000000   0.761E-01       0.002       62.749
     NS sqrt iter    4 1.00000000   0.196E-02       0.002       64.378
     NS sqrt iter    5 1.00000000   0.705E-07       0.002       47.758
     Final NS sqrt iter    5 1.00000000   0.595E-09

     Est. extremal eigenvalues     -0.93748     1.73612  converged:  T
     TRS4 it   1 1.00000000   0.887E+00       0.001       16.128   0.100E-07
     TRS4 it   2 1.00000000   0.629E+00       0.001       32.256   0.100E-07
     TRS4 it   3 1.00000000   0.429E+00       0.001       32.256   0.100E-07
     TRS4 it   4 1.00000000   0.220E+00       0.001       32.256   0.100E-07
     TRS4 it   5 1.00000000   0.722E-01       0.001       32.256   0.100E-07
     TRS4 it   6 1.00000000   0.976E-02       0.001       32.256   0.100E-07
     TRS4 it   7 1.00000000   0.236E-03       0.001       32.256   0.100E-07
     TRS4 it   8 1.00000000   0.192E-06       0.001       32.256   0.100E-07
     TRS4 it   9 1.00000000   0.156E-12       0.001       32.256   0.100E-07
     Final TRS4 iteration    9 1.00000000   0.156E-12
     Chemical potential (mu):       0.01120
 
 PAO| energy:  -7.8072361135478889      penalty:   1.3825919135869771E-005
 PAO|LS| adapt:  T T F
 PAO|LS| adapt: scan_steps:    0.0000000000000000       0.44505054801515637        0.0000000000000000     
 PAO|LS| adapt: energies:   -7.8071867043201069       -7.8072361135478889        0.0000000000000000     
 PAO| ======================= Iteration:        24 =============================

     Lanczos converged:  T threshold:   0.100E-02
     Est. extremal eigenvalues:    0.277E+01   0.178E+00
     Est. condition number :    0.156E+02
     NS sqrt iter    1 1.00000000   0.705E+00       0.002       41.471
     NS sqrt iter    2 1.00000000   0.330E+00       0.002       64.016
     NS sqrt iter    3 1.00000000   0.762E-01       0.002       60.931
     NS sqrt iter    4 1.00000000   0.196E-02       0.002       64.840
     NS sqrt iter    5 1.00000000   0.705E-07       0.002       46.572
     Final NS sqrt iter    5 1.00000000   0.604E-09

     Est. extremal eigenvalues     -0.93748     1.73571  converged:  T
     TRS4 it   1 1.00000000   0.887E+00       0.001       16.128   0.100E-07
     TRS4 it   2 1.00000000   0.629E+00       0.001       32.256   0.100E-07
     TRS4 it   3 1.00000000   0.429E+00       0.001       32.256   0.100E-07
     TRS4 it   4 1.00000000   0.220E+00       0.001       32.256   0.100E-07
     TRS4 it   5 1.00000000   0.723E-01       0.001       32.256   0.100E-07
     TRS4 it   6 1.00000000   0.980E-02       0.001       32.256   0.100E-07
     TRS4 it   7 1.00000000   0.239E-03       0.001       32.256   0.100E-07
     TRS4 it   8 1.00000000   0.197E-06       0.001       32.256   0.100E-07
     TRS4 it   9 1.00000000   0.164E-12       0.001       32.256   0.100E-07
     Final TRS4 iteration    9 1.00000000   0.164E-12
     Chemical potential (mu):       0.01086
 
 PAO| energy:  -7.8071856255905345      penalty:   1.3171922983489132E-005
 PAO|LS| adapt:  T T T
 PAO|LS| adapt: scan_steps:    0.0000000000000000       0.44505054801515637       0.89010109603031273     
 PAO|LS| adapt: energies:   -7.8071867043201069       -7.8072361135478889       -7.8071856255905345     
 PAO|LS| adapt: suggested step_size:   0.44264763152320608     
 PAO|LS| adapt: predicted energy  -7.8072361150039571     
 PAO| ======================= Iteration:        25 =============================

     Lanczos converged:  T threshold:   0.100E-02
     Est. extremal eigenvalues:    0.277E+01   0.178E+00
     Est. condition number :    0.156E+02
     NS sqrt iter    1 1.00000000   0.705E+00       0.002       39.848
     NS sqrt iter    2 1.00000000   0.330E+00       0.002       62.815
     NS sqrt iter    3 1.00000000   0.761E-01       0.002       63.916
     NS sqrt iter    4 1.00000000   0.196E-02       0.002       64.530
     NS sqrt iter    5 1.00000000   0.705E-07       0.002       46.777
     Final NS sqrt iter    5 1.00000000   0.595E-09

     Est. extremal eigenvalues     -0.93748     1.73612  converged:  T
     TRS4 it   1 1.00000000   0.887E+00       0.001       16.128   0.100E-07
     TRS4 it   2 1.00000000   0.629E+00       0.001       32.256   0.100E-07
     TRS4 it   3 1.00000000   0.429E+00       0.001       32.256   0.100E-07
     TRS4 it   4 1.00000000   0.220E+00       0.001       32.256   0.100E-07
     TRS4 it   5 1.00000000   0.722E-01       0.001       26.619   0.100E-07
     TRS4 it   6 1.00000000   0.976E-02       0.001       32.256   0.100E-07
     TRS4 it   7 1.00000000   0.236E-03       0.001       32.256   0.100E-07
     TRS4 it   8 1.00000000   0.192E-06       0.001       32.256   0.100E-07
     TRS4 it   9 1.00000000   0.157E-12       0.001       32.256   0.100E-07
     Final TRS4 iteration    9 1.00000000   0.157E-12
     Chemical potential (mu):       0.01120
 
 PAO| energy:  -7.8072361141593278      penalty:   1.3829526807726276E-005
 PAO|CG| trace_G_new    7.9429741303868565E-005
 PAO|CG| trace_G_prev    2.2199563340774312E-004
 PAO|CG| trace_G_mix    6.9165194574785740E-007
 PAO|CG| trace_D    3.1283947578059838E-004
 PAO|CG| trace_D_Gnew  -3.5153161523257403E-007
 PAO|CG| beta:   0.35468305456937133     
 PAO| norm of gradient:   8.9123364671599200E-003
 PAO| energy improvement:  -4.9409839220970753E-005
 PAO| step     25                   -7.807236114  0.557E-03  0.443E+00     0.083
 PAO|LS| adapt:  T F F
 PAO|LS| adapt: scan_steps:    0.0000000000000000        0.0000000000000000        0.0000000000000000     
 PAO|LS| adapt: energies:   -7.8072361141593278        0.0000000000000000        0.0000000000000000     
 PAO| ======================= Iteration:        26 =============================

     Lanczos converged:  T threshold:   0.100E-02
     Est. extremal eigenvalues:    0.277E+01   0.178E+00
     Est. condition number :    0.156E+02
     NS sqrt iter    1 1.00000000   0.705E+00       0.002       41.211
     NS sqrt iter    2 1.00000000   0.329E+00       0.002       62.671
     NS sqrt iter    3 1.00000000   0.760E-01       0.002       63.243
     NS sqrt iter    4 1.00000000   0.195E-02       0.002       63.459
     NS sqrt iter    5 1.00000000   0.696E-07       0.002       47.515
     Final NS sqrt iter    5 1.00000000   0.593E-09

     Est. extremal eigenvalues     -0.93749     1.73547  converged:  T
     TRS4 it   1 1.00000000   0.887E+00       0.001       16.128   0.100E-07
     TRS4 it   2 1.00000000   0.629E+00       0.001       32.256   0.100E-07
     TRS4 it   3 1.00000000   0.429E+00       0.001       32.256   0.100E-07
     TRS4 it   4 1.00000000   0.220E+00       0.001       32.256   0.100E-07
     TRS4 it   5 1.00000000   0.721E-01       0.001       32.256   0.100E-07
     TRS4 it   6 1.00000000   0.974E-02       0.001       32.256   0.100E-07
     TRS4 it   7 1.00000000   0.235E-03       0.001       32.256   0.100E-07
     TRS4 it   8 1.00000000   0.190E-06       0.001       32.256   0.100E-07
     TRS4 it   9 1.00000000   0.153E-12       0.001       32.256   0.100E-07
     Final TRS4 iteration    9 1.00000000   0.153E-12
     Chemical potential (mu):       0.01130
 
 PAO| energy:  -7.8072400009789211      penalty:   1.3106575506110815E-005
 PAO|LS| adapt:  T T F
 PAO|LS| adapt: scan_steps:    0.0000000000000000       0.44264763152320608        0.0000000000000000     
 PAO|LS| adapt: energies:   -7.8072361141593278       -7.8072400009789211        0.0000000000000000     
 PAO| ======================= Iteration:        27 =============================

     Lanczos converged:  T threshold:   0.100E-02
     Est. extremal eigenvalues:    0.277E+01   0.178E+00
     Est. condition number :    0.155E+02
     NS sqrt iter    1 1.00000000   0.704E+00       0.002       40.789
     NS sqrt iter    2 1.00000000   0.329E+00       0.002       62.132
     NS sqrt iter    3 1.00000000   0.759E-01       0.002       63.224
     NS sqrt iter    4 1.00000000   0.195E-02       0.002       63.544
     NS sqrt iter    5 1.00000000   0.687E-07       0.002       47.224
     Final NS sqrt iter    5 1.00000000   0.588E-09

     Est. extremal eigenvalues     -0.93749     1.73481  converged:  T
     TRS4 it   1 1.00000000   0.887E+00       0.001       16.128   0.100E-07
     TRS4 it   2 1.00000000   0.628E+00       0.001       32.256   0.100E-07
     TRS4 it   3 1.00000000   0.429E+00       0.001       32.256   0.100E-07
     TRS4 it   4 1.00000000   0.220E+00       0.001       32.256   0.100E-07
     TRS4 it   5 1.00000000   0.720E-01       0.001       32.256   0.100E-07
     TRS4 it   6 1.00000000   0.971E-02       0.001       32.256   0.100E-07
     TRS4 it   7 1.00000000   0.234E-03       0.001       32.256   0.100E-07
     TRS4 it   8 1.00000000   0.187E-06       0.001       32.256   0.100E-07
     TRS4 it   9 1.00000000   0.148E-12       0.001       32.256   0.100E-07
     Final TRS4 iteration    9 1.00000000   0.148E-12
     Chemical potential (mu):       0.01140
 
 PAO| energy:  -7.8071811288672990      penalty:   1.2407322900676998E-005
 PAO|LS| adapt:  T T T
 PAO|LS| adapt: scan_steps:    0.0000000000000000       0.44264763152320608       0.88529526304641215     
 PAO|LS| adapt: energies:   -7.8072361141593278       -7.8072400009789211       -7.8071811288672990     
 PAO|LS| adapt: suggested step_size:   0.24873810491229159     
 PAO|LS| adapt: predicted energy  -7.8072460227958187     
 PAO| ======================= Iteration:        28 =============================

     Lanczos converged:  T threshold:   0.100E-02
     Est. extremal eigenvalues:    0.277E+01   0.178E+00
     Est. condition number :    0.156E+02
     NS sqrt iter    1 1.00000000   0.705E+00       0.002       38.699
     NS sqrt iter    2 1.00000000   0.329E+00       0.002       62.966
     NS sqrt iter    3 1.00000000   0.760E-01       0.002       62.653
     NS sqrt iter    4 1.00000000   0.196E-02       0.002       63.657
     NS sqrt iter    5 1.00000000   0.700E-07       0.002       46.786
     Final NS sqrt iter    5 1.00000000   0.596E-09

     Est. extremal eigenvalues     -0.93749     1.73576  converged:  T
     TRS4 it   1 1.00000000   0.887E+00       0.001       16.128   0.100E-07
     TRS4 it   2 1.00000000   0.629E+00       0.001       32.100   0.100E-07
     TRS4 it   3 1.00000000   0.429E+00       0.001       32.256   0.100E-07
     TRS4 it   4 1.00000000   0.220E+00       0.001       32.256   0.100E-07
     TRS4 it   5 1.00000000   0.721E-01       0.001       32.256   0.100E-07
     TRS4 it   6 1.00000000   0.975E-02       0.001       32.256   0.100E-07
     TRS4 it   7 1.00000000   0.236E-03       0.001       31.799   0.100E-07
     TRS4 it   8 1.00000000   0.191E-06       0.001       32.256   0.100E-07
     TRS4 it   9 1.00000000   0.154E-12       0.001       32.256   0.100E-07
     Final TRS4 iteration    9 1.00000000   0.154E-12
     Chemical potential (mu):       0.01126
 
 PAO| energy:  -7.8072460136621240      penalty:   1.3420340943933457E-005
 PAO|CG| trace_G_new    3.1521210330380539E-005
 PAO|CG| trace_G_prev    7.9429741303868565E-005
 PAO|CG| trace_G_mix    4.7961522705166975E-008
 PAO|CG| trace_D    1.1903433361927703E-004
 PAO|CG| trace_D_Gnew  -2.4838389020456251E-008
 PAO|CG| beta:   0.39624010214600169     
 PAO| norm of gradient:   5.6143753285989471E-003
 PAO| energy improvement:  -9.8995027961734650E-006
 PAO| step     28                   -7.807246014  0.351E-03  0.249E+00     0.083
 PAO|LS| adapt:  T F F
 PAO|LS| adapt: scan_steps:    0.0000000000000000        0.0000000000000000        0.0000000000000000     
 PAO|LS| adapt: energies:   -7.8072460136621240        0.0000000000000000        0.0000000000000000     
 PAO| ======================= Iteration:        29 =============================

     Lanczos converged:  T threshold:   0.100E-02
     Est. extremal eigenvalues:    0.277E+01   0.178E+00
     Est. condition number :    0.156E+02
     NS sqrt iter    1 1.00000000   0.705E+00       0.002       40.511
     NS sqrt iter    2 1.00000000   0.329E+00       0.002       64.378
     NS sqrt iter    3 1.00000000   0.760E-01       0.002       64.069
     NS sqrt iter    4 1.00000000   0.195E-02       0.002       63.971
     NS sqrt iter    5 1.00000000   0.696E-07       0.002       44.772
     Final NS sqrt iter    5 1.00000000   0.593E-09

     Est. extremal eigenvalues     -0.93749     1.73552  converged:  T
     TRS4 it   1 1.00000000   0.887E+00       0.001       16.128   0.100E-07
     TRS4 it   2 1.00000000   0.629E+00       0.001       32.256   0.100E-07
     TRS4 it   3 1.00000000   0.429E+00       0.001       32.256   0.100E-07
     TRS4 it   4 1.00000000   0.220E+00       0.001       32.256   0.100E-07
     TRS4 it   5 1.00000000   0.720E-01       0.001       32.256   0.100E-07
     TRS4 it   6 1.00000000   0.972E-02       0.001       32.256   0.100E-07
     TRS4 it   7 1.00000000   0.234E-03       0.001       32.256   0.100E-07
     TRS4 it   8 1.00000000   0.188E-06       0.001       32.256   0.100E-07
     TRS4 it   9 1.00000000   0.150E-12       0.001       32.256   0.100E-07
     Final TRS4 iteration    9 1.00000000   0.150E-12
     Chemical potential (mu):       0.01137
 
 PAO| energy:  -7.8072529153011789      penalty:   1.2991471230688285E-005
 PAO|LS| adapt:  T T F
 PAO|LS| adapt: scan_steps:    0.0000000000000000       0.24873810491229159        0.0000000000000000     
 PAO|LS| adapt: energies:   -7.8072460136621240       -7.8072529153011789        0.0000000000000000     
 PAO| ======================= Iteration:        30 =============================

     Lanczos converged:  T threshold:   0.100E-02
     Est. extremal eigenvalues:    0.277E+01   0.178E+00
     Est. condition number :    0.155E+02
     NS sqrt iter    1 1.00000000   0.704E+00       0.002       39.580
     NS sqrt iter    2 1.00000000   0.329E+00       0.002       61.863
     NS sqrt iter    3 1.00000000   0.759E-01       0.002       61.990
     NS sqrt iter    4 1.00000000   0.195E-02       0.002       62.394
     NS sqrt iter    5 1.00000000   0.692E-07       0.002       46.645
     Final NS sqrt iter    5 1.00000000   0.590E-09

     Est. extremal eigenvalues     -0.93749     1.73528  converged:  T
     TRS4 it   1 1.00000000   0.887E+00       0.001       16.128   0.100E-07
     TRS4 it   2 1.00000000   0.629E+00       0.001       32.256   0.100E-07
     TRS4 it   3 1.00000000   0.429E+00       0.001       32.256   0.100E-07
     TRS4 it   4 1.00000000   0.220E+00       0.001       32.256   0.100E-07
     TRS4 it   5 1.00000000   0.719E-01       0.001       32.256   0.100E-07
     TRS4 it   6 1.00000000   0.970E-02       0.001       32.256   0.100E-07
     TRS4 it   7 1.00000000   0.233E-03       0.001       32.256   0.100E-07
     TRS4 it   8 1.00000000   0.186E-06       0.001       32.256   0.100E-07
     TRS4 it   9 1.00000000   0.146E-12       0.001       32.256   0.100E-07
     Final TRS4 iteration    9 1.00000000   0.146E-12
     Chemical potential (mu):       0.01150
 
 PAO| energy:  -7.8072579345414121      penalty:   1.2570357716980838E-005
 PAO|LS| adapt:  T T F
 PAO|LS| adapt: scan_steps:    0.0000000000000000       0.49747620982458318        0.0000000000000000     
 PAO|LS| adapt: energies:   -7.8072460136621240       -7.8072579345414121        0.0000000000000000     
 PAO| ======================= Iteration:        31 =============================

     Lanczos converged:  T threshold:   0.100E-02
     Est. extremal eigenvalues:    0.277E+01   0.178E+00
     Est. condition number :    0.155E+02
     NS sqrt iter    1 1.00000000   0.704E+00       0.002       38.258
     NS sqrt iter    2 1.00000000   0.329E+00       0.002       63.088
     NS sqrt iter    3 1.00000000   0.758E-01       0.002       62.934
     NS sqrt iter    4 1.00000000   0.194E-02       0.002       62.733
     NS sqrt iter    5 1.00000000   0.685E-07       0.002       47.607
     Final NS sqrt iter    5 1.00000000   0.584E-09

     Est. extremal eigenvalues     -0.93749     1.73480  converged:  T
     TRS4 it   1 1.00000000   0.887E+00       0.001       16.128   0.100E-07
     TRS4 it   2 1.00000000   0.628E+00       0.001       32.256   0.100E-07
     TRS4 it   3 1.00000000   0.429E+00       0.001       32.256   0.100E-07
     TRS4 it   4 1.00000000   0.220E+00       0.001       32.256   0.100E-07
     TRS4 it   5 1.00000000   0.717E-01       0.001       32.256   0.100E-07
     TRS4 it   6 1.00000000   0.965E-02       0.001       32.256   0.100E-07
     TRS4 it   7 1.00000000   0.230E-03       0.001       32.256   0.100E-07
     TRS4 it   8 1.00000000   0.181E-06       0.001       32.256   0.100E-07
     TRS4 it   9 1.00000000   0.139E-12       0.001       32.256   0.100E-07
     Final TRS4 iteration    9 1.00000000   0.139E-12
     Chemical potential (mu):       0.01174
 
 PAO| energy:  -7.8072623267415588      penalty:   1.1751244543879068E-005
 PAO|LS| Need extra step
 PAO|LS| adapt:  T T F
 PAO|LS| adapt: scan_steps:    0.0000000000000000       0.99495241964916636        0.0000000000000000     
 PAO|LS| adapt: energies:   -7.8072460136621240       -7.8072623267415588        0.0000000000000000     
 PAO| ======================= Iteration:        32 =============================

     Lanczos converged:  T threshold:   0.100E-02
     Est. extremal eigenvalues:    0.276E+01   0.178E+00
     Est. condition number :    0.155E+02
     NS sqrt iter    1 1.00000000   0.703E+00       0.002       39.437
     NS sqrt iter    2 1.00000000   0.328E+00       0.002       59.575
     NS sqrt iter    3 1.00000000   0.755E-01       0.002       61.473
     NS sqrt iter    4 1.00000000   0.193E-02       0.002       63.017
     NS sqrt iter    5 1.00000000   0.670E-07       0.002       47.818
     Final NS sqrt iter    5 1.00000000   0.593E-09

     Est. extremal eigenvalues     -0.93750     1.73382  converged:  T
     TRS4 it   1 1.00000000   0.887E+00       0.001       16.128   0.100E-07
     TRS4 it   2 1.00000000   0.628E+00       0.001       32.256   0.100E-07
     TRS4 it   3 1.00000000   0.428E+00       0.001       32.256   0.100E-07
     TRS4 it   4 1.00000000   0.219E+00       0.001       32.256   0.100E-07
     TRS4 it   5 1.00000000   0.714E-01       0.001       32.256   0.100E-07
     TRS4 it   6 1.00000000   0.955E-02       0.001       32.256   0.100E-07
     TRS4 it   7 1.00000000   0.225E-03       0.001       32.256   0.100E-07
     TRS4 it   8 1.00000000   0.173E-06       0.001       32.256   0.100E-07
     TRS4 it   9 1.00000000   0.125E-12       0.001       32.256   0.100E-07
     Final TRS4 iteration    9 1.00000000   0.125E-12
     Chemical potential (mu):       0.01222
 
 PAO| energy:  -7.8072485261828524      penalty:   1.0204400855850425E-005
 PAO|LS| Need extra step
 PAO|LS| adapt:  T T T
 PAO|LS| adapt: scan_steps:    0.0000000000000000       0.99495241964916636        1.9899048392983327     
 PAO|LS| adapt: energies:   -7.8072460136621240       -7.8072623267415588       -7.8072485261828524     
 PAO|LS| adapt: suggested step_size:    1.0364591709485069     
 PAO|LS| adapt: predicted energy  -7.8072623529454681     
 PAO| ======================= Iteration:        33 =============================

     Lanczos converged:  T threshold:   0.100E-02
     Est. extremal eigenvalues:    0.277E+01   0.178E+00
     Est. condition number :    0.155E+02
     NS sqrt iter    1 1.00000000   0.704E+00       0.002       39.836
     NS sqrt iter    2 1.00000000   0.329E+00       0.002       64.679
     NS sqrt iter    3 1.00000000   0.758E-01       0.002       63.627
     NS sqrt iter    4 1.00000000   0.194E-02       0.002       63.320
     NS sqrt iter    5 1.00000000   0.684E-07       0.002       46.122
     Final NS sqrt iter    5 1.00000000   0.593E-09

     Est. extremal eigenvalues     -0.93749     1.73476  converged:  T
     TRS4 it   1 1.00000000   0.887E+00       0.001       16.128   0.100E-07
     TRS4 it   2 1.00000000   0.628E+00       0.001       32.256   0.100E-07
     TRS4 it   3 1.00000000   0.429E+00       0.001       32.256   0.100E-07
     TRS4 it   4 1.00000000   0.220E+00       0.008        4.058   0.100E-07
     TRS4 it   5 1.00000000   0.717E-01       0.001       30.471   0.100E-07
     TRS4 it   6 1.00000000   0.964E-02       0.001       30.263   0.100E-07
[...]
     NS sqrt iter    3 1.00000000   0.482E-01       0.001       91.510
     NS sqrt iter    4 1.00000000   0.740E-03       0.001       85.790
     NS sqrt iter    5 1.00000000   0.532E-08       0.001       36.051
     Final NS sqrt iter    5 1.00000000   0.316E-09

     Est. extremal eigenvalues     -0.93718     1.62871  converged:  T
     TRS4 it   1 1.00000000   0.880E+00       0.000       16.128   0.100E-07
     TRS4 it   2 1.00000000   0.633E+00       0.001       32.256   0.100E-07
     TRS4 it   3 1.00000000   0.454E+00       0.001       32.256   0.100E-07
     TRS4 it   4 1.00000000   0.277E+00       0.001       32.256   0.100E-07
     TRS4 it   5 1.00000000   0.137E+00       0.001       32.256   0.100E-07
     TRS4 it   6 1.00000000   0.426E-01       0.001       32.256   0.100E-07
     TRS4 it   7 1.00000000   0.577E-02       0.001       32.256   0.100E-07
     TRS4 it   8 1.00000000   0.141E-03       0.001       32.256   0.100E-07
     TRS4 it   9 1.00000000   0.893E-07       0.001       32.256   0.100E-07
     TRS4 it  10 1.00000000   0.360E-13       0.001       32.256   0.100E-07
     Final TRS4 iteration   10 1.00000000   0.360E-13
     Chemical potential (mu):      -0.07543
 
 PAO| energy:  -7.8063140416418069      penalty:   2.2876790021960917E-008
 PAO|LS| Need extra step
 PAO|LS| adapt:  T T T
 PAO|LS| adapt: scan_steps:    0.0000000000000000       0.20000000000000001       0.40000000000000002     
 PAO|LS| adapt: energies:   -7.8063140379559943       -7.8063140427847770       -7.8063140416418069     
 PAO|LS| adapt: suggested step_size:   0.26172078155796402     
 PAO|LS| adapt: predicted energy  -7.8063140430691407     
 PAO| ======================= Iteration:       430 =============================

     Lanczos converged:  T threshold:   0.100E-02
     Est. extremal eigenvalues:    0.248E+01   0.191E+00
     Est. condition number :    0.130E+02
     NS sqrt iter    1 1.00000000   0.630E+00       0.002       38.462
     NS sqrt iter    2 1.00000000   0.274E+00       0.002       66.054
     NS sqrt iter    3 1.00000000   0.482E-01       0.001       73.744
     NS sqrt iter    4 1.00000000   0.740E-03       0.001       84.581
     NS sqrt iter    5 1.00000000   0.532E-08       0.001       38.144
     Final NS sqrt iter    5 1.00000000   0.316E-09

     Est. extremal eigenvalues     -0.93718     1.62870  converged:  T
     TRS4 it   1 1.00000000   0.880E+00       0.000       16.128   0.100E-07
     TRS4 it   2 1.00000000   0.633E+00       0.001       32.256   0.100E-07
     TRS4 it   3 1.00000000   0.454E+00       0.001       32.256   0.100E-07
     TRS4 it   4 1.00000000   0.277E+00       0.001       32.256   0.100E-07
     TRS4 it   5 1.00000000   0.137E+00       0.001       32.256   0.100E-07
     TRS4 it   6 1.00000000   0.426E-01       0.001       32.256   0.100E-07
     TRS4 it   7 1.00000000   0.577E-02       0.001       32.256   0.100E-07
     TRS4 it   8 1.00000000   0.141E-03       0.001       32.256   0.100E-07
     TRS4 it   9 1.00000000   0.893E-07       0.001       32.256   0.100E-07
     TRS4 it  10 1.00000000   0.361E-13       0.001       32.256   0.100E-07
     Final TRS4 iteration   10 1.00000000   0.361E-13
     Chemical potential (mu):      -0.07543
 
 PAO| energy:  -7.8063140430691478      penalty:   2.3134544117285061E-008
 PAO|CG| warming up with steepest descent
 PAO|CG| beta:    0.0000000000000000     
 PAO| norm of gradient:   1.2812014392580651E-004
 PAO| energy improvement:  -5.1131534561932312E-009
 PAO| step    430                   -7.806314043  0.801E-05  0.262E+00     0.089
 PAO| converged after          430  steps :-)
 PAO| Recalculating energy after mixing.

     Lanczos converged:  T threshold:   0.100E-02
     Est. extremal eigenvalues:    0.248E+01   0.191E+00
     Est. condition number :    0.130E+02
     NS sqrt iter    1 1.00000000   0.630E+00       0.001       48.824
     NS sqrt iter    2 1.00000000   0.274E+00       0.001       88.727
     NS sqrt iter    3 1.00000000   0.482E-01       0.002       67.731
     NS sqrt iter    4 1.00000000   0.740E-03       0.001       75.743
     NS sqrt iter    5 1.00000000   0.532E-08       0.001       33.657
     Final NS sqrt iter    5 1.00000000   0.316E-09

     Est. extremal eigenvalues     -0.93718     1.62870  converged:  T
     TRS4 it   1 1.00000000   0.880E+00       0.000       16.128   0.100E-07
     TRS4 it   2 1.00000000   0.633E+00       0.001       32.256   0.100E-07
     TRS4 it   3 1.00000000   0.454E+00       0.001       32.256   0.100E-07
     TRS4 it   4 1.00000000   0.277E+00       0.001       32.256   0.100E-07
     TRS4 it   5 1.00000000   0.137E+00       0.001       32.256   0.100E-07
     TRS4 it   6 1.00000000   0.426E-01       0.001       32.256   0.100E-07
     TRS4 it   7 1.00000000   0.577E-02       0.001       32.256   0.100E-07
     TRS4 it   8 1.00000000   0.141E-03       0.001       32.256   0.100E-07
     TRS4 it   9 1.00000000   0.893E-07       0.001       32.256   0.100E-07
     TRS4 it  10 1.00000000   0.360E-13       0.001       32.256   0.100E-07
     Final TRS4 iteration   10 1.00000000   0.360E-13
     Chemical potential (mu):      -0.07543
 
 PAO| energy:  -7.8063140417908485      penalty:   2.3379794758494478E-008
 PAO| Writing restart file.
     Est. extremal eigenvalues     -0.93718     1.62870  converged:  T
     TRS4 it   1 1.00000000   0.880E+00       0.001       16.128   0.100E-07
     TRS4 it   2 1.00000000   0.633E+00       0.001       32.256   0.100E-07
     TRS4 it   3 1.00000000   0.454E+00       0.001       32.256   0.100E-07
     TRS4 it   4 1.00000000   0.277E+00       0.001       32.256   0.100E-07
     TRS4 it   5 1.00000000   0.137E+00       0.001       32.256   0.100E-07
     TRS4 it   6 1.00000000   0.426E-01       0.001       32.256   0.100E-07
     TRS4 it   7 1.00000000   0.577E-02       0.001       32.256   0.100E-07
     TRS4 it   8 1.00000000   0.141E-03       0.001       32.256   0.100E-07
     TRS4 it   9 1.00000000   0.893E-07       0.001       32.256   0.100E-07
     TRS4 it  10 1.00000000   0.360E-13       0.001       32.256   0.100E-07
     Final TRS4 iteration   10 1.00000000   0.360E-13
     Chemical potential (mu):      -0.07543

 SCF     1       -34.450022862       -34.450022862    2.063650

*********************************************************
 Using MIXING_FRACTION=0.450 to mix KS matrix:  iscf=  2
 KS_nw=0.450*KS + 0.550*KS_old
*********************************************************
     Est. extremal eigenvalues     -0.93718     1.62870  converged:  T
     TRS4 it   1 1.00000000   0.880E+00       0.001       16.128   0.100E-07
     TRS4 it   2 1.00000000   0.633E+00       0.001       32.256   0.100E-07
     TRS4 it   3 1.00000000   0.454E+00       0.001       32.256   0.100E-07
     TRS4 it   4 1.00000000   0.277E+00       0.001       32.256   0.100E-07
     TRS4 it   5 1.00000000   0.137E+00       0.001       32.256   0.100E-07
     TRS4 it   6 1.00000000   0.426E-01       0.001       32.256   0.100E-07
     TRS4 it   7 1.00000000   0.577E-02       0.001       32.256   0.100E-07
     TRS4 it   8 1.00000000   0.141E-03       0.013        2.492   0.100E-07
     TRS4 it   9 1.00000000   0.893E-07       0.001       32.256   0.100E-07
     TRS4 it  10 1.00000000   0.359E-13       0.001       32.256   0.100E-07
     Final TRS4 iteration   10 1.00000000   0.359E-13
     Chemical potential (mu):      -0.07543

 SCF     2       -34.450022862        -0.000000000    2.309729

 PAO| Storing density matrix for ASPC guess in slot:           1

 ENERGY| Total FORCE_EVAL ( QS ) energy (a.u.):              -34.450022862144579


 -------------------------------------------------------------------------------
 -                                                                             -
 -                                DBCSR STATISTICS                             -
 -                                                                             -
 -------------------------------------------------------------------------------
 COUNTER                                    TOTAL       BLAS       SMM       ACC
 flops     5 x     5 x     4                20000     100.0%      0.0%      0.0%
 flops    13 x     5 x     4                20800     100.0%      0.0%      0.0%
 flops     5 x    13 x     4                20800     100.0%      0.0%      0.0%
 flops    13 x    13 x     4                40560     100.0%      0.0%      0.0%
 flops     4 x     4 x     5              3375360     100.0%      0.0%      0.0%
 flops     5 x     4 x     5              4118400     100.0%      0.0%      0.0%
 flops     4 x     4 x    13              4387968     100.0%      0.0%      0.0%
 flops    13 x     4 x     5              5353920     100.0%      0.0%      0.0%
 flops     5 x     4 x    13              5353920     100.0%      0.0%      0.0%
 flops     5 x     4 x     4              6550720     100.0%      0.0%      0.0%
 flops    13 x     4 x    13              6960096     100.0%      0.0%      0.0%
 flops    13 x     4 x     4              8696480     100.0%      0.0%      0.0%
 flops     4 x     4 x     4            435416704     100.0%      0.0%      0.0%
 flops inhomo. stacks                           0       0.0%      0.0%      0.0%
 flops total                       480.315728E+06     100.0%      0.0%      0.0%
 flops max/rank                    480.315728E+06     100.0%      0.0%      0.0%
 matmuls inhomo. stacks                         0       0.0%      0.0%      0.0%
 matmuls total                            3541726     100.0%      0.0%      0.0%
 number of processed stacks                 28245     100.0%      0.0%      0.0%
 average stack size                                   125.4       0.0       0.0
 marketing flops                   780.851136E+06
 -------------------------------------------------------------------------------
 # multiplications                          23586
 max memory usage/rank             329.981952E+06
 # max total images/rank                        1
 # max 3D layers                                1
 # MPI messages exchanged                       0
 MPI messages size (bytes):
  total size                         0.000000E+00
  min size                           0.000000E+00
  max size                           0.000000E+00
  average size                       0.000000E+00
 MPI breakdown and total messages size (bytes):
             size <=      128                   0                        0
       128 < size <=     8192                   0                        0
      8192 < size <=    32768                   0                        0
     32768 < size <=   131072                   0                        0
    131072 < size <=  4194304                   0                        0
   4194304 < size <= 16777216                   0                        0
  16777216 < size                               0                        0
 -------------------------------------------------------------------------------

 MEMORY| Estimated peak process memory [MiB]                                 315

 -------------------------------------------------------------------------------
 -                                                                             -
 -                           R E F E R E N C E S                               -
 -                                                                             -
 -------------------------------------------------------------------------------
 
 CP2K version 7.0 (Development Version), the CP2K developers group (2018).
 CP2K is freely available from https://www.cp2k.org/ .

 Schuett, O; VandeVondele, J. 
 Journal of Chemical Theory and Computation, 14, (2018). 
 Machine Learning Adaptive Basis Sets for Efficient Large Scale Density Functional Theory Simulation.
 https://dx.doi.org/10.1021/acs.jctc.8b00378


 Schuett, Ole; Messmer, Peter; Hutter, Juerg; VandeVondele, Joost. 
 Electronic Structure Calculations on Graphics Processing Units, John Wiley & Sons, Ltd, 173-190 (2016). 
 GPU-Accelerated Sparse Matrix-Matrix Multiplication for Linear Scaling Density Functional Theory.
 https://dx.doi.org/10.1002/9781118670712.ch8


 Borstnik, U; VandeVondele, J; Weber, V; Hutter, J. 
 PARALLEL COMPUTING, 40 (5-6), 47-58 (2014). 
 Sparse matrix multiplication: The distributed block-compressed sparse
 row library.
 https://dx.doi.org/10.1016/j.parco.2014.03.012


 Hutter, J; Iannuzzi, M; Schiffmann, F; VandeVondele, J. 
 WILEY INTERDISCIPLINARY REVIEWS-COMPUTATIONAL MOLECULAR SCIENCE, 4 (1), 15-25 (2014). 
 CP2K: atomistic simulations of condensed matter systems.
 https://dx.doi.org/10.1002/wcms.1159


 VandeVondele, J; Borstnik, U; Hutter, J. 
 JOURNAL OF CHEMICAL THEORY AND COMPUTATION, 8 (10), 3565-3573 (2012). 
 Linear Scaling Self-Consistent Field Calculations with Millions of Atoms
 in the Condensed Phase.
 https://dx.doi.org/10.1021/ct200897x


 VandeVondele, J; Hutter, J. 
 JOURNAL OF CHEMICAL PHYSICS, 127 (11), 114105 (2007). 
 Gaussian basis sets for accurate calculations on molecular systems in
 gas and condensed phases.
 https://dx.doi.org/10.1063/1.2770708


 Krack, M. 
 THEORETICAL CHEMISTRY ACCOUNTS, 114 (1-3), 145-152 (2005). 
 Pseudopotentials for H to Kr optimized for gradient-corrected
 exchange-correlation functionals.
 https://dx.doi.org/10.1007/s00214-005-0655-y


 VandeVondele, J; Krack, M; Mohamed, F; Parrinello, M; Chassaing, T;
 Hutter, J. COMPUTER PHYSICS COMMUNICATIONS, 167 (2), 103-128 (2005). 
 QUICKSTEP: Fast and accurate density functional calculations using a
 mixed Gaussian and plane waves approach.
 https://dx.doi.org/10.1016/j.cpc.2004.12.014


 Frigo, M; Johnson, SG. 
 PROCEEDINGS OF THE IEEE, 93 (2), 216-231 (2005). 
 The design and implementation of FFTW3.
 https://dx.doi.org/10.1109/JPROC.2004.840301


 Niklasson, AMN; Tymczak, CJ; Challacombe, M. 
 JOURNAL OF CHEMICAL PHYSICS, 118 (19), 8611-8620 (2003). 
 Trace resetting density matrix purification in O(N)
 self-consistent-field theory.
 https://dx.doi.org/10.1063/1.1559913


 Hartwigsen, C; Goedecker, S; Hutter, J. 
 PHYSICAL REVIEW B, 58 (7), 3641-3662 (1998). 
 Relativistic separable dual-space Gaussian pseudopotentials from H to Rn.
 https://dx.doi.org/10.1103/PhysRevB.58.3641


 Lippert, G; Hutter, J; Parrinello, M. 
 MOLECULAR PHYSICS, 92 (3), 477-487 (1997). 
 A hybrid Gaussian and plane wave density functional scheme.
 https://dx.doi.org/10.1080/002689797170220


 Perdew, JP; Burke, K; Ernzerhof, M. 
 PHYSICAL REVIEW LETTERS, 77 (18), 3865-3868 (1996). 
 Generalized gradient approximation made simple.
 https://dx.doi.org/10.1103/PhysRevLett.77.3865


 Goedecker, S; Teter, M; Hutter, J. 
 PHYSICAL REVIEW B, 54 (3), 1703-1710 (1996). 
 Separable dual-space Gaussian pseudopotentials.
 https://dx.doi.org/10.1103/PhysRevB.54.1703


 -------------------------------------------------------------------------------
 -                                                                             -
 -                                T I M I N G                                  -
 -                                                                             -
 -------------------------------------------------------------------------------
 SUBROUTINE                       CALLS  ASD         SELF TIME        TOTAL TIME
                                MAXIMUM       AVERAGE  MAXIMUM  AVERAGE  MAXIMUM
 CP2K                                 1  1.0    0.037    0.037   36.433   36.433
 qs_energies                          1  2.0    0.000    0.000   35.845   35.845
 ls_scf                               1  3.0    0.000    0.000   35.668   35.668
 ls_scf_main                          4  4.0    0.001    0.001   20.877   20.877
 ls_scf_dm_to_ks                      9  5.0    0.000    0.000   20.743   20.743
 qs_ks_update_qs_env                 10  6.0    0.000    0.000   16.360   16.360
 rebuild_ks_matrix                   10  7.0    0.000    0.000   16.360   16.360
 qs_ks_build_kohn_sham_matrix        10  8.0    0.001    0.001   16.360   16.360
 pao_update                           4  4.0    0.012    0.012   12.233   12.233
 pao_calc_energy                    433  5.0    0.005    0.005   11.030   11.030
 qs_vxc_create                       10  9.0    0.000    0.000    9.852    9.852
 xc_vxc_pw_create                    10 10.0    0.116    0.116    9.852    9.852
 dbcsr_multiply_generic           23586  8.4    0.564    0.564    9.497    9.497
 xc_rho_set_and_dset_create          10 11.0    0.036    0.036    7.075    7.075
 pw_transfer                        191 10.6    0.014    0.014    6.881    6.881
 qs_rho_update_rho                   10  6.0    0.000    0.000    6.820    6.820
 calculate_rho_elec                  10  7.0    5.319    5.319    6.820    6.820
 fft_wrap_pw1pw2                    171 11.7    0.002    0.002    6.771    6.771
 fft_wrap_pw1pw2_200                111 12.8    0.351    0.351    6.472    6.472
 pao_dm_trs4                        433  6.0    0.004    0.004    5.698    5.698
 density_matrix_trs4                442  7.0    0.204    0.204    5.507    5.507
 sum_up_and_integrate                10  9.0    0.020    0.020    5.503    5.503
 integrate_v_rspace                  10 10.0    4.719    4.719    5.483    5.483
 ls_scf_init_matrix_S               437  7.0    0.004    0.004    5.357    5.357
 pao_rebuild_S                      433  6.0    0.003    0.003    5.281    5.281
 xc_functional_eval                  10 12.0    0.000    0.000    4.953    4.953
 pbe_lda_eval                        10 13.0    4.953    4.953    4.953    4.953
 matrix_sqrt_Newton_Schulz          437  8.0    0.128    0.128    4.840    4.840
 multiply_cannon                  23586  9.4    1.491    1.491    4.464    4.464
 fft3d_s                            172 13.6    3.609    3.609    3.626    3.626
 make_m2s                         47172  9.4    0.220    0.220    3.009    3.009
 make_images                      47172 10.4    0.709    0.709    2.651    2.651
 pao_guess_initial_P                  1  4.0    0.000    0.000    2.444    2.444
 pao_read_preopt_dm                   1  5.0    0.000    0.000    2.444    2.444
 multiply_cannon_multrec          23586 10.4    1.596    1.596    1.743    1.743
 pw_gather_s                         81 13.1    1.640    1.640    1.640    1.640
 density_rs2pw                       10  8.0    0.001    0.001    1.487    1.487
 arnoldi_extremal                   879  8.5    0.005    0.005    1.331    1.331
 arnoldi_normal_ev                  879  9.5    0.015    0.015    1.326    1.326
 pao_calc_AB                        570  5.8    0.001    0.001    1.181    1.181
 pao_calc_AB_direct                 570  6.8    0.033    0.033    1.180    1.180
 pw_scatter_s                        90 14.2    1.139    1.139    1.139    1.139
 pao_calc_grad_lnv_wrt_AB           136  7.0    0.009    0.009    1.112    1.112
 build_subspace                     879 10.5    0.067    0.067    0.986    0.986
 dbcsr_matrix_vector_mult         21065 11.5    0.133    0.133    0.887    0.887
 dbcsr_finalize                   56140  9.6    0.140    0.140    0.871    0.871
 dbcsr_create_new                180385 10.7    0.419    0.419    0.846    0.846
 potential_pw2rs                     10 11.0    0.003    0.003    0.763    0.763
 -------------------------------------------------------------------------------

 The number of warnings for this run is : 0
 
 -------------------------------------------------------------------------------
  **** **** ******  **  PROGRAM ENDED AT                 2019-03-28 17:33:29.548
 ***** ** ***  *** **   PROGRAM RAN ON            oleschuett.zrh.corp.google.com
 **    ****   ******    PROGRAM RAN BY                                oleschuett
 ***** **    ** ** **   PROGRAM PROCESS ID                                 32400
  **** **  *******  **  PROGRAM STOPPED IN /usr/local/google/home/oleschuett/git
                                           /pao_ml_equivar/2H2O_rotations/phi_21
