 DBCSR| CPU Multiplication driver                                           XSMM (U)
 DBCSR| Multrec recursion limit                                              512 (U)
 DBCSR| Multiplication stack size                                           1000 (D)
 DBCSR| Maximum elements for images                                    UNLIMITED (U)
 DBCSR| Multiplicative factor virtual images                                   1 (U)
 DBCSR| Use multiplication densification                                       T (D)
 DBCSR| Multiplication size stacks                                             3 (U)
 DBCSR| Use memory pool for CPU allocation                                     F (U)
 DBCSR| Number of 3D layers                                               SINGLE (U)
 DBCSR| Use MPI memory allocation                                              F (U)
 DBCSR| Use RMA algorithm                                                      F (U)
 DBCSR| Use Communication thread                                               T (U)
 DBCSR| Communication thread load                                             87 (D)
 DBCSR| MPI: My process id                                                     0
 DBCSR| MPI: Number of processes                                              32
 DBCSR| OMP: Current number of threads                                         1
 DBCSR| OMP: Max number of threads                                             1
 DBCSR| Split modifier for TAS multiplication algorithm                  1.0E+00 (U)


  **** **** ******  **  PROGRAM STARTED AT               2024-09-23 17:53:03.242
 ***** ** ***  *** **   PROGRAM STARTED ON                                moritz
 **    ****   ******    PROGRAM STARTED BY                                   ole
 ***** **    ** ** **   PROGRAM PROCESS ID                                161193
  **** **  *******  **  PROGRAM STARTED IN /home/ole/git/pao_ml_equivar/64H2O_MD
                                           /Frame6600

 CP2K| version string:                 CP2K version 2024.3 (Development Version)
 CP2K| source code revision number:                                  git:3f890bb
 CP2K| cp2kflags: omp libint fftw3 libxc libgrpp pexsi elpa parallel scalapack c
 CP2K|            osma quip deepmd xsmm plumed2 spglib libdftd4 sirius libvori l
 CP2K|            libbqb libvdwxc hdf5
 CP2K| is freely available from                            https://www.cp2k.org/
 CP2K| Program compiled at                          Mo 23 Sep 2024 17:17:04 CEST
 CP2K| Program compiled on                                                moritz
 CP2K| Program compiled for                                                local
 CP2K| Data directory path                               /home/ole/git/cp2k/data
 CP2K| Input file name                                             64H2O_ref.inp

 GLOBAL| Force Environment number                                              1
 GLOBAL| Basis set file name                                        BASIS_MOLOPT
 GLOBAL| Potential file name                                      GTH_POTENTIALS
 GLOBAL| MM Potential file name                                     MM_POTENTIAL
 GLOBAL| Coordinate file name                                         coords.xyz
 GLOBAL| Method name                                                        CP2K
 GLOBAL| Project name                                                  64H2O_ref
 GLOBAL| Run type                                                         ENERGY
 GLOBAL| FFT library                                                       FFTW3
 GLOBAL| Diagonalization library                                            ELPA
 GLOBAL| DGEMM library                                                      BLAS
 GLOBAL| Minimum number of eigenvectors for ELPA usage                        16
 GLOBAL| Orthonormality check for eigenvectors                          DISABLED
 GLOBAL| Matrix multiplication library                                     COSMA
 GLOBAL| All-to-all communication in single precision                          F
 GLOBAL| FFTs using library dependent lengths                                  F
 GLOBAL| Grid backend                                                       AUTO
 GLOBAL| Global print level                                                  LOW
 GLOBAL| MPI I/O enabled                                                       T
 GLOBAL| Total number of message passing processes                            32
 GLOBAL| Number of threads for this process                                    1
 GLOBAL| This output is from process                                           0
 GLOBAL| Stack size for threads created by OpenMP (OMP_STACKSIZE)        default
 GLOBAL| CPU model name           AMD Ryzen Threadripper 3970X 32-Core Processor
 GLOBAL| CPUID                                                              1002

 MEMORY| system memory details [Kb]
 MEMORY|                        rank 0           min           max       average
 MEMORY| MemTotal            131752136     131752136     131752136     131752136
 MEMORY| MemFree             117728280     117728280     117728280     117728280
 MEMORY| Buffers                261108        261108        261108        261108
 MEMORY| Cached                7840860       7840860       7840864       7840863
 MEMORY| Slab                   733932        733932        733932        733932
 MEMORY| SReclaimable           291948        291948        291948        291948
 MEMORY| MemLikelyFree       126122196     126122196     126122200     126122199


 GENERATE|  Preliminary Number of Bonds generated:                             0
 GENERATE|  Achieved consistency in connectivity generation.

 *******************************************************************************
 *******************************************************************************
 **                                                                           **
 **     #####                         ##              ##                      **
 **    ##   ##            ##          ##              ##                      **
 **   ##     ##                       ##            ######                    **
 **   ##     ##  ##   ##  ##   #####  ##  ##   ####   ##    #####    #####    **
 **   ##     ##  ##   ##  ##  ##      ## ##   ##      ##   ##   ##  ##   ##   **
 **   ##  ## ##  ##   ##  ##  ##      ####     ###    ##   ######   ######    **
 **    ##  ###   ##   ##  ##  ##      ## ##      ##   ##   ##       ##        **
 **     #######   #####   ##   #####  ##  ##  ####    ##    #####   ##        **
 **           ##                                                    ##        **
 **                                                                           **
 **                                                ... make the atoms dance   **
 **                                                                           **
 **            Copyright (C) by CP2K developers group (2000-2024)             **
 **                      J. Chem. Phys. 152, 194103 (2020)                    **
 **                                                                           **
 *******************************************************************************


 TOTAL NUMBERS AND MAXIMUM NUMBERS

  Total number of            - Atomic kinds:                                   2
                             - Atoms:                                        192
                             - Shell sets:                                   192
                             - Shells:                                       704
                             - Primitive Cartesian functions:               1344
                             - Cartesian basis functions:                   1536
                             - Spherical basis functions:                   1472

  Maximum angular momentum of- Orbital basis functions:                        2
                             - Local part of the GTH pseudopotential:          2
                             - Non-local part of the GTH pseudopotential:      0

 ------------------------------ Linear scaling SCF -----------------------------
 eps_scf:                                                              0.100E-07
 eps_filter:                                                           0.100E-11
 mixing_fraction:                                                      0.450E+00
 max_scf:                                                                     25
 fixed chemical potential (mu)                                                 F
 has unit metric:                                                              F
 Computing inv(S):                                                             T
 Computing sqrt(S):                                                            T
 Computing S preconditioner                                                    F
 S sqrt method:                                                     NEWTONSCHULZ
 S sqrt order:                                                                 3
 Extrapolation order:                                                          1
 S preconditioner type                                                      NONE
 Polarized Atomic Orbitals (PAO)                                               F
 Purification method                                   Trace resetting 4th order
 Cluster type                                                             ATOMIC
 Computing Chebyshev                                                       FALSE
 Using PAO                                                                     F
 -------------------------------------------------------------------------------


     Lanczos converged:  F threshold:   0.100E-02
     Est. extremal eigenvalues:    0.856E+01   0.551E-02
     Est. condition number :    0.155E+04

 Order=           3
     NS sqrt iter    1 1.00000000   0.221E+01       0.065     6175.500
     NS sqrt iter    2 1.00000000   0.116E+01       0.099     8025.361
     NS sqrt iter    3 1.00000000   0.575E+00       0.100     8013.191
     NS sqrt iter    4 1.00000000   0.332E+00       0.099     8092.953
     NS sqrt iter    5 1.00000000   0.224E+00       0.100     7998.545
     NS sqrt iter    6 1.00000000   0.103E+00       0.100     8010.510
     NS sqrt iter    7 1.00000000   0.123E-01       0.099     8028.934
     NS sqrt iter    8 1.00000000   0.540E-04       0.101     7917.351
     NS sqrt iter    9 1.00000000   0.191E-10       0.059     5631.205
     Symmetrizing Results
     Final NS sqrt iter    9 1.00000000   0.772E-11



 Guess for atomic kind: O

 Electronic structure
    Total number of core electrons                                          2.00
    Total number of valence electrons                                       6.00
    Total number of electrons                                               8.00
    Multiplicity                                                   not specified
    S   [  2.00] 2.00
    P      4.00


 *******************************************************************************
                  Iteration          Convergence                     Energy [au]
 *******************************************************************************
                          1        0.708315                     -15.576645311500
                          2        0.608879                     -15.587933561584
                          3        0.102828E-01                 -15.656849565404
                          4        0.113889E-02                 -15.656866888140
                          5        0.434197E-03                 -15.656867072159
                          6        0.263771E-03                 -15.656867091904
                          7        0.478536E-06                 -15.656867103452

 Energy components [Hartree]           Total Energy ::          -15.656867103452
                                        Band Energy ::           -3.000198112285
                                     Kinetic Energy ::           11.759971203220
                                   Potential Energy ::          -27.416838306672
                                      Virial (-V/T) ::            2.331369510426
                                        Core Energy ::          -26.140716385623
                                          XC Energy ::           -3.154051012914
                                     Coulomb Energy ::           13.637900295084
                       Total Pseudopotential Energy ::          -37.935781716540
                       Local Pseudopotential Energy ::          -39.218907440693
                    Nonlocal Pseudopotential Energy ::            1.283125724153
                                        Confinement ::            0.350941276976

 Orbital energies  State     L     Occupation   Energy[a.u.]          Energy[eV]

                       1     0          2.000      -0.864471          -23.523463

                       1     1          4.000      -0.317814           -8.648154


 Total Electron Density at R=0:                                         0.000068

 Guess for atomic kind: H

 Electronic structure
    Total number of core electrons                                          0.00
    Total number of valence electrons                                       1.00
    Total number of electrons                                               1.00
    Multiplicity                                                   not specified
    S      1.00


 *******************************************************************************
                  Iteration          Convergence                     Energy [au]
 *******************************************************************************
                          1        0.437545E-02                  -0.424159432110
                          2        0.531356E-03                  -0.424178438213
                          3        0.259176E-06                  -0.424178722480

 Energy components [Hartree]           Total Energy ::           -0.424178722480
                                        Band Energy ::           -0.199015229016
                                     Kinetic Energy ::            0.464007633961
                                   Potential Energy ::           -0.888186356441
                                      Virial (-V/T) ::            1.914163240935
                                        Core Energy ::           -0.479160803564
                                          XC Energy ::           -0.244352904054
                                     Coulomb Energy ::            0.299334985138
                       Total Pseudopotential Energy ::           -0.962295316385
                       Local Pseudopotential Energy ::           -0.962295316385
                    Nonlocal Pseudopotential Energy ::            0.000000000000
                                        Confinement ::            0.191268788606

 Orbital energies  State     L     Occupation   Energy[a.u.]          Energy[eV]

                       1     0          1.000      -0.199015           -5.415480


 Total Electron Density at R=0:                                         0.242907
 Re-scaling the density matrix to get the right number of electrons
                  # Electrons              Trace(P)               Scaling factor
                          512               512.001                        1.000
 Energy with the initial guess:     -1095.631233424

     Est. extremal eigenvalues     -0.94160     5.24491  converged:  F
     TRS4 it   1 1.00000000   0.565E+02       0.019     5356.859   0.100E-11
     TRS4 it   2 1.00000000   0.540E+02       0.019     5350.451   0.100E-11
     TRS4 it   3 1.00000000   0.339E+02       0.036     5631.058   0.100E-11
     TRS4 it   4 1.00000000   0.177E+02       0.036     5507.166   0.100E-11
     TRS4 it   5 1.00000000   0.107E+02       0.037     5491.344   0.100E-11
     TRS4 it   6 1.00000000   0.484E+01       0.037     5485.722   0.100E-11
     TRS4 it   7 1.00000000   0.143E+01       0.036     5566.249   0.100E-11
     TRS4 it   8 1.00000000   0.216E+00       0.036     5605.609   0.100E-11
     TRS4 it   9 1.00000000   0.919E-02       0.036     5510.432   0.100E-11
     TRS4 it  10 1.00000000   0.249E-04       0.036     5611.201   0.100E-11
     TRS4 it  11 1.00000000   0.612E-10       0.036     5525.400   0.100E-11
     Final TRS4 iteration   11 1.00000000   0.612E-10
     Chemical potential (mu):      -0.10692

 SCF     1     -1097.932425475     -1097.932425475    2.058770

*********************************************************
 Using MIXING_FRACTION=0.450 to mix KS matrix:  iscf=  2
 KS_nw=0.450*KS + 0.550*KS_old
*********************************************************
     Est. extremal eigenvalues     -0.82869     5.32612  converged:  T
     TRS4 it   1 1.00000000   0.557E+02       0.018     5559.404   0.100E-11
     TRS4 it   2 1.00000000   0.542E+02       0.019     5378.650   0.100E-11
     TRS4 it   3 1.00000000   0.352E+02       0.037     5491.592   0.100E-11
     TRS4 it   4 1.00000000   0.183E+02       0.037     5495.550   0.100E-11
     TRS4 it   5 1.00000000   0.118E+02       0.036     5586.532   0.100E-11
     TRS4 it   6 1.00000000   0.618E+01       0.036     5618.226   0.100E-11
     TRS4 it   7 1.00000000   0.247E+01       0.036     5632.057   0.100E-11
     TRS4 it   8 1.00000000   0.679E+00       0.036     5542.243   0.100E-11
     TRS4 it   9 1.00000000   0.101E+00       0.036     5509.288   0.100E-11
     TRS4 it  10 1.00000000   0.504E-02       0.036     5509.835   0.100E-11
     TRS4 it  11 1.00000000   0.652E-05       0.036     5537.481   0.100E-11
     TRS4 it  12 1.00000000   0.107E-10       0.036     5580.784   0.100E-11
     Final TRS4 iteration   12 1.00000000   0.107E-10
     Chemical potential (mu):      -0.01914

 SCF     2     -1102.974745448        -5.042319973    2.084174

*********************************************************
 Using MIXING_FRACTION=0.450 to mix KS matrix:  iscf=  3
 KS_nw=0.450*KS + 0.550*KS_old
*********************************************************
     Est. extremal eigenvalues     -0.83804     5.31753  converged:  T
     TRS4 it   1 1.00000000   0.558E+02       0.019     5266.125   0.100E-11
     TRS4 it   2 1.00000000   0.541E+02       0.019     5282.226   0.100E-11
     TRS4 it   3 1.00000000   0.350E+02       0.037     5476.924   0.100E-11
     TRS4 it   4 1.00000000   0.182E+02       0.036     5567.636   0.100E-11
     TRS4 it   5 1.00000000   0.116E+02       0.036     5601.495   0.100E-11
     TRS4 it   6 1.00000000   0.596E+01       0.036     5611.316   0.100E-11
     TRS4 it   7 1.00000000   0.229E+01       0.036     5587.703   0.100E-11
     TRS4 it   8 1.00000000   0.590E+00       0.036     5567.047   0.100E-11
     TRS4 it   9 1.00000000   0.767E-01       0.036     5563.966   0.100E-11
     TRS4 it  10 1.00000000   0.271E-02       0.036     5561.706   0.100E-11
     TRS4 it  11 1.00000000   0.178E-05       0.036     5628.093   0.100E-11
     TRS4 it  12 1.00000000   0.113E-11       0.036     5525.705   0.100E-11
     Final TRS4 iteration   12 1.00000000   0.113E-11
     Chemical potential (mu):      -0.02815

 SCF     3     -1103.138188077        -0.163442628    2.094088

*********************************************************
 Using MIXING_FRACTION=0.450 to mix KS matrix:  iscf=  4
 KS_nw=0.450*KS + 0.550*KS_old
*********************************************************
     Est. extremal eigenvalues     -0.83385     5.32200  converged:  T
     TRS4 it   1 1.00000000   0.558E+02       0.019     5355.301   0.100E-11
     TRS4 it   2 1.00000000   0.541E+02       0.018     5476.186   0.100E-11
     TRS4 it   3 1.00000000   0.350E+02       0.036     5557.442   0.100E-11
     TRS4 it   4 1.00000000   0.183E+02       0.036     5620.477   0.100E-11
     TRS4 it   5 1.00000000   0.117E+02       0.036     5571.049   0.100E-11
     TRS4 it   6 1.00000000   0.605E+01       0.036     5603.421   0.100E-11
     TRS4 it   7 1.00000000   0.236E+01       0.036     5542.074   0.100E-11
     TRS4 it   8 1.00000000   0.628E+00       0.036     5547.497   0.100E-11
     TRS4 it   9 1.00000000   0.878E-01       0.036     5535.000   0.100E-11
     TRS4 it  10 1.00000000   0.374E-02       0.036     5568.041   0.100E-11
     TRS4 it  11 1.00000000   0.442E-05       0.035     5703.653   0.100E-11
     TRS4 it  12 1.00000000   0.121E-10       0.036     5619.446   0.100E-11
     Final TRS4 iteration   12 1.00000000   0.121E-10
     Chemical potential (mu):      -0.02145

 SCF     4     -1103.146534487        -0.008346410    2.081208

*********************************************************
 Using MIXING_FRACTION=0.450 to mix KS matrix:  iscf=  5
 KS_nw=0.450*KS + 0.550*KS_old
*********************************************************
     Est. extremal eigenvalues     -0.83245     5.32268  converged:  T
     TRS4 it   1 1.00000000   0.558E+02       0.019     5192.747   0.100E-11
     TRS4 it   2 1.00000000   0.541E+02       0.018     5450.275   0.100E-11
     TRS4 it   3 1.00000000   0.350E+02       0.037     5460.825   0.100E-11
     TRS4 it   4 1.00000000   0.183E+02       0.036     5602.405   0.100E-11
     TRS4 it   5 1.00000000   0.117E+02       0.036     5499.796   0.100E-11
     TRS4 it   6 1.00000000   0.604E+01       0.036     5534.460   0.100E-11
     TRS4 it   7 1.00000000   0.236E+01       0.036     5575.014   0.100E-11
     TRS4 it   8 1.00000000   0.626E+00       0.036     5565.004   0.100E-11
     TRS4 it   9 1.00000000   0.876E-01       0.036     5588.363   0.100E-11
     TRS4 it  10 1.00000000   0.372E-02       0.036     5587.266   0.100E-11
     TRS4 it  11 1.00000000   0.445E-05       0.036     5577.185   0.100E-11
     TRS4 it  12 1.00000000   0.125E-10       0.036     5531.120   0.100E-11
     Final TRS4 iteration   12 1.00000000   0.125E-10
     Chemical potential (mu):      -0.02068

 SCF     5     -1103.147201907        -0.000667421    2.083597

*********************************************************
 Using MIXING_FRACTION=0.450 to mix KS matrix:  iscf=  6
 KS_nw=0.450*KS + 0.550*KS_old
*********************************************************
     Est. extremal eigenvalues     -0.83191     5.32332  converged:  T
     TRS4 it   1 1.00000000   0.558E+02       0.019     5422.078   0.100E-11
     TRS4 it   2 1.00000000   0.541E+02       0.018     5431.116   0.100E-11
     TRS4 it   3 1.00000000   0.350E+02       0.037     5482.377   0.100E-11
     TRS4 it   4 1.00000000   0.183E+02       0.036     5608.353   0.100E-11
     TRS4 it   5 1.00000000   0.117E+02       0.036     5590.168   0.100E-11
     TRS4 it   6 1.00000000   0.605E+01       0.036     5505.226   0.100E-11
     TRS4 it   7 1.00000000   0.237E+01       0.035     5686.677   0.100E-11
     TRS4 it   8 1.00000000   0.631E+00       0.036     5558.648   0.100E-11
     TRS4 it   9 1.00000000   0.892E-01       0.035     5701.422   0.100E-11
     TRS4 it  10 1.00000000   0.389E-02       0.035     5666.329   0.100E-11
     TRS4 it  11 1.00000000   0.512E-05       0.036     5555.734   0.100E-11
     TRS4 it  12 1.00000000   0.185E-10       0.036     5616.347   0.100E-11
     Final TRS4 iteration   12 1.00000000   0.185E-10
     Chemical potential (mu):      -0.01958

 SCF     6     -1103.147301466        -0.000099559    2.077747

*********************************************************
 Using MIXING_FRACTION=0.450 to mix KS matrix:  iscf=  7
 KS_nw=0.450*KS + 0.550*KS_old
*********************************************************
     Est. extremal eigenvalues     -0.83143     5.32361  converged:  T
     TRS4 it   1 1.00000000   0.558E+02       0.019     5379.524   0.100E-11
     TRS4 it   2 1.00000000   0.541E+02       0.018     5435.483   0.100E-11
     TRS4 it   3 1.00000000   0.350E+02       0.036     5533.781   0.100E-11
     TRS4 it   4 1.00000000   0.183E+02       0.036     5597.602   0.100E-11
     TRS4 it   5 1.00000000   0.117E+02       0.036     5507.524   0.100E-11
     TRS4 it   6 1.00000000   0.605E+01       0.036     5605.597   0.100E-11
     TRS4 it   7 1.00000000   0.237E+01       0.036     5551.192   0.100E-11
     TRS4 it   8 1.00000000   0.632E+00       0.036     5515.496   0.100E-11
     TRS4 it   9 1.00000000   0.894E-01       0.035     5665.289   0.100E-11
     TRS4 it  10 1.00000000   0.392E-02       0.036     5610.111   0.100E-11
     TRS4 it  11 1.00000000   0.524E-05       0.035     5652.917   0.100E-11
     TRS4 it  12 1.00000000   0.196E-10       0.036     5568.643   0.100E-11
     Final TRS4 iteration   12 1.00000000   0.196E-10
     Chemical potential (mu):      -0.01921

 SCF     7     -1103.147322494        -0.000021028    2.079365

*********************************************************
 Using MIXING_FRACTION=0.450 to mix KS matrix:  iscf=  8
 KS_nw=0.450*KS + 0.550*KS_old
*********************************************************
     Est. extremal eigenvalues     -0.83127     5.32376  converged:  T
     TRS4 it   1 1.00000000   0.558E+02       0.019     5349.826   0.100E-11
     TRS4 it   2 1.00000000   0.541E+02       0.018     5524.065   0.100E-11
     TRS4 it   3 1.00000000   0.350E+02       0.036     5508.704   0.100E-11
     TRS4 it   4 1.00000000   0.183E+02       0.036     5567.302   0.100E-11
     TRS4 it   5 1.00000000   0.117E+02       0.036     5624.479   0.100E-11
     TRS4 it   6 1.00000000   0.606E+01       0.036     5557.199   0.100E-11
     TRS4 it   7 1.00000000   0.237E+01       0.036     5536.625   0.100E-11
     TRS4 it   8 1.00000000   0.633E+00       0.036     5582.012   0.100E-11
     TRS4 it   9 1.00000000   0.897E-01       0.036     5613.765   0.100E-11
     TRS4 it  10 1.00000000   0.395E-02       0.036     5580.892   0.100E-11
     TRS4 it  11 1.00000000   0.539E-05       0.036     5624.034   0.100E-11
     TRS4 it  12 1.00000000   0.211E-10       0.036     5578.743   0.100E-11
     Final TRS4 iteration   12 1.00000000   0.211E-10
     Chemical potential (mu):      -0.01895

 SCF     8     -1103.147327544        -0.000005050    2.082207


 SCF run converged in     8 steps.

 Writing restart DM 64H2O_ref_LS_DM_SPIN_1_RESTART.dm with checksum:       0.61567016E+04

 ENERGY| Total FORCE_EVAL ( QS ) energy [a.u.]:            -1103.147327543708798

 -------------------------------------------------------------------------------
 -                                                                             -
 -                                DBCSR STATISTICS                             -
 -                                                                             -
 -------------------------------------------------------------------------------
 COUNTER                                    TOTAL       BLAS       SMM       ACC
 flops     5 x     5 x     5          79238196750       0.0%    100.0%      0.0%     
 flops     5 x    13 x     5         102600965350       0.0%    100.0%      0.0%     
 flops    13 x     5 x     5         102615380400       0.0%    100.0%      0.0%     
 flops     5 x     5 x    13         103117307150       0.0%    100.0%      0.0%     
 flops     5 x    13 x    13         133565342430       0.0%    100.0%      0.0%     
 flops    13 x     5 x    13         133580434130       0.0%    100.0%      0.0%     
 flops    13 x    13 x     5         134722923140       0.0%    100.0%      0.0%     
 flops    13 x    13 x    13         175432273510       0.0%    100.0%      0.0%     
 flops inhomo. stacks                           0       0.0%      0.0%      0.0%
 flops total                       964.872823E+09       0.0%    100.0%      0.0%
 flops max/rank                     30.973461E+09       0.0%    100.0%      0.0%
 matmuls inhomo. stacks                         0       0.0%      0.0%      0.0%
 matmuls total                         1069029798       0.0%    100.0%      0.0%
 number of processed stacks               1513934       0.0%    100.0%      0.0%
 average stack size                                     0.0     706.1       0.0
 marketing flops                     1.569237E+12
 -------------------------------------------------------------------------------
 # multiplications                            246
 max memory usage/rank             617.181184E+06
 # max total images/rank                        2
 # max 3D layers                                1
 # MPI messages exchanged                  102336
 MPI messages size (bytes):
  total size                        42.306605E+09
  min size                           0.000000E+00
  max size                         541.696000E+03
  average size                     413.408812E+03
 MPI breakdown and total messages size (bytes):
             size <=      128                 312                        0
       128 < size <=     8192                  42                   279312
      8192 < size <=    32768                  62                   841968
     32768 < size <=   131072                  72                  8846448
    131072 < size <=  4194304              101848              42296638832
   4194304 < size <= 16777216                   0                        0
  16777216 < size                               0                        0
 -------------------------------------------------------------------------------

 *** WARNING in dbcsr_mm.F:301 :: Using a non-square number of MPI ranks ***
 *** might lead to poor performance. Used ranks: 32 Suggested: 36 64     ***

 -------------------------------------------------------------------------------
 -                                                                             -
 -                      DBCSR MESSAGE PASSING PERFORMANCE                      -
 -                                                                             -
 -------------------------------------------------------------------------------
 ROUTINE             CALLS      AVE VOLUME [Bytes]
 MP_Bcast                9                     12.
 MP_Allreduce         1762                     34.
 MP_Alltoall           546                  34827.
 MP_ISend             8604                 170595.
 MP_IRecv             8238                 178787.
 -------------------------------------------------------------------------------

 -------------------------------------------------------------------------------
 -                                                                             -
 -                                DBM STATISTICS                               -
 -                                                                             -
 -------------------------------------------------------------------------------
    M  x    N  x    K                                          COUNT     PERCENT
 -------------------------------------------------------------------------------

 -------------------------------------------------------------------------------
 -                                                                             -
 -                                GRID STATISTICS                              -
 -                                                                             -
 -------------------------------------------------------------------------------
 LP    KERNEL             BACKEND                              COUNT     PERCENT
 2     collocate ortho    CPU                                7374609      28.82%
 2     integrate ortho    CPU                                7374609      28.82%
 3     collocate ortho    CPU                                4741101      18.53%
 3     integrate ortho    CPU                                4741101      18.53%
 4     collocate ortho    CPU                                 673434       2.63%
 4     integrate ortho    CPU                                 673434       2.63%
 0     collocate general  CPU                                   6144       0.02%
 -------------------------------------------------------------------------------

 MEMORY| Estimated peak process memory [MiB]                                 589

 -------------------------------------------------------------------------------
 -                                                                             -
 -                         MESSAGE PASSING PERFORMANCE                         -
 -                                                                             -
 -------------------------------------------------------------------------------

 ROUTINE             CALLS      AVE VOLUME [Bytes]
 MP_Group                5
 MP_Bcast             2479                 157332.
 MP_Allreduce         6633                    940.
 MP_Sync                 5
 MP_Alltoall           244                3961741.
 MP_SendRecv           837                  18832.
 MP_ISendRecv          837                  18832.
 MP_Wait              2391
 MP_ISend             1406                 108579.
 MP_IRecv             1406                 108603.
 -------------------------------------------------------------------------------


 -------------------------------------------------------------------------------
 -                                                                             -
 -                           R E F E R E N C E S                               -
 -                                                                             -
 -------------------------------------------------------------------------------
 
 CP2K version 2024.3 (Development Version), the CP2K developers group (2024).
 CP2K is freely available from https://www.cp2k.org/ .
 
 T. D. Kuehne, M. Iannuzzi, M. Del Ben, V. V. Rybkin, P. Seewald, F. Stein, T. 
 Laino, R. Z. Khaliullin, O. Schuett, F. Schiffmann, D. Golze, J. Wilhelm, S. 
 Chulkov, M. H. Bani-Hashemian, V. Weber, U. Borstnik, M. Taillefumier, A. S. 
 Jakobovits, A. Lazzaro, H. Pabst, T. Mueller, R. Schade, M. Guidon, S. 
 Andermatt, N. Holmberg, G. K. Schenter, A. Hehn, A. Bussy, F. Belleflamme, G. 
 Tabacchi, A. Gloess, M. Lass, I. Bethune, C. J. Mundy, C. Plessl, M. Watkins, 
 J. VandeVondele, M. Krack, J. Hutter.
 J. Chem. Phys. 152, 194103 (2020).
 CP2K: An electronic structure and molecular dynamics software package - 
 Quickstep: Efficient and accurate electronic structure calculations.
 https://doi.org/10.1063/5.0007045

 O. Schuett, P. Messmer, J. Hutter, J. VandeVondele.
 Electronic Structure Calculations on Graphics Processing Units, 173-190 (2016).
 GPU-Accelerated Sparse Matrix-Matrix Multiplication for Linear Scaling Density 
 Functional Theory.
 https://doi.org/10.1002/9781118670712.ch8

 A. Heinecke, G. Henry, M. Hutchinson, H. Pabst.
 Proceedings of Intl. Supercomputing Conference, 981-991 (2016).
 LIBXSMM: Accelerating Small Matrix Multiplications by Runtime Code Generation.
 https://doi.org/10.1109/SC.2016.83

 J. Hutter, M. Iannuzzi, F. Schiffmann, J. VandeVondele.
 WIREs Comput Mol Sci. 4, 15-25 (2014).
 CP2K: atomistic simulations of condensed matter systems.
 https://doi.org/10.1002/wcms.1159

 U. Borstnik, J. VandeVondele, V. Weber, J. Hutter.
 Parallel Comput. 40, 47-58 (2014).
 Sparse matrix multiplication: The distributed block-compressed sparse row 
 library.
 https://doi.org/10.1016/j.parco.2014.03.012

 A. Marek, V. Blum, R. Johanni, V. Havu, B. Lang, T. Auckenthaler, A. Heinecke, 
 H. Bungartz, H. Lederer.
 J. Phys. Condens. Matter 26, 213201 (2014).
 The ELPA library: scalable parallel eigenvalue solutions for electronic 
 structure theory and computational science.
 https://doi.org/10.1088/0953-8984/26/21/213201

 J. VandeVondele, U. Borstnik, J. Hutter.
 J. Chem. Theory Comput. 8, 3565-3573 (2012).
 Linear Scaling Self-Consistent Field Calculations with Millions of Atoms in the 
 Condensed Phase.
 https://doi.org/10.1021/ct200897x

 J. VandeVondele, J. Hutter.
 J. Chem. Phys. 127, 114105 (2007).
 Gaussian basis sets for accurate calculations on molecular systems in gas and 
 condensed phases.
 https://doi.org/10.1063/1.2770708

 J. VandeVondele, M. Krack, F. Mohamed, M. Parrinello, T. Chassaing, J. Hutter.
 Comput. Phys. Commun. 167, 103-128 (2005).
 QUICKSTEP: Fast and accurate density functional calculations using a mixed 
 Gaussian and plane waves approach.
 https://doi.org/10.1016/j.cpc.2004.12.014

 M. Krack.
 Theor. Chem. Acc. 114, 145-152 (2005).
 Pseudopotentials for H to Kr optimized for gradient-corrected 
 exchange-correlation functionals.
 https://doi.org/10.1007/s00214-005-0655-y

 M. Frigo, S. G. Johnson.
 Proc. IEEE 93, 216-231 (2005).
 The design and implementation of FFTW3.
 https://doi.org/10.1109/JPROC.2004.840301

 A. M. N. Niklasson, C. J. Tymczak, M. Challacombe.
 J. Chem. Phys. 118, 8611-8620 (2003).
 Trace resetting density matrix purification in O(N) self-consistent-field 
 theory.
 https://doi.org/10.1063/1.1559913

 C. Hartwigsen, S. Goedecker, J. Hutter.
 Phys. Rev. B 58, 3641-3662 (1998).
 Relativistic separable dual-space Gaussian pseudopotentials from H to Rn.
 https://doi.org/10.1103/PhysRevB.58.3641

 G. Lippert, J. Hutter, M. Parrinello.
 Mol. Phys. 92, 477-487 (1997).
 A hybrid Gaussian and plane wave density functional scheme.
 https://doi.org/10.1080/002689797170220

 S. Goedecker, M. Teter, J. Hutter.
 Phys. Rev. B 54, 1703-1710 (1996).
 Separable dual-space Gaussian pseudopotentials.
 https://doi.org/10.1103/PhysRevB.54.1703

 J. P. Perdew, K. Burke, M. Ernzerhof.
 Phys. Rev. Lett. 77, 3865-3868 (1996).
 Generalized gradient approximation made simple.
 https://doi.org/10.1103/PhysRevLett.77.3865


 -------------------------------------------------------------------------------
 -                                                                             -
 -                                T I M I N G                                  -
 -                                                                             -
 -------------------------------------------------------------------------------
 SUBROUTINE                       CALLS  ASD         SELF TIME        TOTAL TIME
                                MAXIMUM       AVERAGE  MAXIMUM  AVERAGE  MAXIMUM
 CP2K                                 1  1.0    0.012    0.017   20.386   20.386
 qs_energies                          1  2.0    0.000    0.000   20.239   20.239
 ls_scf                               1  3.0    0.000    0.000   19.182   19.182
 ls_scf_main                          1  4.0    0.000    0.000   16.641   16.642
 ls_scf_dm_to_ks                      8  5.0    0.000    0.000   12.371   12.379
 qs_ks_update_qs_env                  9  6.1    0.000    0.000    7.802    7.804
 rebuild_ks_matrix                    9  7.1    0.000    0.000    7.796    7.797
 qs_ks_build_kohn_sham_matrix         9  8.1    0.002    0.002    7.796    7.797
 qs_rho_update_rho_low                9  6.1    0.000    0.000    6.118    6.126
 calculate_rho_elec                   9  7.1    0.003    0.003    6.118    6.126
 sum_up_and_integrate                 9  9.1    0.000    0.000    5.888    5.890
 integrate_v_rspace                   9 10.1    0.000    0.000    5.880    5.882
 grid_collocate_task_list             9  8.1    5.433    5.501    5.433    5.501
 grid_integrate_task_list             9 11.1    5.197    5.274    5.197    5.274
 dbcsr_multiply_generic             246  6.2    0.012    0.013    4.638    4.644
 density_matrix_trs4                  8  5.0    0.004    0.006    4.265    4.268
 multiply_cannon                    246  7.2    0.018    0.022    3.768    3.846
 multiply_cannon_loop               246  8.2    0.019    0.020    3.694    3.754
 ls_scf_init_scf                      1  4.0    0.000    0.000    2.477    2.478
 multiply_cannon_multrec           1968  9.2    2.100    2.161    2.106    2.167
 mp_waitall_1                     16729 10.5    1.733    1.831    1.733    1.831
 fft_wrap_pw1pw2                    172 11.3    0.003    0.004    1.766    1.794
 fft_wrap_pw1pw2_200                100 12.8    0.102    0.110    1.694    1.727
 qs_vxc_create                        9  9.1    0.000    0.000    1.560    1.586
 xc_vxc_pw_create                     9 10.1    0.013    0.019    1.560    1.586
 ls_scf_initial_guess                 1  5.0    0.000    0.000    1.553    1.554
 ls_scf_qs_atomic_guess               1  6.0    0.000    0.000    1.553    1.554
 multiply_cannon_metrocomm3        1968  9.2    0.005    0.006    1.351    1.441
 fft3d_ps                           172 13.3    0.717    0.796    1.328    1.370
 xc_pw_derive                        54 12.1    0.001    0.001    1.109    1.182
 qs_energies_init_hamiltonians        1  3.0    0.000    0.000    1.056    1.056
 ls_scf_init_matrix_S                 1  5.0    0.000    0.000    0.924    0.925
 matrix_sqrt_Newton_Schulz            1  6.0    0.001    0.001    0.901    0.901
 build_core_hamiltonian_matrix        1  4.0    0.000    0.000    0.698    0.867
 xc_rho_set_and_dset_create           9 11.1    0.019    0.025    0.786    0.811
 xc_pw_divergence                     9 11.1    0.000    0.000    0.742    0.782
 density_rs2pw                        9  8.1    0.000    0.000    0.651    0.719
 make_m2s                           492  7.2    0.005    0.007    0.686    0.699
 make_images                        492  8.2    0.039    0.041    0.676    0.690
 mp_alltoall_z22v                   172 15.3    0.435    0.620    0.435    0.620
 build_core_ppl                       1  5.0    0.477    0.618    0.477    0.618
 mp_waitany                        1406 12.5    0.519    0.616    0.519    0.616
 potential_pw2rs                      9 11.1    0.001    0.001    0.599    0.600
 transfer_rs2pw                      46  9.0    0.001    0.001    0.455    0.550
 transfer_rs2pw_200                  10  9.8    0.035    0.052    0.351    0.449
 arnoldi_extremal                     9  6.1    0.000    0.000    0.441    0.442
 arnoldi_normal_ev                    9  7.1    0.000    0.001    0.440    0.441
 yz_to_x                             64 14.2    0.061    0.080    0.287    0.421
 make_images_data                   492  9.2    0.005    0.007    0.378    0.413
 -------------------------------------------------------------------------------

 The number of warnings for this run is : 1
 
 -------------------------------------------------------------------------------
  **** **** ******  **  PROGRAM ENDED AT                 2024-09-23 17:53:24.228
 ***** ** ***  *** **   PROGRAM RAN ON                                    moritz
 **    ****   ******    PROGRAM RAN BY                                       ole
 ***** **    ** ** **   PROGRAM PROCESS ID                                161193
  **** **  *******  **  PROGRAM STOPPED IN /home/ole/git/pao_ml_equivar/64H2O_MD
                                           /Frame6600
