 DBCSR| CPU Multiplication driver                                           XSMM (U)
 DBCSR| Multrec recursion limit                                              512 (U)
 DBCSR| Multiplication stack size                                           1000 (D)
 DBCSR| Maximum elements for images                                    UNLIMITED (U)
 DBCSR| Multiplicative factor virtual images                                   1 (U)
 DBCSR| Use multiplication densification                                       T (D)
 DBCSR| Multiplication size stacks                                             3 (U)
 DBCSR| Use memory pool for CPU allocation                                     F (U)
 DBCSR| Number of 3D layers                                               SINGLE (U)
 DBCSR| Use MPI memory allocation                                              F (U)
 DBCSR| Use RMA algorithm                                                      F (U)
 DBCSR| Use Communication thread                                               T (U)
 DBCSR| Communication thread load                                             87 (D)
 DBCSR| MPI: My process id                                                     0
 DBCSR| MPI: Number of processes                                              32
 DBCSR| OMP: Current number of threads                                         1
 DBCSR| OMP: Max number of threads                                             1
 DBCSR| Split modifier for TAS multiplication algorithm                  1.0E+00 (U)


  **** **** ******  **  PROGRAM STARTED AT               2024-09-24 06:26:05.277
 ***** ** ***  *** **   PROGRAM STARTED ON                                moritz
 **    ****   ******    PROGRAM STARTED BY                                   ole
 ***** **    ** ** **   PROGRAM PROCESS ID                                170281
  **** **  *******  **  PROGRAM STARTED IN /home/ole/git/pao_ml_equivar/64H2O_MD
                                           /Frame6600

 CP2K| version string:                 CP2K version 2024.3 (Development Version)
 CP2K| source code revision number:                                  git:3f890bb
 CP2K| cp2kflags: omp libint fftw3 libxc libgrpp pexsi elpa parallel scalapack c
 CP2K|            osma quip deepmd xsmm plumed2 spglib libdftd4 sirius libvori l
 CP2K|            libbqb libvdwxc hdf5
 CP2K| is freely available from                            https://www.cp2k.org/
 CP2K| Program compiled at                          Mo 23 Sep 2024 17:17:04 CEST
 CP2K| Program compiled on                                                moritz
 CP2K| Program compiled for                                                local
 CP2K| Data directory path                               /home/ole/git/cp2k/data
 CP2K| Input file name                                           64H2O_pao44.inp

 GLOBAL| Force Environment number                                              1
 GLOBAL| Basis set file name                                        BASIS_MOLOPT
 GLOBAL| Potential file name                                      GTH_POTENTIALS
 GLOBAL| MM Potential file name                                     MM_POTENTIAL
 GLOBAL| Coordinate file name                                         coords.xyz
 GLOBAL| Method name                                                        CP2K
 GLOBAL| Project name                                                64H2O_pao44
 GLOBAL| Run type                                                         ENERGY
 GLOBAL| FFT library                                                       FFTW3
 GLOBAL| Diagonalization library                                            ELPA
 GLOBAL| DGEMM library                                                      BLAS
 GLOBAL| Minimum number of eigenvectors for ELPA usage                        16
 GLOBAL| Orthonormality check for eigenvectors                          DISABLED
 GLOBAL| Matrix multiplication library                                     COSMA
 GLOBAL| All-to-all communication in single precision                          F
 GLOBAL| FFTs using library dependent lengths                                  F
 GLOBAL| Grid backend                                                       AUTO
 GLOBAL| Global print level                                                  LOW
 GLOBAL| MPI I/O enabled                                                       T
 GLOBAL| Total number of message passing processes                            32
 GLOBAL| Number of threads for this process                                    1
 GLOBAL| This output is from process                                           0
 GLOBAL| Stack size for threads created by OpenMP (OMP_STACKSIZE)        default
 GLOBAL| CPU model name           AMD Ryzen Threadripper 3970X 32-Core Processor
 GLOBAL| CPUID                                                              1002

 MEMORY| system memory details [Kb]
 MEMORY|                        rank 0           min           max       average
 MEMORY| MemTotal            131752136     131752136     131752136     131752136
 MEMORY| MemFree             114257744     114257744     114257744     114257744
 MEMORY| Buffers               2030332       2030332       2030332       2030332
 MEMORY| Cached                8724088       8724084       8724088       8724084
 MEMORY| Slab                  1643652       1643652       1643652       1643652
 MEMORY| SReclaimable          1146352       1146352       1146352       1146352
 MEMORY| MemLikelyFree       126158516     126158512     126158516     126158512


 GENERATE|  Preliminary Number of Bonds generated:                             0
 GENERATE|  Achieved consistency in connectivity generation.

 *******************************************************************************
 *******************************************************************************
 **                                                                           **
 **     #####                         ##              ##                      **
 **    ##   ##            ##          ##              ##                      **
 **   ##     ##                       ##            ######                    **
 **   ##     ##  ##   ##  ##   #####  ##  ##   ####   ##    #####    #####    **
 **   ##     ##  ##   ##  ##  ##      ## ##   ##      ##   ##   ##  ##   ##   **
 **   ##  ## ##  ##   ##  ##  ##      ####     ###    ##   ######   ######    **
 **    ##  ###   ##   ##  ##  ##      ## ##      ##   ##   ##       ##        **
 **     #######   #####   ##   #####  ##  ##  ####    ##    #####   ##        **
 **           ##                                                    ##        **
 **                                                                           **
 **                                                ... make the atoms dance   **
 **                                                                           **
 **            Copyright (C) by CP2K developers group (2000-2024)             **
 **                      J. Chem. Phys. 152, 194103 (2020)                    **
 **                                                                           **
 *******************************************************************************


 TOTAL NUMBERS AND MAXIMUM NUMBERS

  Total number of            - Atomic kinds:                                   2
                             - Atoms:                                        192
                             - Shell sets:                                   192
                             - Shells:                                       704
                             - Primitive Cartesian functions:               1344
                             - Cartesian basis functions:                   1536
                             - Spherical basis functions:                   1472

  Maximum angular momentum of- Orbital basis functions:                        2
                             - Local part of the GTH pseudopotential:          2
                             - Non-local part of the GTH pseudopotential:      0

 ------------------------------ Linear scaling SCF -----------------------------
 eps_scf:                                                              0.100E-07
 eps_filter:                                                           0.100E-11
 mixing_fraction:                                                      0.450E+00
 max_scf:                                                                     25
 fixed chemical potential (mu)                                                 F
 has unit metric:                                                              F
 Computing inv(S):                                                             T
 Computing sqrt(S):                                                            T
 Computing S preconditioner                                                    F
 S sqrt method:                                                     NEWTONSCHULZ
 S sqrt order:                                                                 3
 Extrapolation order:                                                          1
 S preconditioner type                                                      NONE
 Polarized Atomic Orbitals (PAO)                                               T
 Purification method                                   Trace resetting 4th order
 Cluster type                                                             ATOMIC
 Computing Chebyshev                                                       FALSE
 Using PAO                                                                     T
 -------------------------------------------------------------------------------

 
 PAO|                                  EPS_PAO                           0.5E-06
 PAO|                                  MIXING                            0.5E+00
 PAO|                                  MAX_PAO                              1500
 PAO|                                  MAX_CYCLES                           1000
 PAO|                                  PARAMETERIZATION              EQUIVARIANT
 PAO|                                  PRECONDITION                            F
 PAO|                                  REGULARIZATION                    0.0E+00
 PAO|                                  EPS_PGF                           0.1E-09
 PAO|                                  PENALTY_DISTANCE                  0.1E+00
 PAO|                                  PENALTY_STRENGTH                  0.5E-02
 PAO|                                  LINPOT_PRECONDITION_DELTA         0.0E+00
 PAO|                                  LINPOT_INITGUESS_DELT             0.0E+00
 PAO|                                  LINPOT_REGULARIZATION_DELTA       0.0E+00
 PAO|                                  LINPOT_REGULARIZATION_STRENGTH    0.0E+00
 PAO|                                  OPTIMIZER                              CG
 PAO|                                  CG_INIT_STEPS                           2
 PAO|                                  CG_RESET_LIMIT                    0.1E+00
 PAO|                                  CHECK_UNITARY_TOL                -0.1E+01
 PAO|                                  CHECK_GRADIENT_TOL               -0.1E+01
 PAO|                                  NUM_GRADIENT_ORDER                      2
 PAO|                                  NUM_GRADIENT_EPS                  0.1E-07
 PAO|                                  PRINT%RESTART%WRITE_CYCLES            100
 PAO|                                  RESTART_FILE 
 PAO|                                  PREOPT_DM_FILE 64H2O_ref_LS_DM_SPIN_1_RESTART.dm
 PAO|                                  MACHINE_LEARNING%METHOD       GAUSSIAN_PR
 PAO|                                  MACHINE_LEARNING%PRIOR               ZERO
 PAO|                                  MACHINE_LEARNING%DESCRIPTOR     POTENTIAL
 PAO|                                  MACHINE_LEARNING%TOLERANCE        0.1E-01
 PAO|                                  MACHINE_LEARNING%GP_NOISE_VAR     0.1E+00
 PAO|                                  MACHINE_LEARNING%GP_SCALE         0.5E-01
 

 Calculating atomic Fock matrix for atomic kind: O

 Electronic structure
    Total number of core electrons                                          2.00
    Total number of valence electrons                                       6.00
    Total number of electrons                                               8.00
    Multiplicity                                                   not specified
    S   [  2.00] 2.00
    P      4.00


 *******************************************************************************
                  Iteration          Convergence                     Energy [au]
 *******************************************************************************
                          1        0.708315                     -15.576645311500
                          2        0.608879                     -15.587933561584
                          3        0.102828E-01                 -15.656849565404
                          4        0.113889E-02                 -15.656866888140
                          5        0.434197E-03                 -15.656867072159
                          6        0.263771E-03                 -15.656867091904
                          7        0.478536E-06                 -15.656867103452

 Energy components [Hartree]           Total Energy ::          -15.656867103452
                                        Band Energy ::           -3.000198112285
                                     Kinetic Energy ::           11.759971203220
                                   Potential Energy ::          -27.416838306672
                                      Virial (-V/T) ::            2.331369510426
                                        Core Energy ::          -26.140716385623
                                          XC Energy ::           -3.154051012914
                                     Coulomb Energy ::           13.637900295084
                       Total Pseudopotential Energy ::          -37.935781716540
                       Local Pseudopotential Energy ::          -39.218907440693
                    Nonlocal Pseudopotential Energy ::            1.283125724153
                                        Confinement ::            0.350941276976

 Orbital energies  State     L     Occupation   Energy[a.u.]          Energy[eV]

                       1     0          2.000      -0.864471          -23.523463

                       1     1          4.000      -0.317814           -8.648154


 Total Electron Density at R=0:                                         0.000068

 Calculating atomic Fock matrix for atomic kind: H

 Electronic structure
    Total number of core electrons                                          0.00
    Total number of valence electrons                                       1.00
    Total number of electrons                                               1.00
    Multiplicity                                                   not specified
    S      1.00


 *******************************************************************************
                  Iteration          Convergence                     Energy [au]
 *******************************************************************************
                          1        0.437545E-02                  -0.424159432110
                          2        0.531356E-03                  -0.424178438213
                          3        0.259176E-06                  -0.424178722480

 Energy components [Hartree]           Total Energy ::           -0.424178722480
                                        Band Energy ::           -0.199015229016
                                     Kinetic Energy ::            0.464007633961
                                   Potential Energy ::           -0.888186356441
                                      Virial (-V/T) ::            1.914163240935
                                        Core Energy ::           -0.479160803564
                                          XC Energy ::           -0.244352904054
                                     Coulomb Energy ::            0.299334985138
                       Total Pseudopotential Energy ::           -0.962295316385
                       Local Pseudopotential Energy ::           -0.962295316385
                    Nonlocal Pseudopotential Energy ::            0.000000000000
                                        Confinement ::            0.191268788606

 Orbital energies  State     L     Occupation   Energy[a.u.]          Energy[eV]

                       1     0          1.000      -0.199015           -5.415480


 Total Electron Density at R=0:                                         0.242907
 PAO| Made initial guess for matrix_X with norm:   27.712812921102035     

     Lanczos converged:  F threshold:   0.100E-02
     Est. extremal eigenvalues:    0.611E+01   0.941E-01
     Est. condition number :    0.650E+02

 Order=           3
     NS sqrt iter    1 1.00000000   0.149E+01       0.021     2675.404
     NS sqrt iter    2 1.00000000   0.811E+00       0.034     3362.363
     NS sqrt iter    3 1.00000000   0.326E+00       0.034     3341.206
     NS sqrt iter    4 1.00000000   0.896E-01       0.034     3343.085
     NS sqrt iter    5 1.00000000   0.307E-02       0.034     3334.343
     NS sqrt iter    6 1.00000000   0.232E-06       0.029     2916.668
     Symmetrizing Results
     Final NS sqrt iter    6 1.00000000   0.128E-12

 PAO| Read restart DM 64H2O_ref_LS_DM_SPIN_1_RESTART.dm with checksum:    6156.7016095650106     
 PAO| Quickstep energy from restart density:  -1103.1473275437088     
 PAO| ======================= Iteration:         1 =============================

     Lanczos converged:  F threshold:   0.100E-02
     Est. extremal eigenvalues:    0.611E+01   0.941E-01
     Est. condition number :    0.650E+02

 Order=           3
     NS sqrt iter    1 1.00000000   0.149E+01       0.021     2706.645
     NS sqrt iter    2 1.00000000   0.811E+00       0.034     3363.877
     NS sqrt iter    3 1.00000000   0.326E+00       0.034     3358.065
     NS sqrt iter    4 1.00000000   0.896E-01       0.034     3367.646
     NS sqrt iter    5 1.00000000   0.307E-02       0.034     3354.028
     NS sqrt iter    6 1.00000000   0.232E-06       0.029     2936.986
     Symmetrizing Results
     Final NS sqrt iter    6 1.00000000   0.128E-12

     Est. extremal eigenvalues     -0.81470     2.60538  converged:  T
     TRS4 it   1 1.00000000   0.272E+02       0.007     2097.696   0.100E-11
     TRS4 it   2 1.00000000   0.236E+02       0.013     2193.949   0.100E-11
     TRS4 it   3 1.00000000   0.160E+02       0.013     2174.530   0.100E-11
     TRS4 it   4 1.00000000   0.998E+01       0.013     2196.094   0.100E-11
     TRS4 it   5 1.00000000   0.482E+01       0.013     2173.258   0.100E-11
     TRS4 it   6 1.00000000   0.161E+01       0.013     2191.627   0.100E-11
     TRS4 it   7 1.00000000   0.319E+00       0.013     2169.296   0.100E-11
     TRS4 it   8 1.00000000   0.226E-01       0.013     2167.632   0.100E-11
     TRS4 it   9 1.00000000   0.178E-03       0.013     2192.848   0.100E-11
     TRS4 it  10 1.00000000   0.118E-07       0.013     2184.320   0.100E-11
     TRS4 it  11 1.00000000   0.355E-14       0.013     2207.407   0.100E-11
     Final TRS4 iteration   11 1.00000000   0.355E-14
     Chemical potential (mu):       0.00814
 
 PAO| energy:  -185.98520789035126      penalty:   1.3447613243689436E-031
 PAO|CG| warming up with steepest descent
 PAO|CG| beta:    0.0000000000000000     
 PAO| norm of gradient:   3.9831547771621882     
 PAO|LS| adapt:  T F F
 PAO|LS| adapt: scan_steps:    0.0000000000000000        0.0000000000000000        0.0000000000000000     
 PAO|LS| adapt: energies:   -185.98520789035126        0.0000000000000000        0.0000000000000000     
 PAO| ======================= Iteration:         2 =============================

     Lanczos converged:  F threshold:   0.100E-02
     Est. extremal eigenvalues:    0.590E+01   0.101E+00
     Est. condition number :    0.584E+02

 Order=           3
     NS sqrt iter    1 1.00000000   0.145E+01       0.021     2690.549
     NS sqrt iter    2 1.00000000   0.782E+00       0.034     3378.021
     NS sqrt iter    3 1.00000000   0.305E+00       0.034     3366.779
     NS sqrt iter    4 1.00000000   0.751E-01       0.034     3372.032
     NS sqrt iter    5 1.00000000   0.189E-02       0.034     3352.618
     NS sqrt iter    6 1.00000000   0.642E-07       0.029     2928.823
     Symmetrizing Results
     Final NS sqrt iter    6 1.00000000   0.103E-13

     Est. extremal eigenvalues     -0.81791     2.60418  converged:  T
     TRS4 it   1 1.00000000   0.275E+02       0.007     2102.447   0.100E-11
     TRS4 it   2 1.00000000   0.236E+02       0.013     2184.134   0.100E-11
     TRS4 it   3 1.00000000   0.159E+02       0.013     2189.139   0.100E-11
     TRS4 it   4 1.00000000   0.978E+01       0.013     2163.501   0.100E-11
     TRS4 it   5 1.00000000   0.461E+01       0.013     2208.749   0.100E-11
     TRS4 it   6 1.00000000   0.148E+01       0.013     2179.029   0.100E-11
     TRS4 it   7 1.00000000   0.273E+00       0.013     2188.631   0.100E-11
     TRS4 it   8 1.00000000   0.161E-01       0.013     2181.487   0.100E-11
     TRS4 it   9 1.00000000   0.813E-04       0.013     2186.374   0.100E-11
     TRS4 it  10 1.00000000   0.284E-08       0.013     2203.913   0.100E-11
     TRS4 it  11 1.00000000   0.178E-14       0.013     2184.528   0.100E-11
     Final TRS4 iteration   11 1.00000000   0.178E-14
     Chemical potential (mu):       0.01395
 
 PAO| energy:  -187.44168337866600      penalty:   4.7272592291804830E-007
 PAO|LS| adapt:  T T F
 PAO|LS| adapt: scan_steps:    0.0000000000000000       0.10000000000000001        0.0000000000000000     
 PAO|LS| adapt: energies:   -185.98520789035126       -187.44168337866600        0.0000000000000000     
 PAO| ======================= Iteration:         3 =============================

     Lanczos converged:  F threshold:   0.100E-02
     Est. extremal eigenvalues:    0.568E+01   0.107E+00
     Est. condition number :    0.532E+02

 Order=           3
     NS sqrt iter    1 1.00000000   0.141E+01       0.021     2678.829
     NS sqrt iter    2 1.00000000   0.752E+00       0.034     3353.257
     NS sqrt iter    3 1.00000000   0.285E+00       0.034     3349.834
     NS sqrt iter    4 1.00000000   0.627E-01       0.034     3346.092
     NS sqrt iter    5 1.00000000   0.118E-02       0.034     3352.420
     NS sqrt iter    6 1.00000000   0.188E-07       0.029     2894.424
     Symmetrizing Results
     Final NS sqrt iter    6 1.00000000   0.344E-14

     Est. extremal eigenvalues     -0.82091     2.60594  converged:  T
     TRS4 it   1 1.00000000   0.277E+02       0.007     2104.328   0.100E-11
     TRS4 it   2 1.00000000   0.236E+02       0.013     2165.555   0.100E-11
     TRS4 it   3 1.00000000   0.158E+02       0.013     2174.950   0.100E-11
     TRS4 it   4 1.00000000   0.959E+01       0.013     2189.921   0.100E-11
     TRS4 it   5 1.00000000   0.440E+01       0.013     2169.296   0.100E-11
     TRS4 it   6 1.00000000   0.135E+01       0.013     2179.810   0.100E-11
     TRS4 it   7 1.00000000   0.231E+00       0.013     2177.503   0.100E-11
     TRS4 it   8 1.00000000   0.111E-01       0.013     2185.056   0.100E-11
     TRS4 it   9 1.00000000   0.346E-04       0.013     2192.748   0.100E-11
     TRS4 it  10 1.00000000   0.591E-09       0.013     2164.170   0.100E-11
     TRS4 it  11 1.00000000   0.266E-13       0.013     2183.891   0.100E-11
     Final TRS4 iteration   11 1.00000000   0.266E-13
     Chemical potential (mu):       0.02061
 
 PAO| energy:  -188.62157949011464      penalty:   7.5636147666908887E-006
 PAO|LS| adapt:  T T F
 PAO|LS| adapt: scan_steps:    0.0000000000000000       0.20000000000000001        0.0000000000000000     
 PAO|LS| adapt: energies:   -185.98520789035126       -188.62157949011464        0.0000000000000000     
 PAO| ======================= Iteration:         4 =============================

     Lanczos converged:  F threshold:   0.100E-02
     Est. extremal eigenvalues:    0.527E+01   0.116E+00
     Est. condition number :    0.455E+02

 Order=           3
     NS sqrt iter    1 1.00000000   0.132E+01       0.021     2683.218
     NS sqrt iter    2 1.00000000   0.697E+00       0.034     3353.785
     NS sqrt iter    3 1.00000000   0.247E+00       0.033     3381.037
     NS sqrt iter    4 1.00000000   0.437E-01       0.034     3361.234
     NS sqrt iter    5 1.00000000   0.479E-03       0.034     3358.086
     NS sqrt iter    6 1.00000000   0.168E-08       0.029     2840.577
     Symmetrizing Results
     Final NS sqrt iter    6 1.00000000   0.165E-13

     Est. extremal eigenvalues     -0.82582     2.61177  converged:  T
     TRS4 it   1 1.00000000   0.281E+02       0.007     2109.969   0.100E-11
     TRS4 it   2 1.00000000   0.236E+02       0.013     2166.577   0.100E-11
     TRS4 it   3 1.00000000   0.156E+02       0.013     2187.885   0.100E-11
     TRS4 it   4 1.00000000   0.926E+01       0.013     2194.130   0.100E-11
     TRS4 it   5 1.00000000   0.404E+01       0.013     2197.498   0.100E-11
     TRS4 it   6 1.00000000   0.113E+01       0.013     2215.540   0.100E-11
     TRS4 it   7 1.00000000   0.164E+00       0.013     2184.791   0.100E-11
     TRS4 it   8 1.00000000   0.513E-02       0.013     2188.250   0.100E-11
     TRS4 it   9 1.00000000   0.599E-05       0.013     2209.028   0.100E-11
     TRS4 it  10 1.00000000   0.199E-10       0.013     2193.291   0.100E-11
     Final TRS4 iteration   10 1.00000000   0.199E-10
     Chemical potential (mu):       0.03883
 
 PAO| energy:  -190.10931448197533      penalty:   1.2101783626707169E-004
 PAO|LS| Need extra step
 PAO|LS| adapt:  T T F
 PAO|LS| adapt: scan_steps:    0.0000000000000000       0.40000000000000002        0.0000000000000000     
 PAO|LS| adapt: energies:   -185.98520789035126       -190.10931448197533        0.0000000000000000     
 PAO| ======================= Iteration:         5 =============================

     Lanczos converged:  F threshold:   0.100E-02
     Est. extremal eigenvalues:    0.464E+01   0.131E+00
     Est. condition number :    0.355E+02

 Order=           3
     NS sqrt iter    1 1.00000000   0.120E+01       0.021     2702.938
     NS sqrt iter    2 1.00000000   0.610E+00       0.034     3374.870
     NS sqrt iter    3 1.00000000   0.191E+00       0.034     3355.057
     NS sqrt iter    4 1.00000000   0.228E-01       0.034     3370.086
     NS sqrt iter    5 1.00000000   0.917E-04       0.034     3376.618
     NS sqrt iter    6 1.00000000   0.172E-10       0.017     2187.622
     Symmetrizing Results
     Final NS sqrt iter    6 1.00000000   0.200E-11

     Est. extremal eigenvalues     -0.82881     2.61182  converged:  T
     TRS4 it   1 1.00000000   0.287E+02       0.007     2123.753   0.100E-11
     TRS4 it   2 1.00000000   0.236E+02       0.013     2199.925   0.100E-11
     TRS4 it   3 1.00000000   0.153E+02       0.013     2181.389   0.100E-11
     TRS4 it   4 1.00000000   0.876E+01       0.013     2188.247   0.100E-11
     TRS4 it   5 1.00000000   0.352E+01       0.013     2169.433   0.100E-11
     TRS4 it   6 1.00000000   0.841E+00       0.013     2184.374   0.100E-11
     TRS4 it   7 1.00000000   0.895E-01       0.013     2190.362   0.100E-11
     TRS4 it   8 1.00000000   0.143E-02       0.013     2196.148   0.100E-11
     TRS4 it   9 1.00000000   0.474E-06       0.013     2185.171   0.100E-11
     TRS4 it  10 1.00000000   0.151E-12       0.013     2189.360   0.100E-11
     Final TRS4 iteration   10 1.00000000   0.151E-12
     Chemical potential (mu):       0.06002
 
 PAO| energy:  -189.72418339127540      penalty:   1.9362853802732858E-003
 PAO|LS| Need extra step
 PAO|LS| adapt:  T T T
 PAO|LS| adapt: scan_steps:    0.0000000000000000       0.40000000000000002       0.80000000000000004     
 PAO|LS| adapt: energies:   -185.98520789035126       -190.10931448197533       -189.72418339127540     
 PAO|LS| adapt: suggested step_size:   0.56583625722728048     
 PAO|LS| adapt: predicted energy  -190.49685054631144     
 PAO| ======================= Iteration:         6 =============================

     Lanczos converged:  F threshold:   0.100E-02
     Est. extremal eigenvalues:    0.498E+01   0.122E+00
     Est. condition number :    0.407E+02

 Order=           3
     NS sqrt iter    1 1.00000000   0.127E+01       0.021     2683.672
     NS sqrt iter    2 1.00000000   0.656E+00       0.034     3328.636
     NS sqrt iter    3 1.00000000   0.221E+00       0.034     3321.191
     NS sqrt iter    4 1.00000000   0.329E-01       0.034     3324.758
     NS sqrt iter    5 1.00000000   0.235E-03       0.034     3341.098
     NS sqrt iter    6 1.00000000   0.238E-09       0.028     2615.513
     Symmetrizing Results
     Final NS sqrt iter    6 1.00000000   0.670E-12

     Est. extremal eigenvalues     -0.82831     2.61387  converged:  T
     TRS4 it   1 1.00000000   0.284E+02       0.007     2089.558   0.100E-11
     TRS4 it   2 1.00000000   0.236E+02       0.013     2181.240   0.100E-11
     TRS4 it   3 1.00000000   0.155E+02       0.013     2180.662   0.100E-11
     TRS4 it   4 1.00000000   0.903E+01       0.013     2171.255   0.100E-11
     TRS4 it   5 1.00000000   0.379E+01       0.013     2185.092   0.100E-11
     TRS4 it   6 1.00000000   0.991E+00       0.013     2202.037   0.100E-11
     TRS4 it   7 1.00000000   0.125E+00       0.013     2178.528   0.100E-11
     TRS4 it   8 1.00000000   0.283E-02       0.013     2192.781   0.100E-11
     TRS4 it   9 1.00000000   0.175E-05       0.013     2172.662   0.100E-11
     TRS4 it  10 1.00000000   0.185E-11       0.013     2200.068   0.100E-11
     Final TRS4 iteration   10 1.00000000   0.185E-11
     Chemical potential (mu):       0.04888
 
 PAO| energy:  -190.47025697664029      penalty:   4.8458783559672487E-004
 PAO|CG| warming up with steepest descent
 PAO|CG| beta:    0.0000000000000000     
 PAO| norm of gradient:   2.0887739034439448     
 PAO| energy improvement:  -4.4850490862890240     
 PAO| step      6                 -190.470256977  0.408E-02  0.566E+00     2.502
 PAO|LS| adapt:  T F F
 PAO|LS| adapt: scan_steps:    0.0000000000000000        0.0000000000000000        0.0000000000000000     
 PAO|LS| adapt: energies:   -190.47025697664029        0.0000000000000000        0.0000000000000000     
 PAO| ======================= Iteration:         7 =============================

     Lanczos converged:  T threshold:   0.100E-02
     Est. extremal eigenvalues:    0.483E+01   0.130E+00
     Est. condition number :    0.373E+02

 Order=           3
     NS sqrt iter    1 1.00000000   0.124E+01       0.021     2691.152
     NS sqrt iter    2 1.00000000   0.632E+00       0.034     3357.474
     NS sqrt iter    3 1.00000000   0.204E+00       0.034     3372.825
     NS sqrt iter    4 1.00000000   0.265E-01       0.034     3356.116
     NS sqrt iter    5 1.00000000   0.131E-03       0.034     3364.157
     NS sqrt iter    6 1.00000000   0.443E-10       0.022     2313.211
     Symmetrizing Results
     Final NS sqrt iter    6 1.00000000   0.219E-11

     Est. extremal eigenvalues     -0.82853     2.60360  converged:  T
     TRS4 it   1 1.00000000   0.285E+02       0.007     2135.183   0.100E-11
     TRS4 it   2 1.00000000   0.236E+02       0.013     2186.312   0.100E-11
     TRS4 it   3 1.00000000   0.156E+02       0.013     2182.772   0.100E-11
     TRS4 it   4 1.00000000   0.915E+01       0.013     2185.469   0.100E-11
     TRS4 it   5 1.00000000   0.388E+01       0.013     2193.331   0.100E-11
     TRS4 it   6 1.00000000   0.101E+01       0.013     2209.179   0.100E-11
     TRS4 it   7 1.00000000   0.126E+00       0.013     2179.960   0.100E-11
     TRS4 it   8 1.00000000   0.284E-02       0.013     2174.316   0.100E-11
     TRS4 it   9 1.00000000   0.184E-05       0.013     2183.179   0.100E-11
     TRS4 it  10 1.00000000   0.199E-11       0.013     2195.921   0.100E-11
     Final TRS4 iteration   10 1.00000000   0.199E-11
     Chemical potential (mu):       0.05075
 
 PAO| energy:  -189.56681236223392      penalty:   6.8090815626216307E-004
 PAO|LS| adapt:  T F T
 PAO|LS| adapt: scan_steps:    0.0000000000000000        0.0000000000000000       0.56583625722728048     
 PAO|LS| adapt: energies:   -190.47025697664029        0.0000000000000000       -189.56681236223392     
 PAO| ======================= Iteration:         8 =============================

     Lanczos converged:  F threshold:   0.100E-02
     Est. extremal eigenvalues:    0.490E+01   0.126E+00
     Est. condition number :    0.390E+02

 Order=           3
     NS sqrt iter    1 1.00000000   0.125E+01       0.021     2670.188
     NS sqrt iter    2 1.00000000   0.644E+00       0.034     3343.196
     NS sqrt iter    3 1.00000000   0.212E+00       0.034     3330.965
     NS sqrt iter    4 1.00000000   0.296E-01       0.034     3373.045
     NS sqrt iter    5 1.00000000   0.176E-03       0.034     3355.991
     NS sqrt iter    6 1.00000000   0.104E-09       0.026     2482.961
     Symmetrizing Results
     Final NS sqrt iter    6 1.00000000   0.167E-11

     Est. extremal eigenvalues     -0.82977     2.60918  converged:  T
     TRS4 it   1 1.00000000   0.285E+02       0.007     2117.445   0.100E-11
     TRS4 it   2 1.00000000   0.236E+02       0.013     2204.845   0.100E-11
     TRS4 it   3 1.00000000   0.155E+02       0.013     2185.275   0.100E-11
     TRS4 it   4 1.00000000   0.906E+01       0.013     2190.091   0.100E-11
     TRS4 it   5 1.00000000   0.382E+01       0.013     2182.578   0.100E-11
     TRS4 it   6 1.00000000   0.995E+00       0.013     2204.552   0.100E-11
     TRS4 it   7 1.00000000   0.124E+00       0.013     2178.428   0.100E-11
     TRS4 it   8 1.00000000   0.282E-02       0.013     2181.293   0.100E-11
     TRS4 it   9 1.00000000   0.179E-05       0.013     2186.908   0.100E-11
     TRS4 it  10 1.00000000   0.199E-11       0.013     2191.273   0.100E-11
     Final TRS4 iteration   10 1.00000000   0.199E-11
     Chemical potential (mu):       0.04881
 
 PAO| energy:  -190.84756948082622      penalty:   5.1396245576430723E-004
 PAO|LS| adapt:  T T T
 PAO|LS| adapt: scan_steps:    0.0000000000000000       0.28291812861364024       0.56583625722728048     
 PAO|LS| adapt: energies:   -190.47025697664029       -190.84756948082622       -189.56681236223392     
 PAO|LS| adapt: suggested step_size:   0.20584028577081692     
 PAO|LS| adapt: predicted energy  -190.90910279644271     
 PAO| ======================= Iteration:         9 =============================

     Lanczos converged:  F threshold:   0.100E-02
     Est. extremal eigenvalues:    0.492E+01   0.125E+00
     Est. condition number :    0.394E+02

 Order=           3
     NS sqrt iter    1 1.00000000   0.126E+01       0.021     2672.956
     NS sqrt iter    2 1.00000000   0.647E+00       0.034     3338.049
     NS sqrt iter    3 1.00000000   0.215E+00       0.034     3329.068
     NS sqrt iter    4 1.00000000   0.305E-01       0.034     3349.020
     NS sqrt iter    5 1.00000000   0.191E-03       0.034     3344.092
     NS sqrt iter    6 1.00000000   0.131E-09       0.027     2512.741
     Symmetrizing Results
     Final NS sqrt iter    6 1.00000000   0.137E-11

     Est. extremal eigenvalues     -0.82965     2.61055  converged:  T
     TRS4 it   1 1.00000000   0.284E+02       0.007     2100.402   0.100E-11
     TRS4 it   2 1.00000000   0.236E+02       0.013     2184.542   0.100E-11
     TRS4 it   3 1.00000000   0.155E+02       0.013     2199.225   0.100E-11
     TRS4 it   4 1.00000000   0.905E+01       0.013     2174.349   0.100E-11
     TRS4 it   5 1.00000000   0.380E+01       0.013     2207.806   0.100E-11
     TRS4 it   6 1.00000000   0.992E+00       0.013     2194.042   0.100E-11
     TRS4 it   7 1.00000000   0.124E+00       0.013     2185.291   0.100E-11
     TRS4 it   8 1.00000000   0.282E-02       0.013     2175.278   0.100E-11
     TRS4 it   9 1.00000000   0.179E-05       0.013     2194.126   0.100E-11
     TRS4 it  10 1.00000000   0.195E-11       0.013     2186.767   0.100E-11
     Final TRS4 iteration   10 1.00000000   0.195E-11
     Chemical potential (mu):       0.04863
 
 PAO| energy:  -190.91349818112943      penalty:   4.9676886920203898E-004
 PAO|CG| trace_G_new   0.73695460431000337     
 PAO|CG| trace_G_prev    4.3629764197084535     
 PAO|CG| trace_G_mix   -4.3861455746778806E-002
 PAO|CG| trace_D    4.3629764197084535     
 PAO|CG| trace_D_Gnew   4.3861455746778806E-002
 PAO|CG| beta:   0.17896407978041709     
 PAO| norm of gradient:  0.85846060148966852     
 PAO| energy improvement: -0.44324120448914073     
 PAO| step      9                 -190.913498181  0.168E-02  0.206E+00     1.538
 PAO|LS| adapt:  T F F
 PAO|LS| adapt: scan_steps:    0.0000000000000000        0.0000000000000000        0.0000000000000000     
 PAO|LS| adapt: energies:   -190.91349818112943        0.0000000000000000        0.0000000000000000     
 PAO| ======================= Iteration:        10 =============================

     Lanczos converged:  F threshold:   0.100E-02
     Est. extremal eigenvalues:    0.487E+01   0.128E+00
     Est. condition number :    0.380E+02

 Order=           3
     NS sqrt iter    1 1.00000000   0.125E+01       0.021     2672.392
     NS sqrt iter    2 1.00000000   0.639E+00       0.034     3377.413
     NS sqrt iter    3 1.00000000   0.209E+00       0.034     3359.875
     NS sqrt iter    4 1.00000000   0.283E-01       0.034     3371.179
     NS sqrt iter    5 1.00000000   0.153E-03       0.034     3353.568
     NS sqrt iter    6 1.00000000   0.668E-10       0.023     2409.919
     Symmetrizing Results
     Final NS sqrt iter    6 1.00000000   0.204E-11

     Est. extremal eigenvalues     -0.83016     2.59569  converged:  T
     TRS4 it   1 1.00000000   0.284E+02       0.007     2121.448   0.100E-11
     TRS4 it   2 1.00000000   0.235E+02       0.013     2177.130   0.100E-11
     TRS4 it   3 1.00000000   0.155E+02       0.013     2168.373   0.100E-11
     TRS4 it   4 1.00000000   0.903E+01       0.013     2207.260   0.100E-11
     TRS4 it   5 1.00000000   0.378E+01       0.013     2204.973   0.100E-11
     TRS4 it   6 1.00000000   0.979E+00       0.013     2188.747   0.100E-11
     TRS4 it   7 1.00000000   0.121E+00       0.013     2201.913   0.100E-11
     TRS4 it   8 1.00000000   0.267E-02       0.013     2202.780   0.100E-11
     TRS4 it   9 1.00000000   0.162E-05       0.013     2170.105   0.100E-11
     TRS4 it  10 1.00000000   0.164E-11       0.013     2199.995   0.100E-11
     Final TRS4 iteration   10 1.00000000   0.164E-11
     Chemical potential (mu):       0.04935
 
 PAO| energy:  -191.01448710101121      penalty:   4.9938727732445204E-004
 PAO|LS| adapt:  T T F
 PAO|LS| adapt: scan_steps:    0.0000000000000000       0.20584028577081692        0.0000000000000000     
 PAO|LS| adapt: energies:   -190.91349818112943       -191.01448710101121        0.0000000000000000     
 PAO| ======================= Iteration:        11 =============================

     Lanczos converged:  F threshold:   0.100E-02
     Est. extremal eigenvalues:    0.482E+01   0.132E+00
     Est. condition number :    0.366E+02

 Order=           3
     NS sqrt iter    1 1.00000000   0.124E+01       0.021     2688.250
     NS sqrt iter    2 1.00000000   0.631E+00       0.034     3358.201
     NS sqrt iter    3 1.00000000   0.204E+00       0.034     3362.259
     NS sqrt iter    4 1.00000000   0.262E-01       0.034     3362.158
     NS sqrt iter    5 1.00000000   0.122E-03       0.034     3366.959
     NS sqrt iter    6 1.00000000   0.338E-10       0.020     2201.564
     Symmetrizing Results
     Final NS sqrt iter    6 1.00000000   0.229E-11

     Est. extremal eigenvalues     -0.83035     2.58047  converged:  T
     TRS4 it   1 1.00000000   0.284E+02       0.007     2129.422   0.100E-11
     TRS4 it   2 1.00000000   0.235E+02       0.013     2196.855   0.100E-11
     TRS4 it   3 1.00000000   0.155E+02       0.013     2176.256   0.100E-11
     TRS4 it   4 1.00000000   0.900E+01       0.013     2200.607   0.100E-11
     TRS4 it   5 1.00000000   0.376E+01       0.013     2178.253   0.100E-11
     TRS4 it   6 1.00000000   0.964E+00       0.013     2206.185   0.100E-11
     TRS4 it   7 1.00000000   0.117E+00       0.013     2175.609   0.100E-11
     TRS4 it   8 1.00000000   0.251E-02       0.013     2183.345   0.100E-11
     TRS4 it   9 1.00000000   0.145E-05       0.013     2200.738   0.100E-11
     TRS4 it  10 1.00000000   0.132E-11       0.013     2190.141   0.100E-11
     Final TRS4 iteration   10 1.00000000   0.132E-11
     Chemical potential (mu):       0.05014
 
 PAO| energy:  -191.02003020000987      penalty:   5.1207640257109666E-004
 PAO|LS| adapt:  T T F
 PAO|LS| adapt: scan_steps:    0.0000000000000000       0.41168057154163384        0.0000000000000000     
 PAO|LS| adapt: energies:   -190.91349818112943       -191.02003020000987        0.0000000000000000     
 PAO| ======================= Iteration:        12 =============================

     Lanczos converged:  F threshold:   0.100E-02
     Est. extremal eigenvalues:    0.473E+01   0.139E+00
     Est. condition number :    0.340E+02

 Order=           3
     NS sqrt iter    1 1.00000000   0.122E+01       0.021     2686.137
     NS sqrt iter    2 1.00000000   0.615E+00       0.034     3345.126
     NS sqrt iter    3 1.00000000   0.193E+00       0.034     3328.764
     NS sqrt iter    4 1.00000000   0.225E-01       0.034     3316.526
     NS sqrt iter    5 1.00000000   0.773E-04       0.034     3342.642
     NS sqrt iter    6 1.00000000   0.824E-11       0.015     2135.508
     Symmetrizing Results
     Final NS sqrt iter    6 1.00000000   0.148E-11

     Est. extremal eigenvalues     -0.82986     2.54978  converged:  T
     TRS4 it   1 1.00000000   0.283E+02       0.007     2101.159   0.100E-11
     TRS4 it   2 1.00000000   0.233E+02       0.013     2172.798   0.100E-11
     TRS4 it   3 1.00000000   0.154E+02       0.013     2165.659   0.100E-11
     TRS4 it   4 1.00000000   0.894E+01       0.013     2164.779   0.100E-11
     TRS4 it   5 1.00000000   0.370E+01       0.013     2162.322   0.100E-11
     TRS4 it   6 1.00000000   0.931E+00       0.013     2143.547   0.100E-11
     TRS4 it   7 1.00000000   0.109E+00       0.013     2186.651   0.100E-11
     TRS4 it   8 1.00000000   0.218E-02       0.013     2180.752   0.100E-11
     TRS4 it   9 1.00000000   0.113E-05       0.013     2191.588   0.100E-11
     TRS4 it  10 1.00000000   0.792E-12       0.013     2175.310   0.100E-11
     Final TRS4 iteration   10 1.00000000   0.792E-12
     Chemical potential (mu):       0.05193
 
 PAO| energy:  -190.76202409591471      penalty:   5.7510074707886540E-004
 PAO|LS| Need extra step
 PAO|LS| adapt:  T T T
 PAO|LS| adapt: scan_steps:    0.0000000000000000       0.41168057154163384       0.82336114308326769     
 PAO|LS| adapt: energies:   -190.91349818112943       -191.02003020000987       -190.76202409591471     
 PAO|LS| adapt: suggested step_size:   0.32614913594592010     
 PAO|LS| adapt: predicted energy  -191.02789782655066     
 PAO| ======================= Iteration:        13 =============================

     Lanczos converged:  F threshold:   0.100E-02
     Est. extremal eigenvalues:    0.484E+01   0.130E+00
     Est. condition number :    0.372E+02

 Order=           3
     NS sqrt iter    1 1.00000000   0.124E+01       0.021     2717.866
     NS sqrt iter    2 1.00000000   0.634E+00       0.033     3381.970
     NS sqrt iter    3 1.00000000   0.206E+00       0.034     3366.425
     NS sqrt iter    4 1.00000000   0.271E-01       0.034     3357.895
     NS sqrt iter    5 1.00000000   0.134E-03       0.034     3365.832
     NS sqrt iter    6 1.00000000   0.449E-10       0.021     2296.679
     Symmetrizing Results
     Final NS sqrt iter    6 1.00000000   0.218E-11

     Est. extremal eigenvalues     -0.83031     2.58682  converged:  T
     TRS4 it   1 1.00000000   0.284E+02       0.007     2146.152   0.100E-11
     TRS4 it   2 1.00000000   0.235E+02       0.013     2181.034   0.100E-11
     TRS4 it   3 1.00000000   0.155E+02       0.013     2212.583   0.100E-11
     TRS4 it   4 1.00000000   0.901E+01       0.013     2204.996   0.100E-11
     TRS4 it   5 1.00000000   0.377E+01       0.013     2197.263   0.100E-11
     TRS4 it   6 1.00000000   0.971E+00       0.013     2181.288   0.100E-11
     TRS4 it   7 1.00000000   0.119E+00       0.013     2198.363   0.100E-11
     TRS4 it   8 1.00000000   0.258E-02       0.013     2207.503   0.100E-11
     TRS4 it   9 1.00000000   0.152E-05       0.013     2202.636   0.100E-11
     TRS4 it  10 1.00000000   0.144E-11       0.013     2191.312   0.100E-11
     Final TRS4 iteration   10 1.00000000   0.144E-11
     Chemical potential (mu):       0.04980
 
 PAO| energy:  -191.02904744062133      penalty:   5.0549505176382761E-004
 PAO|CG| trace_G_new   0.28378153335758238     
 PAO|CG| trace_G_prev   0.73695460431000337     
 PAO|CG| trace_G_mix   -1.2108177763023005E-002
 PAO|CG| trace_D   0.86099338184473295     
 PAO|CG| trace_D_Gnew   1.2174688616203150E-002
 PAO|CG| beta:   0.40150330751734886     
 PAO| norm of gradient:  0.53271149167028709     
 PAO| energy improvement: -0.11554925949189965     
 PAO| step     13                 -191.029047441  0.104E-02  0.326E+00     1.978
 PAO|LS| adapt:  T F F
 PAO|LS| adapt: scan_steps:    0.0000000000000000        0.0000000000000000        0.0000000000000000     
 PAO|LS| adapt: energies:   -191.02904744062133        0.0000000000000000        0.0000000000000000     
 PAO| ======================= Iteration:        14 =============================

     Lanczos converged:  T threshold:   0.100E-02
     Est. extremal eigenvalues:    0.478E+01   0.133E+00
     Est. condition number :    0.359E+02

 Order=           3
     NS sqrt iter    1 1.00000000   0.123E+01       0.021     2682.605
     NS sqrt iter    2 1.00000000   0.624E+00       0.034     3374.930
     NS sqrt iter    3 1.00000000   0.200E+00       0.033     3395.808
     NS sqrt iter    4 1.00000000   0.250E-01       0.034     3358.894
     NS sqrt iter    5 1.00000000   0.107E-03       0.034     3351.584
     NS sqrt iter    6 1.00000000   0.233E-10       0.018     2180.693
     Symmetrizing Results
     Final NS sqrt iter    6 1.00000000   0.218E-11

     Est. extremal eigenvalues     -0.83071     2.58201  converged:  T
     TRS4 it   1 1.00000000   0.285E+02       0.007     2138.643   0.100E-11
     TRS4 it   2 1.00000000   0.235E+02       0.013     2194.223   0.100E-11
     TRS4 it   3 1.00000000   0.154E+02       0.013     2186.638   0.100E-11
     TRS4 it   4 1.00000000   0.896E+01       0.013     2172.114   0.100E-11
     TRS4 it   5 1.00000000   0.371E+01       0.013     2202.576   0.100E-11
     TRS4 it   6 1.00000000   0.941E+00       0.013     2193.183   0.100E-11
     TRS4 it   7 1.00000000   0.112E+00       0.013     2190.318   0.100E-11
     TRS4 it   8 1.00000000   0.229E-02       0.013     2204.246   0.100E-11
     TRS4 it   9 1.00000000   0.122E-05       0.013     2211.850   0.100E-11
     TRS4 it  10 1.00000000   0.938E-12       0.013     2168.382   0.100E-11
     Final TRS4 iteration   10 1.00000000   0.938E-12
     Chemical potential (mu):       0.05147
 
 PAO| energy:  -191.08206250882100      penalty:   5.0780018683851318E-004
 PAO|LS| adapt:  T T F
 PAO|LS| adapt: scan_steps:    0.0000000000000000       0.32614913594592010        0.0000000000000000     
 PAO|LS| adapt: energies:   -191.02904744062133       -191.08206250882100        0.0000000000000000     
 PAO| ======================= Iteration:        15 =============================

     Lanczos converged:  T threshold:   0.100E-02
     Est. extremal eigenvalues:    0.471E+01   0.135E+00
     Est. condition number :    0.348E+02

 Order=           3
     NS sqrt iter    1 1.00000000   0.121E+01       0.021     2659.161
     NS sqrt iter    2 1.00000000   0.614E+00       0.034     3315.365
     NS sqrt iter    3 1.00000000   0.194E+00       0.034     3336.516
     NS sqrt iter    4 1.00000000   0.231E-01       0.034     3328.988
     NS sqrt iter    5 1.00000000   0.862E-04       0.034     3351.766
     NS sqrt iter    6 1.00000000   0.122E-10       0.016     2133.810
     Symmetrizing Results
     Final NS sqrt iter    6 1.00000000   0.173E-11

     Est. extremal eigenvalues     -0.83078     2.57676  converged:  T
     TRS4 it   1 1.00000000   0.285E+02       0.007     2031.164   0.100E-11
     TRS4 it   2 1.00000000   0.234E+02       0.013     2173.253   0.100E-11
     TRS4 it   3 1.00000000   0.154E+02       0.013     2162.815   0.100E-11
     TRS4 it   4 1.00000000   0.890E+01       0.013     2199.933   0.100E-11
     TRS4 it   5 1.00000000   0.366E+01       0.013     2175.233   0.100E-11
     TRS4 it   6 1.00000000   0.912E+00       0.013     2190.123   0.100E-11
     TRS4 it   7 1.00000000   0.105E+00       0.013     2196.687   0.100E-11
     TRS4 it   8 1.00000000   0.203E-02       0.013     2175.177   0.100E-11
     TRS4 it   9 1.00000000   0.981E-06       0.013     2183.094   0.100E-11
     TRS4 it  10 1.00000000   0.616E-12       0.013     2180.247   0.100E-11
     Final TRS4 iteration   10 1.00000000   0.616E-12
     Chemical potential (mu):       0.05306
 
 PAO| energy:  -191.06032089372260      penalty:   5.2528620081473000E-004
 PAO|LS| adapt:  T T T
 PAO|LS| adapt: scan_steps:    0.0000000000000000       0.32614913594592010       0.65229827189184020     
 PAO|LS| adapt: energies:   -191.02904744062133       -191.08206250882100       -191.06032089372260     
 PAO|LS| adapt: suggested step_size:   0.39436918836825269     
 PAO|LS| adapt: predicted energy  -191.08369786238694     
 PAO| ======================= Iteration:        16 =============================

     Lanczos converged:  T threshold:   0.100E-02
     Est. extremal eigenvalues:    0.476E+01   0.133E+00
     Est. condition number :    0.357E+02

 Order=           3
     NS sqrt iter    1 1.00000000   0.122E+01       0.021     2695.807
     NS sqrt iter    2 1.00000000   0.622E+00       0.034     3339.931
     NS sqrt iter    3 1.00000000   0.198E+00       0.034     3358.088
     NS sqrt iter    4 1.00000000   0.246E-01       0.034     3362.792
     NS sqrt iter    5 1.00000000   0.102E-03       0.034     3349.852
     NS sqrt iter    6 1.00000000   0.204E-10       0.017     2183.193
     Symmetrizing Results
     Final NS sqrt iter    6 1.00000000   0.212E-11

     Est. extremal eigenvalues     -0.83075     2.58094  converged:  T
     TRS4 it   1 1.00000000   0.285E+02       0.007     2130.548   0.100E-11
     TRS4 it   2 1.00000000   0.235E+02       0.013     2184.724   0.100E-11
     TRS4 it   3 1.00000000   0.154E+02       0.013     2176.917   0.100E-11
     TRS4 it   4 1.00000000   0.894E+01       0.013     2179.206   0.100E-11
     TRS4 it   5 1.00000000   0.370E+01       0.013     2194.302   0.100E-11
     TRS4 it   6 1.00000000   0.935E+00       0.013     2178.838   0.100E-11
     TRS4 it   7 1.00000000   0.110E+00       0.013     2186.398   0.100E-11
     TRS4 it   8 1.00000000   0.223E-02       0.013     2189.658   0.100E-11
     TRS4 it   9 1.00000000   0.117E-05       0.013     2175.446   0.100E-11
     TRS4 it  10 1.00000000   0.853E-12       0.013     2194.341   0.100E-11
     Final TRS4 iteration   10 1.00000000   0.853E-12
     Chemical potential (mu):       0.05181
 
 PAO| energy:  -191.08364012153501      penalty:   5.1014997996338713E-004
 PAO|CG| trace_G_new   0.10955446608510613     
 PAO|CG| trace_G_prev   0.28378153335758238     
 PAO|CG| trace_G_mix    4.5426480143603218E-003
 PAO|CG| trace_D   0.41280153500437256     
 PAO|CG| trace_D_Gnew   7.7142442231255791E-004
 PAO|CG| beta:   0.37004457911087674     
 PAO| norm of gradient:  0.33099012989076598     
 PAO| energy improvement:  -5.4592680913685854E-002
 PAO| step     16                 -191.083640122  0.646E-03  0.394E+00     1.515
 PAO|LS| adapt:  T F F
 PAO|LS| adapt: scan_steps:    0.0000000000000000        0.0000000000000000        0.0000000000000000     
 PAO|LS| adapt: energies:   -191.08364012153501        0.0000000000000000        0.0000000000000000     
 PAO| ======================= Iteration:        17 =============================

     Lanczos converged:  T threshold:   0.100E-02
     Est. extremal eigenvalues:    0.473E+01   0.134E+00
     Est. condition number :    0.352E+02

 Order=           3
     NS sqrt iter    1 1.00000000   0.122E+01       0.021     2705.172
     NS sqrt iter    2 1.00000000   0.617E+00       0.034     3349.749
     NS sqrt iter    3 1.00000000   0.196E+00       0.034     3346.687
     NS sqrt iter    4 1.00000000   0.238E-01       0.034     3372.148
     NS sqrt iter    5 1.00000000   0.934E-04       0.034     3370.131
     NS sqrt iter    6 1.00000000   0.155E-10       0.016     2161.123
     Symmetrizing Results
     Final NS sqrt iter    6 1.00000000   0.198E-11

     Est. extremal eigenvalues     -0.83080     2.57864  converged:  T
     TRS4 it   1 1.00000000   0.285E+02       0.007     2088.690   0.100E-11
     TRS4 it   2 1.00000000   0.234E+02       0.013     2192.679   0.100E-11
     TRS4 it   3 1.00000000   0.154E+02       0.013     2197.418   0.100E-11
     TRS4 it   4 1.00000000   0.890E+01       0.013     2188.228   0.100E-11
     TRS4 it   5 1.00000000   0.366E+01       0.013     2179.898   0.100E-11
     TRS4 it   6 1.00000000   0.914E+00       0.013     2190.195   0.100E-11
     TRS4 it   7 1.00000000   0.106E+00       0.013     2184.485   0.100E-11
     TRS4 it   8 1.00000000   0.206E-02       0.013     2193.888   0.100E-11
     TRS4 it   9 1.00000000   0.100E-05       0.013     2182.183   0.100E-11
     TRS4 it  10 1.00000000   0.616E-12       0.013     2199.874   0.100E-11
     Final TRS4 iteration   10 1.00000000   0.616E-12
     Chemical potential (mu):       0.05286
 
 PAO| energy:  -191.08834885875581      penalty:   5.0339451564251794E-004
 PAO|LS| adapt:  T T F
 PAO|LS| adapt: scan_steps:    0.0000000000000000       0.39436918836825269        0.0000000000000000     
 PAO|LS| adapt: energies:   -191.08364012153501       -191.08834885875581        0.0000000000000000     
 PAO| ======================= Iteration:        18 =============================

     Lanczos converged:  T threshold:   0.100E-02
     Est. extremal eigenvalues:    0.469E+01   0.135E+00
     Est. condition number :    0.348E+02

 Order=           3
     NS sqrt iter    1 1.00000000   0.121E+01       0.021     2671.164
     NS sqrt iter    2 1.00000000   0.613E+00       0.034     3340.423
     NS sqrt iter    3 1.00000000   0.194E+00       0.034     3337.347
     NS sqrt iter    4 1.00000000   0.231E-01       0.034     3358.355
     NS sqrt iter    5 1.00000000   0.855E-04       0.034     3348.278
     NS sqrt iter    6 1.00000000   0.119E-10       0.016     2133.206
     Symmetrizing Results
     Final NS sqrt iter    6 1.00000000   0.171E-11

     Est. extremal eigenvalues     -0.83068     2.57617  converged:  T
     TRS4 it   1 1.00000000   0.285E+02       0.007     2123.575   0.100E-11
     TRS4 it   2 1.00000000   0.234E+02       0.013     2208.560   0.100E-11
     TRS4 it   3 1.00000000   0.154E+02       0.013     2174.995   0.100E-11
     TRS4 it   4 1.00000000   0.885E+01       0.013     2182.126   0.100E-11
     TRS4 it   5 1.00000000   0.361E+01       0.013     2184.615   0.100E-11
     TRS4 it   6 1.00000000   0.894E+00       0.013     2182.404   0.100E-11
     TRS4 it   7 1.00000000   0.102E+00       0.013     2172.561   0.100E-11
     TRS4 it   8 1.00000000   0.190E-02       0.013     2185.038   0.100E-11
     TRS4 it   9 1.00000000   0.861E-06       0.013     2169.193   0.100E-11
     TRS4 it  10 1.00000000   0.428E-12       0.013     2197.325   0.100E-11
     Final TRS4 iteration   10 1.00000000   0.428E-12
     Chemical potential (mu):       0.05397
 
 PAO| energy:  -191.01612597607166      penalty:   5.0470694903254737E-004
 PAO|LS| adapt:  T T T
 PAO|LS| adapt: scan_steps:    0.0000000000000000       0.39436918836825269       0.78873837673650538     
 PAO|LS| adapt: energies:   -191.08364012153501       -191.08834885875581       -191.01612597607166     
 PAO|LS| adapt: suggested step_size:   0.22132266482788832     
 PAO|LS| adapt: predicted energy  -191.09575504596998     
 PAO| ======================= Iteration:        19 =============================

     Lanczos converged:  T threshold:   0.100E-02
     Est. extremal eigenvalues:    0.474E+01   0.134E+00
     Est. condition number :    0.354E+02

 Order=           3
     NS sqrt iter    1 1.00000000   0.122E+01       0.021     2697.240
     NS sqrt iter    2 1.00000000   0.619E+00       0.034     3355.651
     NS sqrt iter    3 1.00000000   0.197E+00       0.034     3376.064
     NS sqrt iter    4 1.00000000   0.241E-01       0.034     3358.953
     NS sqrt iter    5 1.00000000   0.972E-04       0.033     3381.044
     NS sqrt iter    6 1.00000000   0.175E-10       0.017     2147.773
     Symmetrizing Results
     Final NS sqrt iter    6 1.00000000   0.203E-11

     Est. extremal eigenvalues     -0.83080     2.57967  converged:  T
     TRS4 it   1 1.00000000   0.285E+02       0.007     2131.477   0.100E-11
     TRS4 it   2 1.00000000   0.234E+02       0.013     2166.916   0.100E-11
     TRS4 it   3 1.00000000   0.154E+02       0.013     2182.421   0.100E-11
     TRS4 it   4 1.00000000   0.892E+01       0.013     2202.129   0.100E-11
     TRS4 it   5 1.00000000   0.368E+01       0.013     2195.496   0.100E-11
     TRS4 it   6 1.00000000   0.923E+00       0.013     2186.717   0.100E-11
     TRS4 it   7 1.00000000   0.108E+00       0.013     2192.274   0.100E-11
     TRS4 it   8 1.00000000   0.213E-02       0.013     2186.866   0.100E-11
     TRS4 it   9 1.00000000   0.107E-05       0.013     2194.915   0.100E-11
     TRS4 it  10 1.00000000   0.739E-12       0.013     2205.124   0.100E-11
     Final TRS4 iteration   10 1.00000000   0.739E-12
     Chemical potential (mu):       0.05240
 
 PAO| energy:  -191.09574216573492      penalty:   5.0538407494524424E-004
 PAO|CG| trace_G_new    2.1688857191438673E-002
 PAO|CG| trace_G_prev   0.10955446608510613     
 PAO|CG| trace_G_mix   -4.0765791190173649E-004
 PAO|CG| trace_D   0.16550969191701836     
 PAO|CG| trace_D_Gnew  -4.6563904165323241E-005
 PAO|CG| beta:   0.20169433426999667     
 PAO| norm of gradient:  0.14727137261341280     
 PAO| energy improvement:  -1.2102044199906459E-002
 PAO| step     19                 -191.095742166  0.288E-03  0.221E+00     1.511
 PAO|LS| adapt:  T F F
 PAO|LS| adapt: scan_steps:    0.0000000000000000        0.0000000000000000        0.0000000000000000     
 PAO|LS| adapt: energies:   -191.09574216573492        0.0000000000000000        0.0000000000000000     
 PAO| ======================= Iteration:        20 =============================

     Lanczos converged:  T threshold:   0.100E-02
     Est. extremal eigenvalues:    0.474E+01   0.134E+00
     Est. condition number :    0.354E+02

 Order=           3
     NS sqrt iter    1 1.00000000   0.122E+01       0.021     2700.569
     NS sqrt iter    2 1.00000000   0.619E+00       0.034     3359.082
     NS sqrt iter    3 1.00000000   0.197E+00       0.034     3371.658
     NS sqrt iter    4 1.00000000   0.241E-01       0.034     3370.552
     NS sqrt iter    5 1.00000000   0.970E-04       0.034     3344.225
     NS sqrt iter    6 1.00000000   0.173E-10       0.017     2185.985
     Symmetrizing Results
     Final NS sqrt iter    6 1.00000000   0.204E-11

     Est. extremal eigenvalues     -0.83080     2.57827  converged:  T
     TRS4 it   1 1.00000000   0.285E+02       0.007     2114.723   0.100E-11
     TRS4 it   2 1.00000000   0.234E+02       0.013     2189.825   0.100E-11
     TRS4 it   3 1.00000000   0.154E+02       0.013     2188.180   0.100E-11
     TRS4 it   4 1.00000000   0.891E+01       0.013     2223.108   0.100E-11
     TRS4 it   5 1.00000000   0.367E+01       0.013     2187.379   0.100E-11
     TRS4 it   6 1.00000000   0.919E+00       0.013     2194.942   0.100E-11
     TRS4 it   7 1.00000000   0.107E+00       0.013     2200.439   0.100E-11
     TRS4 it   8 1.00000000   0.210E-02       0.013     2194.906   0.100E-11
     TRS4 it   9 1.00000000   0.104E-05       0.013     2185.612   0.100E-11
     TRS4 it  10 1.00000000   0.671E-12       0.013     2191.052   0.100E-11
     Final TRS4 iteration   10 1.00000000   0.671E-12
     Chemical potential (mu):       0.05256
 
 PAO| energy:  -191.09959818114478      penalty:   4.9575206918208250E-004
 PAO|LS| adapt:  T T F
 PAO|LS| adapt: scan_steps:    0.0000000000000000       0.22132266482788832        0.0000000000000000     
 PAO|LS| adapt: energies:   -191.09574216573492       -191.09959818114478        0.0000000000000000     
 PAO| ======================= Iteration:        21 =============================

     Lanczos converged:  T threshold:   0.100E-02
     Est. extremal eigenvalues:    0.473E+01   0.134E+00
     Est. condition number :    0.354E+02

 Order=           3
     NS sqrt iter    1 1.00000000   0.122E+01       0.021     2672.694
     NS sqrt iter    2 1.00000000   0.619E+00       0.034     3358.244
     NS sqrt iter    3 1.00000000   0.197E+00       0.034     3330.873
     NS sqrt iter    4 1.00000000   0.241E-01       0.034     3293.203
     NS sqrt iter    5 1.00000000   0.969E-04       0.034     3353.465
     NS sqrt iter    6 1.00000000   0.171E-10       0.017     2172.341
     Symmetrizing Results
     Final NS sqrt iter    6 1.00000000   0.203E-11

     Est. extremal eigenvalues     -0.83081     2.57685  converged:  T
     TRS4 it   1 1.00000000   0.285E+02       0.007     2112.758   0.100E-11
     TRS4 it   2 1.00000000   0.234E+02       0.013     2190.210   0.100E-11
     TRS4 it   3 1.00000000   0.154E+02       0.013     2184.902   0.100E-11
     TRS4 it   4 1.00000000   0.889E+01       0.013     2157.922   0.100E-11
     TRS4 it   5 1.00000000   0.366E+01       0.013     2189.051   0.100E-11
     TRS4 it   6 1.00000000   0.915E+00       0.013     2183.750   0.100E-11
     TRS4 it   7 1.00000000   0.106E+00       0.013     2188.652   0.100E-11
     TRS4 it   8 1.00000000   0.207E-02       0.013     2189.535   0.100E-11
     TRS4 it   9 1.00000000   0.101E-05       0.013     2168.820   0.100E-11
     TRS4 it  10 1.00000000   0.650E-12       0.013     2159.630   0.100E-11
     Final TRS4 iteration   10 1.00000000   0.650E-12
     Chemical potential (mu):       0.05273
 
 PAO| energy:  -191.10154740237130      penalty:   4.8655056639648167E-004
 PAO|LS| adapt:  T T F
 PAO|LS| adapt: scan_steps:    0.0000000000000000       0.44264532965577663        0.0000000000000000     
 PAO|LS| adapt: energies:   -191.09574216573492       -191.10154740237130        0.0000000000000000     
 PAO| ======================= Iteration:        22 =============================

     Lanczos converged:  T threshold:   0.100E-02
     Est. extremal eigenvalues:    0.473E+01   0.134E+00
     Est. condition number :    0.353E+02

 Order=           3
     NS sqrt iter    1 1.00000000   0.122E+01       0.021     2668.460
     NS sqrt iter    2 1.00000000   0.618E+00       0.034     3372.268
     NS sqrt iter    3 1.00000000   0.197E+00       0.034     3344.969
     NS sqrt iter    4 1.00000000   0.242E-01       0.033     3381.654
     NS sqrt iter    5 1.00000000   0.966E-04       0.034     3371.392
     NS sqrt iter    6 1.00000000   0.168E-10       0.016     2197.447
     Symmetrizing Results
     Final NS sqrt iter    6 1.00000000   0.204E-11

     Est. extremal eigenvalues     -0.83081     2.57398  converged:  T
     TRS4 it   1 1.00000000   0.285E+02       0.007     2115.185   0.100E-11
     TRS4 it   2 1.00000000   0.234E+02       0.013     2202.801   0.100E-11
     TRS4 it   3 1.00000000   0.154E+02       0.013     2177.397   0.100E-11
     TRS4 it   4 1.00000000   0.887E+01       0.013     2181.243   0.100E-11
     TRS4 it   5 1.00000000   0.364E+01       0.013     2188.104   0.100E-11
     TRS4 it   6 1.00000000   0.907E+00       0.013     2206.214   0.100E-11
     TRS4 it   7 1.00000000   0.104E+00       0.013     2179.045   0.100E-11
     TRS4 it   8 1.00000000   0.201E-02       0.013     2179.461   0.100E-11
     TRS4 it   9 1.00000000   0.957E-06       0.013     2182.833   0.100E-11
     TRS4 it  10 1.00000000   0.581E-12       0.013     2193.396   0.100E-11
     Final TRS4 iteration   10 1.00000000   0.581E-12
     Chemical potential (mu):       0.05307
 
 PAO| energy:  -191.09963971962364      penalty:   4.6941197593115304E-004
 PAO|LS| Need extra step
 PAO|LS| adapt:  T T T
 PAO|LS| adapt: scan_steps:    0.0000000000000000       0.44264532965577663       0.88529065931155326     
 PAO|LS| adapt: energies:   -191.09574216573492       -191.10154740237130       -191.09963971962364     
 PAO|LS| adapt: suggested step_size:   0.55448586240496078     
 PAO|LS| adapt: predicted energy  -191.10179359524523     
 PAO| ======================= Iteration:        23 =============================

     Lanczos converged:  T threshold:   0.100E-02
     Est. extremal eigenvalues:    0.473E+01   0.134E+00
     Est. condition number :    0.354E+02

 Order=           3
     NS sqrt iter    1 1.00000000   0.122E+01       0.021     2677.217
     NS sqrt iter    2 1.00000000   0.619E+00       0.034     3365.762
     NS sqrt iter    3 1.00000000   0.197E+00       0.034     3368.807
     NS sqrt iter    4 1.00000000   0.241E-01       0.034     3361.079
     NS sqrt iter    5 1.00000000   0.968E-04       0.034     3365.401
     NS sqrt iter    6 1.00000000   0.170E-10       0.017     2153.725
     Symmetrizing Results
     Final NS sqrt iter    6 1.00000000   0.203E-11

     Est. extremal eigenvalues     -0.83081     2.57613  converged:  T
     TRS4 it   1 1.00000000   0.285E+02       0.007     2099.386   0.100E-11
     TRS4 it   2 1.00000000   0.234E+02       0.013     2182.329   0.100E-11
     TRS4 it   3 1.00000000   0.154E+02       0.013     2195.057   0.100E-11
     TRS4 it   4 1.00000000   0.889E+01       0.013     2180.939   0.100E-11
     TRS4 it   5 1.00000000   0.365E+01       0.013     2196.904   0.100E-11
     TRS4 it   6 1.00000000   0.913E+00       0.013     2214.394   0.100E-11
     TRS4 it   7 1.00000000   0.106E+00       0.013     2196.531   0.100E-11
     TRS4 it   8 1.00000000   0.205E-02       0.013     2205.132   0.100E-11
     TRS4 it   9 1.00000000   0.998E-06       0.013     2198.474   0.100E-11
     TRS4 it  10 1.00000000   0.618E-12       0.013     2178.505   0.100E-11
     Final TRS4 iteration   10 1.00000000   0.618E-12
     Chemical potential (mu):       0.05281
 
 PAO| energy:  -191.10180037184028      penalty:   4.8206219187645332E-004
 PAO|CG| trace_G_new    1.5984785196960768E-002
 PAO|CG| trace_G_prev    2.1688857191438673E-002
 PAO|CG| trace_G_mix    1.2293978314151390E-004
 PAO|CG| trace_D    2.8440674856664933E-002
 PAO|CG| trace_D_Gnew  -5.2375661605252475E-005
 PAO|CG| beta:   0.73133615449690281     
 PAO| norm of gradient:  0.12643095031265394     
 PAO| energy improvement:  -6.0582061053651159E-003
 PAO| step     23                 -191.101800372  0.247E-03  0.554E+00     1.964
 PAO|LS| adapt:  T F F
 PAO|LS| adapt: scan_steps:    0.0000000000000000        0.0000000000000000        0.0000000000000000     
 PAO|LS| adapt: energies:   -191.10180037184028        0.0000000000000000        0.0000000000000000     
 PAO| ======================= Iteration:        24 =============================

     Lanczos converged:  T threshold:   0.100E-02
     Est. extremal eigenvalues:    0.472E+01   0.134E+00
     Est. condition number :    0.354E+02

 Order=           3
     NS sqrt iter    1 1.00000000   0.121E+01       0.021     2695.858
     NS sqrt iter    2 1.00000000   0.618E+00       0.034     3370.844
     NS sqrt iter    3 1.00000000   0.197E+00       0.034     3370.660
     NS sqrt iter    4 1.00000000   0.241E-01       0.034     3374.313
     NS sqrt iter    5 1.00000000   0.968E-04       0.034     3361.714
     NS sqrt iter    6 1.00000000   0.170E-10       0.017     2178.953
     Symmetrizing Results
     Final NS sqrt iter    6 1.00000000   0.204E-11

     Est. extremal eigenvalues     -0.83082     2.57249  converged:  T
     TRS4 it   1 1.00000000   0.285E+02       0.007     2123.559   0.100E-11
     TRS4 it   2 1.00000000   0.234E+02       0.013     2209.752   0.100E-11
     TRS4 it   3 1.00000000   0.154E+02       0.013     2180.312   0.100E-11
     TRS4 it   4 1.00000000   0.886E+01       0.013     2202.654   0.100E-11
     TRS4 it   5 1.00000000   0.363E+01       0.013     2176.456   0.100E-11
     TRS4 it   6 1.00000000   0.904E+00       0.013     2187.134   0.100E-11
     TRS4 it   7 1.00000000   0.104E+00       0.013     2212.242   0.100E-11
     TRS4 it   8 1.00000000   0.199E-02       0.013     2175.368   0.100E-11
     TRS4 it   9 1.00000000   0.948E-06       0.013     2196.441   0.100E-11
     TRS4 it  10 1.00000000   0.531E-12       0.013     2184.694   0.100E-11
     Final TRS4 iteration   10 1.00000000   0.531E-12
     Chemical potential (mu):       0.05311
 
 PAO| energy:  -191.10482256963536      penalty:   4.4602826284106657E-004
 PAO|LS| adapt:  T T F
 PAO|LS| adapt: scan_steps:    0.0000000000000000       0.55448586240496078        0.0000000000000000     
 PAO|LS| adapt: energies:   -191.10180037184028       -191.10482256963536        0.0000000000000000     
 PAO| ======================= Iteration:        25 =============================

     Lanczos converged:  T threshold:   0.100E-02
     Est. extremal eigenvalues:    0.471E+01   0.133E+00
     Est. condition number :    0.353E+02

 Order=           3
     NS sqrt iter    1 1.00000000   0.121E+01       0.021     2700.055
     NS sqrt iter    2 1.00000000   0.617E+00       0.034     3374.701
     NS sqrt iter    3 1.00000000   0.197E+00       0.034     3366.843
     NS sqrt iter    4 1.00000000   0.241E-01       0.034     3378.603
     NS sqrt iter    5 1.00000000   0.970E-04       0.034     3359.554
     NS sqrt iter    6 1.00000000   0.170E-10       0.017     2188.729
     Symmetrizing Results
     Final NS sqrt iter    6 1.00000000   0.203E-11

     Est. extremal eigenvalues     -0.83082     2.56866  converged:  T
     TRS4 it   1 1.00000000   0.285E+02       0.007     2120.427   0.100E-11
     TRS4 it   2 1.00000000   0.234E+02       0.013     2199.565   0.100E-11
     TRS4 it   3 1.00000000   0.154E+02       0.013     2188.578   0.100E-11
     TRS4 it   4 1.00000000   0.884E+01       0.013     2191.946   0.100E-11
     TRS4 it   5 1.00000000   0.361E+01       0.013     2215.502   0.100E-11
     TRS4 it   6 1.00000000   0.895E+00       0.013     2177.402   0.100E-11
     TRS4 it   7 1.00000000   0.102E+00       0.013     2195.225   0.100E-11
     TRS4 it   8 1.00000000   0.193E-02       0.013     2192.201   0.100E-11
     TRS4 it   9 1.00000000   0.901E-06       0.013     2192.137   0.100E-11
     TRS4 it  10 1.00000000   0.554E-12       0.013     2194.432   0.100E-11
     Final TRS4 iteration   10 1.00000000   0.554E-12
     Chemical potential (mu):       0.05340
 
 PAO| energy:  -191.09593005182151      penalty:   4.1362332251784290E-004
 PAO|LS| adapt:  T T T
 PAO|LS| adapt: scan_steps:    0.0000000000000000       0.55448586240496078        1.1089717248099216     
 PAO|LS| adapt: energies:   -191.10180037184028       -191.10482256963536       -191.09593005182151     
 PAO|LS| adapt: suggested step_size:   0.41788967475596611     
 PAO|LS| adapt: predicted energy  -191.10518410425206     
 PAO| ======================= Iteration:        26 =============================

     Lanczos converged:  T threshold:   0.100E-02
     Est. extremal eigenvalues:    0.473E+01   0.134E+00
     Est. condition number :    0.354E+02

 Order=           3
     NS sqrt iter    1 1.00000000   0.121E+01       0.021     2700.084
     NS sqrt iter    2 1.00000000   0.618E+00       0.034     3369.926
     NS sqrt iter    3 1.00000000   0.197E+00       0.034     3360.693
     NS sqrt iter    4 1.00000000   0.241E-01       0.034     3377.014
     NS sqrt iter    5 1.00000000   0.968E-04       0.033     3388.370
     NS sqrt iter    6 1.00000000   0.170E-10       0.017     2158.851
     Symmetrizing Results
     Final NS sqrt iter    6 1.00000000   0.204E-11

     Est. extremal eigenvalues     -0.83082     2.57340  converged:  T
     TRS4 it   1 1.00000000   0.285E+02       0.007     2130.870   0.100E-11
     TRS4 it   2 1.00000000   0.234E+02       0.013     2200.037   0.100E-11
     TRS4 it   3 1.00000000   0.154E+02       0.013     2208.353   0.100E-11
     TRS4 it   4 1.00000000   0.887E+01       0.013     2201.039   0.100E-11
     TRS4 it   5 1.00000000   0.363E+01       0.013     2222.773   0.100E-11
     TRS4 it   6 1.00000000   0.906E+00       0.013     2185.672   0.100E-11
     TRS4 it   7 1.00000000   0.104E+00       0.013     2209.798   0.100E-11
     TRS4 it   8 1.00000000   0.201E-02       0.013     2184.203   0.100E-11
     TRS4 it   9 1.00000000   0.960E-06       0.013     2196.734   0.100E-11
     TRS4 it  10 1.00000000   0.579E-12       0.013     2189.951   0.100E-11
     Final TRS4 iteration   10 1.00000000   0.579E-12
     Chemical potential (mu):       0.05303
 
 PAO| energy:  -191.10517306245367      penalty:   4.5456197604803913E-004
 PAO|CG| trace_G_new    1.2508118742222338E-002
 PAO|CG| trace_G_prev    1.5984785196960768E-002
 PAO|CG| trace_G_mix    2.2308474206221237E-004
 PAO|CG| trace_D    3.1272961691343804E-002
 PAO|CG| trace_D_Gnew  -7.0265646046989037E-005
 PAO|CG| beta:   0.76854545424206966     
 PAO| norm of gradient:  0.11183970110038000     
 PAO| energy improvement:  -3.3726906133892953E-003
 PAO| step     26                 -191.105173062  0.218E-03  0.418E+00     1.509
 PAO|LS| adapt:  T F F
 PAO|LS| adapt: scan_steps:    0.0000000000000000        0.0000000000000000        0.0000000000000000     
 PAO|LS| adapt: energies:   -191.10517306245367        0.0000000000000000        0.0000000000000000     
 PAO| ======================= Iteration:        27 =============================

     Lanczos converged:  T threshold:   0.100E-02
     Est. extremal eigenvalues:    0.471E+01   0.133E+00
     Est. condition number :    0.354E+02

 Order=           3
     NS sqrt iter    1 1.00000000   0.121E+01       0.021     2677.187
     NS sqrt iter    2 1.00000000   0.616E+00       0.034     3328.885
     NS sqrt iter    3 1.00000000   0.196E+00       0.034     3348.132
     NS sqrt iter    4 1.00000000   0.240E-01       0.034     3349.699
     NS sqrt iter    5 1.00000000   0.967E-04       0.034     3354.188
     NS sqrt iter    6 1.00000000   0.171E-10       0.017     2171.377
     Symmetrizing Results
     Final NS sqrt iter    6 1.00000000   0.204E-11

     Est. extremal eigenvalues     -0.83083     2.57080  converged:  T
     TRS4 it   1 1.00000000   0.285E+02       0.007     2135.289   0.100E-11
     TRS4 it   2 1.00000000   0.234E+02       0.013     2195.392   0.100E-11
     TRS4 it   3 1.00000000   0.154E+02       0.013     2186.475   0.100E-11
     TRS4 it   4 1.00000000   0.885E+01       0.013     2182.101   0.100E-11
     TRS4 it   5 1.00000000   0.362E+01       0.013     2192.345   0.100E-11
     TRS4 it   6 1.00000000   0.898E+00       0.013     2166.968   0.100E-11
     TRS4 it   7 1.00000000   0.103E+00       0.013     2186.178   0.100E-11
     TRS4 it   8 1.00000000   0.195E-02       0.013     2192.265   0.100E-11
     TRS4 it   9 1.00000000   0.917E-06       0.013     2175.541   0.100E-11
     TRS4 it  10 1.00000000   0.538E-12       0.013     2182.417   0.100E-11
     Final TRS4 iteration   10 1.00000000   0.538E-12
     Chemical potential (mu):       0.05331
 
 PAO| energy:  -191.10766154832405      penalty:   4.2015665815258027E-004
 PAO|LS| adapt:  T T F
 PAO|LS| adapt: scan_steps:    0.0000000000000000       0.41788967475596611        0.0000000000000000     
 PAO|LS| adapt: energies:   -191.10517306245367       -191.10766154832405        0.0000000000000000     
 PAO| ======================= Iteration:        28 =============================

     Lanczos converged:  T threshold:   0.100E-02
     Est. extremal eigenvalues:    0.470E+01   0.133E+00
     Est. condition number :    0.354E+02

 Order=           3
     NS sqrt iter    1 1.00000000   0.121E+01       0.021     2701.016
     NS sqrt iter    2 1.00000000   0.615E+00       0.034     3363.302
     NS sqrt iter    3 1.00000000   0.196E+00       0.034     3375.611
     NS sqrt iter    4 1.00000000   0.240E-01       0.034     3363.673
     NS sqrt iter    5 1.00000000   0.967E-04       0.034     3364.130
     NS sqrt iter    6 1.00000000   0.172E-10       0.017     2165.451
     Symmetrizing Results
     Final NS sqrt iter    6 1.00000000   0.204E-11

     Est. extremal eigenvalues     -0.83084     2.56805  converged:  T
     TRS4 it   1 1.00000000   0.285E+02       0.007     2093.871   0.100E-11
     TRS4 it   2 1.00000000   0.233E+02       0.013     2188.111   0.100E-11
     TRS4 it   3 1.00000000   0.154E+02       0.013     2176.524   0.100E-11
     TRS4 it   4 1.00000000   0.883E+01       0.013     2216.890   0.100E-11
     TRS4 it   5 1.00000000   0.360E+01       0.013     2213.044   0.100E-11
     TRS4 it   6 1.00000000   0.891E+00       0.013     2194.202   0.100E-11
     TRS4 it   7 1.00000000   0.101E+00       0.013     2178.672   0.100E-11
     TRS4 it   8 1.00000000   0.190E-02       0.013     2210.287   0.100E-11
     TRS4 it   9 1.00000000   0.876E-06       0.013     2195.873   0.100E-11
     TRS4 it  10 1.00000000   0.513E-12       0.013     2188.047   0.100E-11
     Final TRS4 iteration   10 1.00000000   0.513E-12
     Chemical potential (mu):       0.05359
 
 PAO| energy:  -191.10457846356596      penalty:   3.8850070461970152E-004
 PAO|LS| adapt:  T T T
 PAO|LS| adapt: scan_steps:    0.0000000000000000       0.41788967475596611       0.83577934951193222     
 PAO|LS| adapt: energies:   -191.10517306245367       -191.10766154832405       -191.10457846356596     
 PAO|LS| adapt: suggested step_size:   0.39559104907503823     
 PAO|LS| adapt: predicted energy  -191.10766948028481     
 PAO| ======================= Iteration:        29 =============================

     Lanczos converged:  T threshold:   0.100E-02
     Est. extremal eigenvalues:    0.471E+01   0.133E+00
     Est. condition number :    0.354E+02

 Order=           3
     NS sqrt iter    1 1.00000000   0.121E+01       0.021     2683.049
     NS sqrt iter    2 1.00000000   0.616E+00       0.034     3354.467
     NS sqrt iter    3 1.00000000   0.196E+00       0.034     3371.512
     NS sqrt iter    4 1.00000000   0.241E-01       0.034     3365.660
     NS sqrt iter    5 1.00000000   0.967E-04       0.034     3362.605
     NS sqrt iter    6 1.00000000   0.171E-10       0.017     2164.395
     Symmetrizing Results
     Final NS sqrt iter    6 1.00000000   0.204E-11

     Est. extremal eigenvalues     -0.83083     2.57094  converged:  T
     TRS4 it   1 1.00000000   0.285E+02       0.007     2111.620   0.100E-11
     TRS4 it   2 1.00000000   0.234E+02       0.013     2190.124   0.100E-11
     TRS4 it   3 1.00000000   0.154E+02       0.013     2167.582   0.100E-11
     TRS4 it   4 1.00000000   0.885E+01       0.013     2188.856   0.100E-11
     TRS4 it   5 1.00000000   0.362E+01       0.013     2206.748   0.100E-11
     TRS4 it   6 1.00000000   0.899E+00       0.013     2190.691   0.100E-11
     TRS4 it   7 1.00000000   0.103E+00       0.013     2189.948   0.100E-11
     TRS4 it   8 1.00000000   0.196E-02       0.013     2159.564   0.100E-11
     TRS4 it   9 1.00000000   0.919E-06       0.013     2181.350   0.100E-11
[...]
     TRS4 it   5 1.00000000   0.414E+01       0.013     2190.591   0.100E-11
     TRS4 it   6 1.00000000   0.130E+01       0.013     2178.403   0.100E-11
     TRS4 it   7 1.00000000   0.238E+00       0.013     2198.915   0.100E-11
     TRS4 it   8 1.00000000   0.137E-01       0.013     2182.782   0.100E-11
     TRS4 it   9 1.00000000   0.494E-04       0.013     2213.473   0.100E-11
     TRS4 it  10 1.00000000   0.862E-09       0.013     2184.117   0.100E-11
     TRS4 it  11 1.00000000   0.249E-13       0.013     2186.811   0.100E-11
     Final TRS4 iteration   11 1.00000000   0.249E-13
     Chemical potential (mu):       0.01844
 
 PAO| energy:  -190.71009012323569      penalty:   1.8003148708338323E-008
 PAO| Writing restart file.
     Est. extremal eigenvalues     -0.83080     2.55708  converged:  T
     TRS4 it   1 1.00000000   0.288E+02       0.007     2136.122   0.100E-11
     TRS4 it   2 1.00000000   0.235E+02       0.013     2194.324   0.100E-11
     TRS4 it   3 1.00000000   0.155E+02       0.013     2198.248   0.100E-11
     TRS4 it   4 1.00000000   0.920E+01       0.013     2182.598   0.100E-11
     TRS4 it   5 1.00000000   0.414E+01       0.013     2189.819   0.100E-11
     TRS4 it   6 1.00000000   0.130E+01       0.013     2173.484   0.100E-11
     TRS4 it   7 1.00000000   0.238E+00       0.013     2184.203   0.100E-11
     TRS4 it   8 1.00000000   0.137E-01       0.013     2170.892   0.100E-11
     TRS4 it   9 1.00000000   0.494E-04       0.013     2188.925   0.100E-11
     TRS4 it  10 1.00000000   0.862E-09       0.013     2182.329   0.100E-11
     TRS4 it  11 1.00000000   0.249E-13       0.013     2201.121   0.100E-11
     Final TRS4 iteration   11 1.00000000   0.249E-13
     Chemical potential (mu):       0.01844

 SCF     1     -1103.056866502     -1103.056866502    1.765085

*********************************************************
 Using MIXING_FRACTION=0.450 to mix KS matrix:  iscf=  2
 KS_nw=0.450*KS + 0.550*KS_old
*********************************************************
     Est. extremal eigenvalues     -0.83080     2.55708  converged:  T
     TRS4 it   1 1.00000000   0.288E+02       0.007     2122.033   0.100E-11
     TRS4 it   2 1.00000000   0.235E+02       0.013     2194.564   0.100E-11
     TRS4 it   3 1.00000000   0.155E+02       0.013     2186.892   0.100E-11
     TRS4 it   4 1.00000000   0.920E+01       0.013     2200.491   0.100E-11
     TRS4 it   5 1.00000000   0.414E+01       0.013     2202.944   0.100E-11
     TRS4 it   6 1.00000000   0.130E+01       0.013     2194.806   0.100E-11
     TRS4 it   7 1.00000000   0.238E+00       0.013     2195.238   0.100E-11
     TRS4 it   8 1.00000000   0.137E-01       0.013     2202.465   0.100E-11
     TRS4 it   9 1.00000000   0.494E-04       0.013     2204.628   0.100E-11
     TRS4 it  10 1.00000000   0.862E-09       0.013     2207.926   0.100E-11
     TRS4 it  11 1.00000000   0.888E-14       0.013     2173.492   0.100E-11
     Final TRS4 iteration   11 1.00000000   0.888E-14
     Chemical potential (mu):       0.01844

 SCF     2     -1103.056866502        -0.000000000    1.763435


 SCF run converged in     2 steps.

 PAO| Storing density matrix for ASPC guess in slot:           1

 ENERGY| Total FORCE_EVAL ( QS ) energy [a.u.]:            -1103.056866502401363

 -------------------------------------------------------------------------------
 -                                                                             -
 -                                DBCSR STATISTICS                             -
 -                                                                             -
 -------------------------------------------------------------------------------
 COUNTER                                    TOTAL       BLAS       SMM       ACC
 flops     5 x     5 x     4             26419200       0.0%    100.0%      0.0%     
 flops    13 x     5 x     4             34078720       0.0%    100.0%      0.0%     
 flops     5 x    13 x     4             34078720       0.0%    100.0%      0.0%     
 flops    13 x    13 x     4             44994560       0.0%    100.0%      0.0%     
 flops     4 x     4 x     5           6425149440       0.0%    100.0%      0.0%     
 flops     5 x     4 x     5           7939686400       0.0%    100.0%      0.0%     
 flops     4 x     4 x    13           8352694272       0.0%    100.0%      0.0%     
 flops    13 x     4 x     5          10321592320       0.0%    100.0%      0.0%     
 flops     5 x     4 x    13          10321592320       0.0%    100.0%      0.0%     
 flops    13 x     4 x    13          13418070016       0.0%    100.0%      0.0%     
 flops     5 x     4 x     4         400155895200       0.0%    100.0%      0.0%     
 flops    13 x     4 x     4         526294674880       0.0%    100.0%      0.0%     
 flops     4 x     4 x     4       29546137902848       0.0%    100.0%      0.0%     
 flops inhomo. stacks                           0       0.0%      0.0%      0.0%
 flops total                        30.529507E+12       0.0%    100.0%      0.0%
 flops max/rank                    963.368011E+09       0.0%    100.0%      0.0%
 matmuls inhomo. stacks                         0       0.0%      0.0%      0.0%
 matmuls total                       234745161837       0.0%    100.0%      0.0%
 number of processed stacks             239815857       0.0%    100.0%      0.0%
 average stack size                                     0.0     978.9       0.0
 marketing flops                    52.880149E+12
 -------------------------------------------------------------------------------
 # multiplications                          49610
 max memory usage/rank             618.684416E+06
 # max total images/rank                        2
 # max 3D layers                                1
 # MPI messages exchanged                20637760
 MPI messages size (bytes):
  total size                         2.448590E+12
  min size                           0.000000E+00
  max size                         541.696000E+03
  average size                     118.646117E+03
 MPI breakdown and total messages size (bytes):
             size <=      128              882279                     3072
       128 < size <=     8192              337395               1280565504
      8192 < size <=    32768               62550               1395614592
     32768 < size <=   131072             8841884             659586784000
    131072 < size <=  4194304            10513652            1786714271488
   4194304 < size <= 16777216                   0                        0
  16777216 < size                               0                        0
 -------------------------------------------------------------------------------

 *** WARNING in dbcsr_mm.F:301 :: Using a non-square number of MPI ranks ***
 *** might lead to poor performance. Used ranks: 32 Suggested: 36 64     ***

 -------------------------------------------------------------------------------
 -                                                                             -
 -                      DBCSR MESSAGE PASSING PERFORMANCE                      -
 -                                                                             -
 -------------------------------------------------------------------------------
 ROUTINE             CALLS      AVE VOLUME [Bytes]
 MP_Bcast               14                     12.
 MP_Allreduce       298595                     37.
 MP_Alltoall        128059                  14564.
 MP_ISend          1660344                  55207.
 MP_IRecv          1623932                  56525.
 -------------------------------------------------------------------------------

 -------------------------------------------------------------------------------
 -                                                                             -
 -                                DBM STATISTICS                               -
 -                                                                             -
 -------------------------------------------------------------------------------
    M  x    N  x    K                                          COUNT     PERCENT
 -------------------------------------------------------------------------------

 -------------------------------------------------------------------------------
 -                                                                             -
 -                                GRID STATISTICS                              -
 -                                                                             -
 -------------------------------------------------------------------------------
 LP    KERNEL             BACKEND                              COUNT     PERCENT
 2     collocate ortho    CPU                               13110416      28.83%
 2     integrate ortho    CPU                               13110416      28.83%
 3     collocate ortho    CPU                                8428624      18.53%
 3     integrate ortho    CPU                                8428624      18.53%
 4     collocate ortho    CPU                                1197216       2.63%
 4     integrate ortho    CPU                                1197216       2.63%
 0     collocate general  CPU                                   6144       0.01%
 -------------------------------------------------------------------------------

 MEMORY| Estimated peak process memory [MiB]                                 591

 -------------------------------------------------------------------------------
 -                                                                             -
 -                         MESSAGE PASSING PERFORMANCE                         -
 -                                                                             -
 -------------------------------------------------------------------------------

 ROUTINE             CALLS      AVE VOLUME [Bytes]
 MP_Group                5
 MP_Bcast           392942                   1878.
 MP_Allreduce       976448                    514.
 MP_Sync                 5
 MP_Alltoall           419                7940165.
 MP_SendRecv          1488                  18832.
 MP_ISendRecv         1488                  18832.
 MP_Wait              4218
 MP_ISend             2470                 108139.
 MP_IRecv             2470                 108153.
 -------------------------------------------------------------------------------


 -------------------------------------------------------------------------------
 -                                                                             -
 -                           R E F E R E N C E S                               -
 -                                                                             -
 -------------------------------------------------------------------------------
 
 CP2K version 2024.3 (Development Version), the CP2K developers group (2024).
 CP2K is freely available from https://www.cp2k.org/ .
 
 T. D. Kuehne, M. Iannuzzi, M. Del Ben, V. V. Rybkin, P. Seewald, F. Stein, T. 
 Laino, R. Z. Khaliullin, O. Schuett, F. Schiffmann, D. Golze, J. Wilhelm, S. 
 Chulkov, M. H. Bani-Hashemian, V. Weber, U. Borstnik, M. Taillefumier, A. S. 
 Jakobovits, A. Lazzaro, H. Pabst, T. Mueller, R. Schade, M. Guidon, S. 
 Andermatt, N. Holmberg, G. K. Schenter, A. Hehn, A. Bussy, F. Belleflamme, G. 
 Tabacchi, A. Gloess, M. Lass, I. Bethune, C. J. Mundy, C. Plessl, M. Watkins, 
 J. VandeVondele, M. Krack, J. Hutter.
 J. Chem. Phys. 152, 194103 (2020).
 CP2K: An electronic structure and molecular dynamics software package - 
 Quickstep: Efficient and accurate electronic structure calculations.
 https://doi.org/10.1063/5.0007045

 O. Schuett, J. VandeVondele.
 J. Chem. Theory Comput. 14, 4168-4175 (2018).
 Machine Learning Adaptive Basis Sets for Efficient Large Scale Density 
 Functional Theory Simulation.
 https://doi.org/10.1021/acs.jctc.8b00378

 O. Schuett, P. Messmer, J. Hutter, J. VandeVondele.
 Electronic Structure Calculations on Graphics Processing Units, 173-190 (2016).
 GPU-Accelerated Sparse Matrix-Matrix Multiplication for Linear Scaling Density 
 Functional Theory.
 https://doi.org/10.1002/9781118670712.ch8

 A. Heinecke, G. Henry, M. Hutchinson, H. Pabst.
 Proceedings of Intl. Supercomputing Conference, 981-991 (2016).
 LIBXSMM: Accelerating Small Matrix Multiplications by Runtime Code Generation.
 https://doi.org/10.1109/SC.2016.83

 J. Hutter, M. Iannuzzi, F. Schiffmann, J. VandeVondele.
 WIREs Comput Mol Sci. 4, 15-25 (2014).
 CP2K: atomistic simulations of condensed matter systems.
 https://doi.org/10.1002/wcms.1159

 U. Borstnik, J. VandeVondele, V. Weber, J. Hutter.
 Parallel Comput. 40, 47-58 (2014).
 Sparse matrix multiplication: The distributed block-compressed sparse row 
 library.
 https://doi.org/10.1016/j.parco.2014.03.012

 A. Marek, V. Blum, R. Johanni, V. Havu, B. Lang, T. Auckenthaler, A. Heinecke, 
 H. Bungartz, H. Lederer.
 J. Phys. Condens. Matter 26, 213201 (2014).
 The ELPA library: scalable parallel eigenvalue solutions for electronic 
 structure theory and computational science.
 https://doi.org/10.1088/0953-8984/26/21/213201

 J. VandeVondele, U. Borstnik, J. Hutter.
 J. Chem. Theory Comput. 8, 3565-3573 (2012).
 Linear Scaling Self-Consistent Field Calculations with Millions of Atoms in the 
 Condensed Phase.
 https://doi.org/10.1021/ct200897x

 J. VandeVondele, J. Hutter.
 J. Chem. Phys. 127, 114105 (2007).
 Gaussian basis sets for accurate calculations on molecular systems in gas and 
 condensed phases.
 https://doi.org/10.1063/1.2770708

 J. VandeVondele, M. Krack, F. Mohamed, M. Parrinello, T. Chassaing, J. Hutter.
 Comput. Phys. Commun. 167, 103-128 (2005).
 QUICKSTEP: Fast and accurate density functional calculations using a mixed 
 Gaussian and plane waves approach.
 https://doi.org/10.1016/j.cpc.2004.12.014

 M. Krack.
 Theor. Chem. Acc. 114, 145-152 (2005).
 Pseudopotentials for H to Kr optimized for gradient-corrected 
 exchange-correlation functionals.
 https://doi.org/10.1007/s00214-005-0655-y

 M. Frigo, S. G. Johnson.
 Proc. IEEE 93, 216-231 (2005).
 The design and implementation of FFTW3.
 https://doi.org/10.1109/JPROC.2004.840301

 A. M. N. Niklasson, C. J. Tymczak, M. Challacombe.
 J. Chem. Phys. 118, 8611-8620 (2003).
 Trace resetting density matrix purification in O(N) self-consistent-field 
 theory.
 https://doi.org/10.1063/1.1559913

 C. Hartwigsen, S. Goedecker, J. Hutter.
 Phys. Rev. B 58, 3641-3662 (1998).
 Relativistic separable dual-space Gaussian pseudopotentials from H to Rn.
 https://doi.org/10.1103/PhysRevB.58.3641

 G. Lippert, J. Hutter, M. Parrinello.
 Mol. Phys. 92, 477-487 (1997).
 A hybrid Gaussian and plane wave density functional scheme.
 https://doi.org/10.1080/002689797170220

 S. Goedecker, M. Teter, J. Hutter.
 Phys. Rev. B 54, 1703-1710 (1996).
 Separable dual-space Gaussian pseudopotentials.
 https://doi.org/10.1103/PhysRevB.54.1703

 J. P. Perdew, K. Burke, M. Ernzerhof.
 Phys. Rev. Lett. 77, 3865-3868 (1996).
 Generalized gradient approximation made simple.
 https://doi.org/10.1103/PhysRevLett.77.3865


 -------------------------------------------------------------------------------
 -                                                                             -
 -                                T I M I N G                                  -
 -                                                                             -
 -------------------------------------------------------------------------------
 SUBROUTINE                       CALLS  ASD         SELF TIME        TOTAL TIME
                                MAXIMUM       AVERAGE  MAXIMUM  AVERAGE  MAXIMUM
 CP2K                                 1  1.0    0.013    0.016  448.648  448.648
 qs_energies                          1  2.0    0.000    0.000  448.483  448.483
 ls_scf                               1  3.0    0.000    0.000  447.262  447.262
 pao_update                           7  4.0    0.006    0.025  417.205  417.207
 pao_calc_energy                    806  5.0    0.003    0.019  374.488  374.490
 dbcsr_multiply_generic           49610  8.4    1.386    1.498  345.539  345.778
 multiply_cannon                  49610  9.4    2.567    3.014  279.632  282.530
 multiply_cannon_loop             49610 10.4    1.856    2.127  269.226  272.595
 ls_scf_init_matrix_S               813  7.0    0.008    0.009  209.162  209.225
 pao_rebuild_S                      806  6.0    0.002    0.003  207.333  207.395
 matrix_sqrt_Newton_Schulz          813  8.0    0.168    0.277  194.016  194.059
 multiply_cannon_multrec         396880 11.4  175.754  177.392  176.565  178.176
 pao_dm_trs4                        806  6.0    0.006    0.007  166.775  166.807
 density_matrix_trs4                821  7.0    0.211    0.354  161.200  161.281
 mp_waitall_1                   3176788 12.6   89.254   95.371   89.254   95.371
 multiply_cannon_metrocomm3      396880 11.4    0.692    0.743   71.767   75.905
 arnoldi_extremal                  1634  8.5    0.013    0.014   64.682   64.723
 arnoldi_normal_ev                 1634  9.5    0.038    0.065   64.666   64.706
 build_subspace                    6347 10.6    0.386    0.422   56.750   56.788
 dbcsr_matrix_vector_mult        193678 11.6    0.828    1.258   53.446   53.909
 make_m2s                         99220  9.4    0.536    0.691   50.697   51.484
 make_images                      99220 10.4    7.283    7.542   49.354   50.053
 dbcsr_matrix_vector_mult_local  193678 12.6   45.642   46.021   45.859   46.237
 pao_calc_AB                       1070  5.8    0.002    0.002   42.263   42.266
 pao_calc_AB_equi                  1070  6.8    0.040    0.098   42.261   42.265
 pao_calc_grad_lnv_wrt_AB           263  7.0    0.019    0.024   41.851   41.877
 ls_scf_main                          7  4.0    0.000    0.001   26.526   26.527
 make_images_data                 99220 11.4    0.854    1.020   21.680   23.556
 ls_scf_dm_to_ks                     15  5.0    0.000    0.000   23.377   23.380
 hybrid_alltoall_any             100841 12.3    0.886    1.699   17.054   20.569
 matrix_qs_to_ls                   1634  7.5    0.016    0.021   17.069   17.163
 mp_sum_l                        202715  9.5    7.731   14.105    7.731   14.105
 qs_ks_update_qs_env                 16  6.0    0.000    0.000   13.917   13.918
 rebuild_ks_matrix                   16  7.0    0.000    0.000   13.905   13.906
 qs_ks_build_kohn_sham_matrix        16  8.0    0.003    0.003   13.905   13.906
 calculate_norms                 740960 11.4   11.534   12.678   11.534   12.678
 make_images_pack                 99220 11.4   10.974   11.332   11.108   11.467
 qs_rho_update_rho_low               16  6.0    0.000    0.000   10.920   10.923
 calculate_rho_elec                  16  7.0    0.005    0.006   10.920   10.923
 sum_up_and_integrate                16  9.0    0.000    0.001   10.526   10.527
 integrate_v_rspace                  16 10.0    0.000    0.001   10.511   10.513
 grid_collocate_task_list            16  8.0    9.704    9.816    9.704    9.816
 dbcsr_multiply_generic_mpsum_f   36403  9.5    0.026    0.030    4.554    9.506
 grid_integrate_task_list            16 11.0    9.266    9.358    9.266    9.358
 -------------------------------------------------------------------------------

 The number of warnings for this run is : 1
 
 -------------------------------------------------------------------------------
  **** **** ******  **  PROGRAM ENDED AT                 2024-09-24 06:33:34.507
 ***** ** ***  *** **   PROGRAM RAN ON                                    moritz
 **    ****   ******    PROGRAM RAN BY                                       ole
 ***** **    ** ** **   PROGRAM PROCESS ID                                170281
  **** **  *******  **  PROGRAM STOPPED IN /home/ole/git/pao_ml_equivar/64H2O_MD
                                           /Frame6600
