 DBCSR| CPU Multiplication driver                                           BLAS
 DBCSR| Multrec recursion limit                                              512
 DBCSR| Multiplication stack size                                           1000
 DBCSR| Maximum elements for images                                    UNLIMITED
 DBCSR| Multiplicative factor virtual images                                   1
 DBCSR| Use multiplication densification                                       T
 DBCSR| Multiplication size stacks                                             3


  **** **** ******  **  PROGRAM STARTED AT               2019-03-28 17:33:58.612
 ***** ** ***  *** **   PROGRAM STARTED ON        oleschuett.zrh.corp.google.com
 **    ****   ******    PROGRAM STARTED BY                            oleschuett
 ***** **    ** ** **   PROGRAM PROCESS ID                                 35468
  **** **  *******  **  PROGRAM STARTED IN /usr/local/google/home/oleschuett/git
                                           /pao_ml_equivar/2H2O_rotations/rand_0
                                           4

 CP2K| version string:                    CP2K version 7.0 (Development Version)
 CP2K| source code revision number:                                git:d9814d431
 CP2K| cp2kflags: libint fftw3 libxc libderiv_max_am1=5 libint_max_am=6         
 CP2K| is freely available from                            https://www.cp2k.org/
 CP2K| Program compiled at                          Mon Mar 25 16:50:07 CET 2019
 CP2K| Program compiled on                        oleschuett.zrh.corp.google.com
 CP2K| Program compiled for                                                local
 CP2K| Data directory path       /usr/local/google/home/oleschuett/git/cp2k/data
 CP2K| Input file name                                            2H2O_pao44.inp

 GLOBAL| Force Environment number                                              1
 GLOBAL| Basis set file name                                        BASIS_MOLOPT
 GLOBAL| Potential file name                                      GTH_POTENTIALS
 GLOBAL| MM Potential file name                                     MM_POTENTIAL
 GLOBAL| Coordinate file name                                         coords.xyz
 GLOBAL| Method name                                                        CP2K
 GLOBAL| Project name                                                 2H2O_pao44
 GLOBAL| Preferred FFT library                                             FFTW3
 GLOBAL| Preferred diagonalization lib.                                       SL
 GLOBAL| Run type                                                         ENERGY
 GLOBAL| All-to-all communication in single precision                          F
 GLOBAL| FFTs using library dependent lengths                                  F
 GLOBAL| Global print level                                                  LOW
 GLOBAL| MPI I/O enabled                                                       T
 GLOBAL| Total number of message passing processes                             1
 GLOBAL| Number of threads for this process                                    1
 GLOBAL| This output is from process                                           0
 GLOBAL| CPU model name :  Intel(R) Xeon(R) CPU E5-1650 v4 @ 3.60GHz

 MEMORY| system memory details [Kb]
 MEMORY|                        rank 0           min           max       average
 MEMORY| MemTotal             65953612      65953612      65953612      65953612
 MEMORY| MemFree               4245112       4245112       4245112       4245112
 MEMORY| Buffers               2543220       2543220       2543220       2543220
 MEMORY| Cached               25360144      25360144      25360144      25360144
 MEMORY| Slab                  3622072       3622072       3622072       3622072
 MEMORY| SReclaimable          2421472       2421472       2421472       2421472
 MEMORY| MemLikelyFree        34569948      34569948      34569948      34569948


 GENERATE|  Preliminary Number of Bonds generated:                             0
 GENERATE|  Achieved consistency in connectivity generation.

 *******************************************************************************
 *******************************************************************************
 **                                                                           **
 **     #####                         ##              ##                      **
 **    ##   ##            ##          ##              ##                      **
 **   ##     ##                       ##            ######                    **
 **   ##     ##  ##   ##  ##   #####  ##  ##   ####   ##    #####    #####    **
 **   ##     ##  ##   ##  ##  ##      ## ##   ##      ##   ##   ##  ##   ##   **
 **   ##  ## ##  ##   ##  ##  ##      ####     ###    ##   ######   ######    **
 **    ##  ###   ##   ##  ##  ##      ## ##      ##   ##   ##       ##        **
 **     #######   #####   ##   #####  ##  ##  ####    ##    #####   ##        **
 **           ##                                                    ##        **
 **                                                                           **
 **                                                ... make the atoms dance   **
 **                                                                           **
 **            Copyright (C) by CP2K developers group (2000 - 2018)           **
 **                                                                           **
 *******************************************************************************


 TOTAL NUMBERS AND MAXIMUM NUMBERS

  Total number of            - Atomic kinds:                                   2
                             - Atoms:                                          6
                             - Shell sets:                                     6
                             - Shells:                                        22
                             - Primitive Cartesian functions:                 42
                             - Cartesian basis functions:                     48
                             - Spherical basis functions:                     46

  Maximum angular momentum of- Orbital basis functions:                        2
                             - Local part of the GTH pseudopotential:          2
                             - Non-local part of the GTH pseudopotential:      0

 ------------------------------ Linear scaling SCF -----------------------------
 eps_scf:                                                              0.100E-07
 eps_filter:                                                           0.100E-07
 mixing_fraction:                                                      0.450E+00
 max_scf:                                                                     25
 fixed chemical potential (mu)                                                 F
 has unit metric:                                                              F
 Computing inv(S):                                                             T
 Computing sqrt(S):                                                            T
 Computing s preconditioner                                                    F
 sign sqrt order:                                                              3
 Extrapolation order:                                                          1
 Use single precision matrices                                                 F
 S preconditioner type                                                      NONE
 Polarized Atomic Orbitals (PAO)                                               T
 Purification method                                   Trace resetting 4th order
 Cluster type                                                             ATOMIC
 Computing Chebyshev                                                       FALSE
 Using PAO                                                                     T
 -------------------------------------------------------------------------------

 
 PAO|                                  EPS_PAO                           0.1E-04
 PAO|                                  MIXING                            0.5E+00
 PAO|                                  MAX_PAO                              1000
 PAO|                                  MAX_CYCLES                           1000
 PAO|                                  PARAMETERIZATION                   DIRECT
 PAO|                                  PRECONDITION                            F
 PAO|                                  REGULARIZATION                    0.0E+00
 PAO|                                  EPS_PGF                           0.1E-09
 PAO|                                  PENALTY_DISTANCE                  0.1E+00
 PAO|                                  PENALTY_STRENGTH                  0.5E-02
 PAO|                                  LINPOT_PRECONDITION_DELTA         0.0E+00
 PAO|                                  LINPOT_INITGUESS_DELT             0.0E+00
 PAO|                                  LINPOT_REGULARIZATION_DELTA       0.0E+00
 PAO|                                  LINPOT_REGULARIZATION_STRENGTH    0.0E+00
 PAO|                                  OPTIMIZER                              CG
 PAO|                                  CG_INIT_STEPS                           2
 PAO|                                  CG_RESET_LIMIT                    0.1E+00
 PAO|                                  CHECK_UNITARY_TOL                -0.1E+01
 PAO|                                  CHECK_GRADIENT_TOL               -0.1E+01
 PAO|                                  NUM_GRADIENT_ORDER                      2
 PAO|                                  NUM_GRADIENT_EPS                  0.1E-07
 PAO|                                  PRINT%RESTART%WRITE_CYCLES            100
 PAO|                                  RESTART_FILE 
 PAO|                                  PREOPT_DM_FILE 2H2O_ref_LS_DM_SPIN_1_RESTART.dm
 PAO|                                  MACHINE_LEARNING%METHOD        GAUSSIAN_P
 PAO|                                  MACHINE_LEARNING%PRIOR               ZERO
 PAO|                                  MACHINE_LEARNING%DESCRIPTOR     POTENTIAL
 PAO|                                  MACHINE_LEARNING%TOLERANCE        0.1E-01
 PAO|                                  MACHINE_LEARNING%GP_NOISE_VAR     0.1E+00
 PAO|                                  MACHINE_LEARNING%GP_SCALE         0.5E-01
 

 Calculating atomic Fock matrix for atomic kind: O

 Electronic structure
    Total number of core electrons                                          2.00
    Total number of valence electrons                                       6.00
    Total number of electrons                                               8.00
    Multiplicity                                                   not specified
    S   [  2.00] 2.00
    P      4.00


 *******************************************************************************
                  Iteration          Convergence                     Energy [au]
 *******************************************************************************
                          1        0.708315                     -15.576645311500
                          2        0.608879                     -15.587933561584
                          3        0.102828E-01                 -15.656849565404
                          4        0.113889E-02                 -15.656866888140
                          5        0.434197E-03                 -15.656867072159
                          6        0.263771E-03                 -15.656867091904
                          7        0.478536E-06                 -15.656867103452

 Energy components [Hartree]           Total Energy ::          -15.656867103452
                                        Band Energy ::           -3.000198112285
                                     Kinetic Energy ::           11.759971203220
                                   Potential Energy ::          -27.416838306672
                                      Virial (-V/T) ::            2.331369510426
                                        Core Energy ::          -26.140716385623
                                          XC Energy ::           -3.154051012914
                                     Coulomb Energy ::           13.637900295084
                       Total Pseudopotential Energy ::          -37.935781716540
                       Local Pseudopotential Energy ::          -39.218907440693
                    Nonlocal Pseudopotential Energy ::            1.283125724153
                                        Confinement ::            0.350941276976

 Orbital energies  State     L     Occupation   Energy[a.u.]          Energy[eV]

                       1     0          2.000      -0.864471          -23.523463

                       1     1          4.000      -0.317814           -8.648154


 Total Electron Density at R=0:                                         0.000068

 Calculating atomic Fock matrix for atomic kind: H

 Electronic structure
    Total number of core electrons                                          0.00
    Total number of valence electrons                                       1.00
    Total number of electrons                                               1.00
    Multiplicity                                                   not specified
    S      1.00


 *******************************************************************************
                  Iteration          Convergence                     Energy [au]
 *******************************************************************************
                          1        0.437545E-02                  -0.424159432110
                          2        0.531356E-03                  -0.424178438213
                          3        0.259176E-06                  -0.424178722480

 Energy components [Hartree]           Total Energy ::           -0.424178722480
                                        Band Energy ::           -0.199015229016
                                     Kinetic Energy ::            0.464007633961
                                   Potential Energy ::           -0.888186356441
                                      Virial (-V/T) ::            1.914163240935
                                        Core Energy ::           -0.479160803564
                                          XC Energy ::           -0.244352904054
                                     Coulomb Energy ::            0.299334985138
                       Total Pseudopotential Energy ::           -0.962295316385
                       Local Pseudopotential Energy ::           -0.962295316385
                    Nonlocal Pseudopotential Energy ::            0.000000000000
                                        Confinement ::            0.191268788606

 Orbital energies  State     L     Occupation   Energy[a.u.]          Energy[eV]

                       1     0          1.000      -0.199015           -5.415480


 Total Electron Density at R=0:                                         0.242907
 PAO| Made initial guess for matrix_X with norm:   4.8989794855663558     

     Lanczos converged:  T threshold:   0.100E-02
     Est. extremal eigenvalues:    0.336E+01   0.110E+00
     Est. condition number :    0.306E+02
     NS sqrt iter    1 1.00000000   0.820E+00       0.002       42.032
     NS sqrt iter    2 1.00000000   0.440E+00       0.002       66.121
     NS sqrt iter    3 1.00000000   0.171E+00       0.002       66.314
     NS sqrt iter    4 1.00000000   0.213E-01       0.002       67.382
     NS sqrt iter    5 1.00000000   0.640E-04       0.002       55.140
     Final NS sqrt iter    5 1.00000000   0.346E-08

 PAO| Read restart DM 2H2O_ref_LS_DM_SPIN_1_RESTART.dm with checksum:    61.002871155671052     
 PAO| Quickstep energy from restart density:  -34.450358257820099     
 PAO| ======================= Iteration:         1 =============================

     Lanczos converged:  T threshold:   0.100E-02
     Est. extremal eigenvalues:    0.336E+01   0.110E+00
     Est. condition number :    0.306E+02
     NS sqrt iter    1 1.00000000   0.820E+00       0.002       38.327
     NS sqrt iter    2 1.00000000   0.440E+00       0.002       64.234
     NS sqrt iter    3 1.00000000   0.171E+00       0.002       65.224
     NS sqrt iter    4 1.00000000   0.213E-01       0.002       65.472
     NS sqrt iter    5 1.00000000   0.640E-04       0.002       59.391
     Final NS sqrt iter    5 1.00000000   0.346E-08

     Est. extremal eigenvalues     -0.92035     1.96856  converged:  T
     TRS4 it   1 1.00000000   0.903E+00       0.001       16.128   0.100E-07
     TRS4 it   2 1.00000000   0.713E+00       0.001       32.013   0.100E-07
     TRS4 it   3 1.00000000   0.507E+00       0.001       32.256   0.100E-07
     TRS4 it   4 1.00000000   0.320E+00       0.001       31.995   0.100E-07
     TRS4 it   5 1.00000000   0.160E+00       0.001       32.256   0.100E-07
     TRS4 it   6 1.00000000   0.515E-01       0.001       32.256   0.100E-07
     TRS4 it   7 1.00000000   0.742E-02       0.001       32.256   0.100E-07
     TRS4 it   8 1.00000000   0.218E-03       0.001       32.256   0.100E-07
     TRS4 it   9 1.00000000   0.211E-06       0.001       32.256   0.100E-07
     TRS4 it  10 1.00000000   0.201E-12       0.001       32.256   0.100E-07
     Final TRS4 iteration   10 1.00000000   0.201E-12
     Chemical potential (mu):      -0.06578
 
 PAO| energy:  -7.6277843474666787      penalty:   5.9164567891575904E-033
 PAO|CG| warming up with steepest descent
 PAO|CG| beta:    0.0000000000000000     
 PAO| norm of gradient:  0.78341782080307021     
 PAO|LS| adapt:  T F F
 PAO|LS| adapt: scan_steps:    0.0000000000000000        0.0000000000000000        0.0000000000000000     
 PAO|LS| adapt: energies:   -7.6277843474666787        0.0000000000000000        0.0000000000000000     
 PAO| ======================= Iteration:         2 =============================

     Lanczos converged:  T threshold:   0.100E-02
     Est. extremal eigenvalues:    0.328E+01   0.122E+00
     Est. condition number :    0.269E+02
     NS sqrt iter    1 1.00000000   0.804E+00       0.002       40.260
     NS sqrt iter    2 1.00000000   0.425E+00       0.002       63.472
     NS sqrt iter    3 1.00000000   0.154E+00       0.002       64.461
     NS sqrt iter    4 1.00000000   0.149E-01       0.002       64.433
     NS sqrt iter    5 1.00000000   0.224E-04       0.002       51.685
     Final NS sqrt iter    5 1.00000000   0.791E-09

     Est. extremal eigenvalues     -0.92402     1.91229  converged:  T
     TRS4 it   1 1.00000000   0.901E+00       0.001       16.128   0.100E-07
     TRS4 it   2 1.00000000   0.695E+00       0.001       32.178   0.100E-07
     TRS4 it   3 1.00000000   0.493E+00       0.001       32.256   0.100E-07
     TRS4 it   4 1.00000000   0.301E+00       0.001       32.256   0.100E-07
     TRS4 it   5 1.00000000   0.142E+00       0.001       32.256   0.100E-07
     TRS4 it   6 1.00000000   0.405E-01       0.001       32.256   0.100E-07
     TRS4 it   7 1.00000000   0.464E-02       0.001       32.256   0.100E-07
     TRS4 it   8 1.00000000   0.856E-04       0.001       32.256   0.100E-07
     TRS4 it   9 1.00000000   0.325E-07       0.001       32.256   0.100E-07
     Final TRS4 iteration    9 1.00000000   0.325E-07
     Chemical potential (mu):      -0.05387
 
 PAO| energy:  -7.6832712088025934      penalty:   2.2499936202218868E-008
 PAO|LS| adapt:  T T F
 PAO|LS| adapt: scan_steps:    0.0000000000000000       0.10000000000000001        0.0000000000000000     
 PAO|LS| adapt: energies:   -7.6277843474666787       -7.6832712088025934        0.0000000000000000     
 PAO| ======================= Iteration:         3 =============================

     Lanczos converged:  T threshold:   0.100E-02
     Est. extremal eigenvalues:    0.318E+01   0.133E+00
     Est. condition number :    0.240E+02
     NS sqrt iter    1 1.00000000   0.786E+00       0.002       39.956
     NS sqrt iter    2 1.00000000   0.408E+00       0.002       63.364
     NS sqrt iter    3 1.00000000   0.137E+00       0.002       56.714
     NS sqrt iter    4 1.00000000   0.104E-01       0.002       63.490
     NS sqrt iter    5 1.00000000   0.812E-05       0.002       51.458
     Final NS sqrt iter    5 1.00000000   0.106E-09

     Est. extremal eigenvalues     -0.92745     1.86550  converged:  T
     TRS4 it   1 1.00000000   0.900E+00       0.001       16.128   0.100E-07
     TRS4 it   2 1.00000000   0.679E+00       0.001       32.256   0.100E-07
     TRS4 it   3 1.00000000   0.479E+00       0.001       32.256   0.100E-07
     TRS4 it   4 1.00000000   0.283E+00       0.001       32.256   0.100E-07
     TRS4 it   5 1.00000000   0.124E+00       0.001       32.256   0.100E-07
     TRS4 it   6 1.00000000   0.310E-01       0.001       32.256   0.100E-07
     TRS4 it   7 1.00000000   0.270E-02       0.001       32.256   0.100E-07
     TRS4 it   8 1.00000000   0.289E-04       0.001       32.256   0.100E-07
     TRS4 it   9 1.00000000   0.372E-08       0.001       32.256   0.100E-07
     Final TRS4 iteration    9 1.00000000   0.372E-08
     Chemical potential (mu):      -0.04099
 
 PAO| energy:  -7.7263256517373922      penalty:   3.5999923485857681E-007
 PAO|LS| adapt:  T T F
 PAO|LS| adapt: scan_steps:    0.0000000000000000       0.20000000000000001        0.0000000000000000     
 PAO|LS| adapt: energies:   -7.6277843474666787       -7.7263256517373922        0.0000000000000000     
 PAO| ======================= Iteration:         4 =============================

     Lanczos converged:  T threshold:   0.100E-02
     Est. extremal eigenvalues:    0.299E+01   0.151E+00
     Est. condition number :    0.198E+02
     NS sqrt iter    1 1.00000000   0.749E+00       0.002       36.573
     NS sqrt iter    2 1.00000000   0.374E+00       0.002       62.876
     NS sqrt iter    3 1.00000000   0.107E+00       0.002       64.008
     NS sqrt iter    4 1.00000000   0.523E-02       0.002       64.428
     NS sqrt iter    5 1.00000000   0.122E-05       0.002       50.952
     Final NS sqrt iter    5 1.00000000   0.252E-11

     Est. extremal eigenvalues     -0.93278     1.79398  converged:  T
     TRS4 it   1 1.00000000   0.896E+00       0.001       16.128   0.100E-07
     TRS4 it   2 1.00000000   0.651E+00       0.001       32.256   0.100E-07
     TRS4 it   3 1.00000000   0.452E+00       0.001       32.256   0.100E-07
     TRS4 it   4 1.00000000   0.248E+00       0.001       32.256   0.100E-07
     TRS4 it   5 1.00000000   0.932E-01       0.001       32.256   0.100E-07
     TRS4 it   6 1.00000000   0.168E-01       0.001       32.256   0.100E-07
     TRS4 it   7 1.00000000   0.754E-03       0.001       32.256   0.100E-07
     TRS4 it   8 1.00000000   0.218E-05       0.001       32.256   0.100E-07
     TRS4 it   9 1.00000000   0.210E-10       0.001       32.256   0.100E-07
     Final TRS4 iteration    9 1.00000000   0.210E-10
     Chemical potential (mu):      -0.01246
 
 PAO| energy:  -7.7735325669249047      penalty:   5.7599898027306794E-006
 PAO|LS| Need extra step
 PAO|LS| adapt:  T T F
 PAO|LS| adapt: scan_steps:    0.0000000000000000       0.40000000000000002        0.0000000000000000     
 PAO|LS| adapt: energies:   -7.6277843474666787       -7.7735325669249047        0.0000000000000000     
 PAO| ======================= Iteration:         5 =============================

     Lanczos converged:  T threshold:   0.100E-02
     Est. extremal eigenvalues:    0.263E+01   0.180E+00
     Est. condition number :    0.147E+02
     NS sqrt iter    1 1.00000000   0.685E+00       0.002       38.847
     NS sqrt iter    2 1.00000000   0.312E+00       0.002       63.163
     NS sqrt iter    3 1.00000000   0.668E-01       0.002       64.440
     NS sqrt iter    4 1.00000000   0.146E-02       0.002       63.272
     NS sqrt iter    5 1.00000000   0.315E-07       0.002       41.830
     Final NS sqrt iter    5 1.00000000   0.995E-09

     Est. extremal eigenvalues     -0.93402     1.70621  converged:  T
     TRS4 it   1 1.00000000   0.889E+00       0.001       16.128   0.100E-07
     TRS4 it   2 1.00000000   0.610E+00       0.001       32.256   0.100E-07
     TRS4 it   3 1.00000000   0.405E+00       0.001       32.256   0.100E-07
     TRS4 it   4 1.00000000   0.191E+00       0.001       32.256   0.100E-07
     TRS4 it   5 1.00000000   0.517E-01       0.001       32.256   0.100E-07
     TRS4 it   6 1.00000000   0.470E-02       0.001       32.256   0.100E-07
     TRS4 it   7 1.00000000   0.505E-04       0.001       32.256   0.100E-07
     TRS4 it   8 1.00000000   0.752E-08       0.001       32.256   0.100E-07
     Final TRS4 iteration    8 1.00000000   0.752E-08
     Chemical potential (mu):       0.03594
 
 PAO| energy:  -7.7187417812246473      penalty:   9.2159853203675974E-005
 PAO|LS| Need extra step
 PAO|LS| adapt:  T T T
 PAO|LS| adapt: scan_steps:    0.0000000000000000       0.40000000000000002       0.80000000000000004     
 PAO|LS| adapt: energies:   -7.6277843474666787       -7.7735325669249047       -7.7187417812246473     
 PAO|LS| adapt: suggested step_size:   0.49071295999108622     
 PAO|LS| adapt: predicted energy  -7.7786894532057662     
 PAO| ======================= Iteration:         6 =============================

     Lanczos converged:  T threshold:   0.100E-02
     Est. extremal eigenvalues:    0.290E+01   0.158E+00
     Est. condition number :    0.183E+02
     NS sqrt iter    1 1.00000000   0.733E+00       0.002       40.126
     NS sqrt iter    2 1.00000000   0.359E+00       0.002       63.931
     NS sqrt iter    3 1.00000000   0.961E-01       0.002       64.915
     NS sqrt iter    4 1.00000000   0.388E-02       0.002       63.378
     NS sqrt iter    5 1.00000000   0.529E-06       0.002       51.767
     Final NS sqrt iter    5 1.00000000   0.487E-12

     Est. extremal eigenvalues     -0.93427     1.76888  converged:  T
     TRS4 it   1 1.00000000   0.894E+00       0.001       16.128   0.100E-07
     TRS4 it   2 1.00000000   0.640E+00       0.001       32.256   0.100E-07
     TRS4 it   3 1.00000000   0.440E+00       0.001       32.256   0.100E-07
     TRS4 it   4 1.00000000   0.233E+00       0.001       32.256   0.100E-07
     TRS4 it   5 1.00000000   0.812E-01       0.001       32.256   0.100E-07
     TRS4 it   6 1.00000000   0.125E-01       0.001       32.256   0.100E-07
     TRS4 it   7 1.00000000   0.397E-03       0.001       32.256   0.100E-07
     TRS4 it   8 1.00000000   0.575E-06       0.001       32.256   0.100E-07
     TRS4 it   9 1.00000000   0.144E-11       0.001       32.256   0.100E-07
     Final TRS4 iteration    9 1.00000000   0.144E-11
     Chemical potential (mu):       0.00142
 
 PAO| energy:  -7.7779592450385797      penalty:   1.3046436057904932E-005
 PAO|CG| warming up with steepest descent
 PAO|CG| beta:    0.0000000000000000     
 PAO| norm of gradient:  0.41703179285415315     
 PAO| energy improvement: -0.15017489757190106     
 PAO| step      6                   -7.777959245  0.261E-01  0.491E+00     0.133
 PAO|LS| adapt:  T F F
 PAO|LS| adapt: scan_steps:    0.0000000000000000        0.0000000000000000        0.0000000000000000     
 PAO|LS| adapt: energies:   -7.7779592450385797        0.0000000000000000        0.0000000000000000     
 PAO| ======================= Iteration:         7 =============================

     Lanczos converged:  T threshold:   0.100E-02
     Est. extremal eigenvalues:    0.281E+01   0.172E+00
     Est. condition number :    0.164E+02
     NS sqrt iter    1 1.00000000   0.716E+00       0.002       39.240
     NS sqrt iter    2 1.00000000   0.338E+00       0.002       63.808
     NS sqrt iter    3 1.00000000   0.806E-01       0.002       64.414
     NS sqrt iter    4 1.00000000   0.239E-02       0.002       64.796
     NS sqrt iter    5 1.00000000   0.137E-06       0.002       49.464
     Final NS sqrt iter    5 1.00000000   0.114E-08

     Est. extremal eigenvalues     -0.93599     1.75378  converged:  T
     TRS4 it   1 1.00000000   0.893E+00       0.001       16.128   0.100E-07
     TRS4 it   2 1.00000000   0.637E+00       0.001       32.256   0.100E-07
     TRS4 it   3 1.00000000   0.440E+00       0.001       32.256   0.100E-07
     TRS4 it   4 1.00000000   0.234E+00       0.001       32.256   0.100E-07
     TRS4 it   5 1.00000000   0.820E-01       0.001       32.256   0.100E-07
     TRS4 it   6 1.00000000   0.124E-01       0.001       32.256   0.100E-07
     TRS4 it   7 1.00000000   0.374E-03       0.001       32.256   0.100E-07
     TRS4 it   8 1.00000000   0.484E-06       0.001       32.256   0.100E-07
     TRS4 it   9 1.00000000   0.999E-12       0.001       32.256   0.100E-07
     Final TRS4 iteration    9 1.00000000   0.999E-12
     Chemical potential (mu):       0.00331
 
 PAO| energy:  -7.7720844548987849      penalty:   1.9735903275413508E-005
 PAO|LS| adapt:  T F T
 PAO|LS| adapt: scan_steps:    0.0000000000000000        0.0000000000000000       0.49071295999108622     
 PAO|LS| adapt: energies:   -7.7779592450385797        0.0000000000000000       -7.7720844548987849     
 PAO| ======================= Iteration:         8 =============================

     Lanczos converged:  T threshold:   0.100E-02
     Est. extremal eigenvalues:    0.286E+01   0.165E+00
     Est. condition number :    0.174E+02
     NS sqrt iter    1 1.00000000   0.724E+00       0.002       36.012
     NS sqrt iter    2 1.00000000   0.348E+00       0.002       62.323
     NS sqrt iter    3 1.00000000   0.882E-01       0.002       63.575
     NS sqrt iter    4 1.00000000   0.306E-02       0.002       63.629
     NS sqrt iter    5 1.00000000   0.275E-06       0.002       50.577
     Final NS sqrt iter    5 1.00000000   0.595E-09

     Est. extremal eigenvalues     -0.93608     1.76075  converged:  T
     TRS4 it   1 1.00000000   0.893E+00       0.001       16.128   0.100E-07
     TRS4 it   2 1.00000000   0.638E+00       0.001       32.256   0.100E-07
     TRS4 it   3 1.00000000   0.440E+00       0.001       32.256   0.100E-07
     TRS4 it   4 1.00000000   0.233E+00       0.001       32.256   0.100E-07
     TRS4 it   5 1.00000000   0.813E-01       0.001       32.256   0.100E-07
     TRS4 it   6 1.00000000   0.125E-01       0.001       32.256   0.100E-07
     TRS4 it   7 1.00000000   0.395E-03       0.001       32.256   0.100E-07
     TRS4 it   8 1.00000000   0.560E-06       0.001       32.256   0.100E-07
     TRS4 it   9 1.00000000   0.136E-11       0.001       32.256   0.100E-07
     Final TRS4 iteration    9 1.00000000   0.136E-11
     Chemical potential (mu):       0.00188
 
 PAO| energy:  -7.7975884557433250      penalty:   1.4144159953684552E-005
 PAO|LS| adapt:  T T T
 PAO|LS| adapt: scan_steps:    0.0000000000000000       0.24535647999554311       0.49071295999108622     
 PAO|LS| adapt: energies:   -7.7779592450385797       -7.7975884557433250       -7.7720844548987849     
 PAO|LS| adapt: suggested step_size:   0.22938799714297056     
 PAO|LS| adapt: predicted energy  -7.7976840426681244     
 PAO| ======================= Iteration:         9 =============================

     Lanczos converged:  T threshold:   0.100E-02
     Est. extremal eigenvalues:    0.286E+01   0.164E+00
     Est. condition number :    0.174E+02
     NS sqrt iter    1 1.00000000   0.725E+00       0.002       36.405
     NS sqrt iter    2 1.00000000   0.349E+00       0.002       63.876
     NS sqrt iter    3 1.00000000   0.887E-01       0.002       63.695
     NS sqrt iter    4 1.00000000   0.311E-02       0.002       62.631
     NS sqrt iter    5 1.00000000   0.287E-06       0.002       51.029
     Final NS sqrt iter    5 1.00000000   0.619E-09

     Est. extremal eigenvalues     -0.93602     1.76124  converged:  T
     TRS4 it   1 1.00000000   0.893E+00       0.001       16.128   0.100E-07
     TRS4 it   2 1.00000000   0.638E+00       0.001       32.231   0.100E-07
     TRS4 it   3 1.00000000   0.440E+00       0.001       32.256   0.100E-07
     TRS4 it   4 1.00000000   0.233E+00       0.001       32.256   0.100E-07
     TRS4 it   5 1.00000000   0.813E-01       0.001       32.256   0.100E-07
     TRS4 it   6 1.00000000   0.125E-01       0.001       32.256   0.100E-07
     TRS4 it   7 1.00000000   0.396E-03       0.001       32.256   0.100E-07
     TRS4 it   8 1.00000000   0.563E-06       0.001       32.256   0.100E-07
     TRS4 it   9 1.00000000   0.137E-11       0.001       32.256   0.100E-07
     Final TRS4 iteration    9 1.00000000   0.137E-11
     Chemical potential (mu):       0.00181
 
 PAO| energy:  -7.7977077685715157      penalty:   1.3973978320969412E-005
 PAO|CG| trace_G_new    3.6847426977391858E-002
 PAO|CG| trace_G_prev   0.17391551625114929     
 PAO|CG| trace_G_mix   -1.4386386409082036E-003
 PAO|CG| trace_D   0.17391551625114929     
 PAO|CG| trace_D_Gnew   1.4386386409082036E-003
 PAO|CG| beta:   0.22014174723209640     
 PAO| norm of gradient:  0.19195683623510745     
 PAO| energy improvement:  -1.9748523532935991E-002
 PAO| step      9                   -7.797707769  0.120E-01  0.229E+00     0.085
 PAO|LS| adapt:  T F F
 PAO|LS| adapt: scan_steps:    0.0000000000000000        0.0000000000000000        0.0000000000000000     
 PAO|LS| adapt: energies:   -7.7977077685715157        0.0000000000000000        0.0000000000000000     
 PAO| ======================= Iteration:        10 =============================

     Lanczos converged:  T threshold:   0.100E-02
     Est. extremal eigenvalues:    0.282E+01   0.170E+00
     Est. condition number :    0.166E+02
     NS sqrt iter    1 1.00000000   0.717E+00       0.002       40.057
     NS sqrt iter    2 1.00000000   0.341E+00       0.002       62.949
     NS sqrt iter    3 1.00000000   0.831E-01       0.002       65.127
     NS sqrt iter    4 1.00000000   0.256E-02       0.002       63.492
     NS sqrt iter    5 1.00000000   0.159E-06       0.002       50.201
     Final NS sqrt iter    5 1.00000000   0.957E-09

     Est. extremal eigenvalues     -0.93692     1.75261  converged:  T
     TRS4 it   1 1.00000000   0.890E+00       0.001       16.128   0.100E-07
     TRS4 it   2 1.00000000   0.636E+00       0.001       32.256   0.100E-07
     TRS4 it   3 1.00000000   0.437E+00       0.001       32.256   0.100E-07
     TRS4 it   4 1.00000000   0.230E+00       0.001       32.256   0.100E-07
     TRS4 it   5 1.00000000   0.789E-01       0.001       32.256   0.100E-07
     TRS4 it   6 1.00000000   0.117E-01       0.001       32.256   0.100E-07
     TRS4 it   7 1.00000000   0.343E-03       0.001       32.256   0.100E-07
     TRS4 it   8 1.00000000   0.410E-06       0.001       32.256   0.100E-07
     TRS4 it   9 1.00000000   0.718E-12       0.001       32.256   0.100E-07
     Final TRS4 iteration    9 1.00000000   0.718E-12
     Chemical potential (mu):       0.00500
 
 PAO| energy:  -7.8027375936867100      penalty:   1.4511562083989930E-005
 PAO|LS| adapt:  T T F
 PAO|LS| adapt: scan_steps:    0.0000000000000000       0.22938799714297056        0.0000000000000000     
 PAO|LS| adapt: energies:   -7.7977077685715157       -7.8027375936867100        0.0000000000000000     
 PAO| ======================= Iteration:        11 =============================

     Lanczos converged:  T threshold:   0.100E-02
     Est. extremal eigenvalues:    0.279E+01   0.176E+00
     Est. condition number :    0.158E+02
     NS sqrt iter    1 1.00000000   0.709E+00       0.002       39.907
     NS sqrt iter    2 1.00000000   0.333E+00       0.002       63.752
     NS sqrt iter    3 1.00000000   0.777E-01       0.002       65.827
     NS sqrt iter    4 1.00000000   0.210E-02       0.002       64.406
     NS sqrt iter    5 1.00000000   0.866E-07       0.002       45.469
     Final NS sqrt iter    5 1.00000000   0.683E-09

     Est. extremal eigenvalues     -0.93683     1.74503  converged:  T
     TRS4 it   1 1.00000000   0.887E+00       0.001       16.128   0.100E-07
     TRS4 it   2 1.00000000   0.633E+00       0.001       32.256   0.100E-07
     TRS4 it   3 1.00000000   0.435E+00       0.001       32.256   0.100E-07
     TRS4 it   4 1.00000000   0.227E+00       0.001       32.256   0.100E-07
     TRS4 it   5 1.00000000   0.765E-01       0.001       32.256   0.100E-07
     TRS4 it   6 1.00000000   0.109E-01       0.001       32.256   0.100E-07
     TRS4 it   7 1.00000000   0.295E-03       0.001       32.256   0.100E-07
     TRS4 it   8 1.00000000   0.294E-06       0.001       32.256   0.100E-07
     TRS4 it   9 1.00000000   0.363E-12       0.001       32.256   0.100E-07
     Final TRS4 iteration    9 1.00000000   0.363E-12
     Chemical potential (mu):       0.00829
 
 PAO| energy:  -7.8013118230317744      penalty:   1.5717737252863019E-005
 PAO|LS| adapt:  T T T
 PAO|LS| adapt: scan_steps:    0.0000000000000000       0.22938799714297056       0.45877599428594112     
 PAO|LS| adapt: energies:   -7.7977077685715157       -7.8027375936867100       -7.8013118230317744     
 PAO|LS| adapt: suggested step_size:   0.29341979712479332     
 PAO|LS| adapt: predicted energy  -7.8029891043337329     
 PAO| ======================= Iteration:        12 =============================

     Lanczos converged:  T threshold:   0.100E-02
     Est. extremal eigenvalues:    0.281E+01   0.172E+00
     Est. condition number :    0.164E+02
     NS sqrt iter    1 1.00000000   0.715E+00       0.002       41.169
     NS sqrt iter    2 1.00000000   0.338E+00       0.002       64.431
     NS sqrt iter    3 1.00000000   0.815E-01       0.002       64.876
     NS sqrt iter    4 1.00000000   0.242E-02       0.002       63.216
     NS sqrt iter    5 1.00000000   0.134E-06       0.002       49.285
     Final NS sqrt iter    5 1.00000000   0.110E-08

     Est. extremal eigenvalues     -0.93699     1.75039  converged:  T
     TRS4 it   1 1.00000000   0.889E+00       0.001       16.128   0.100E-07
     TRS4 it   2 1.00000000   0.635E+00       0.001       32.256   0.100E-07
     TRS4 it   3 1.00000000   0.436E+00       0.001       32.256   0.100E-07
     TRS4 it   4 1.00000000   0.229E+00       0.001       32.256   0.100E-07
     TRS4 it   5 1.00000000   0.782E-01       0.001       32.256   0.100E-07
     TRS4 it   6 1.00000000   0.115E-01       0.001       32.256   0.100E-07
     TRS4 it   7 1.00000000   0.329E-03       0.001       32.256   0.100E-07
     TRS4 it   8 1.00000000   0.374E-06       0.001       32.256   0.100E-07
     TRS4 it   9 1.00000000   0.595E-12       0.001       32.256   0.100E-07
     Final TRS4 iteration    9 1.00000000   0.595E-12
     Chemical potential (mu):       0.00591
 
 PAO| energy:  -7.8029729701697761      penalty:   1.4773368263127689E-005
 PAO|CG| trace_G_new    1.1803165349787724E-002
 PAO|CG| trace_G_prev    3.6847426977391858E-002
 PAO|CG| trace_G_mix   -4.6107355179782422E-004
 PAO|CG| trace_D    4.4642379509156845E-002
 PAO|CG| trace_D_Gnew   2.1057922508562442E-004
 PAO|CG| beta:   0.33283840711891244     
 PAO| norm of gradient:  0.10864237363840926     
 PAO| energy improvement:  -5.2652015982603828E-003
 PAO| step     12                   -7.802972970  0.679E-02  0.293E+00     0.083
 PAO|LS| adapt:  T F F
 PAO|LS| adapt: scan_steps:    0.0000000000000000        0.0000000000000000        0.0000000000000000     
 PAO|LS| adapt: energies:   -7.8029729701697761        0.0000000000000000        0.0000000000000000     
 PAO| ======================= Iteration:        13 =============================

     Lanczos converged:  T threshold:   0.100E-02
     Est. extremal eigenvalues:    0.278E+01   0.176E+00
     Est. condition number :    0.158E+02
     NS sqrt iter    1 1.00000000   0.708E+00       0.002       40.507
     NS sqrt iter    2 1.00000000   0.332E+00       0.002       64.763
     NS sqrt iter    3 1.00000000   0.772E-01       0.002       63.804
     NS sqrt iter    4 1.00000000   0.207E-02       0.002       64.743
     NS sqrt iter    5 1.00000000   0.842E-07       0.002       46.955
     Final NS sqrt iter    5 1.00000000   0.675E-09

     Est. extremal eigenvalues     -0.93747     1.74205  converged:  T
     TRS4 it   1 1.00000000   0.888E+00       0.001       16.128   0.100E-07
     TRS4 it   2 1.00000000   0.631E+00       0.001       32.019   0.100E-07
     TRS4 it   3 1.00000000   0.432E+00       0.001       32.256   0.100E-07
     TRS4 it   4 1.00000000   0.224E+00       0.001       32.256   0.100E-07
     TRS4 it   5 1.00000000   0.745E-01       0.001       32.256   0.100E-07
     TRS4 it   6 1.00000000   0.104E-01       0.001       32.256   0.100E-07
     TRS4 it   7 1.00000000   0.264E-03       0.001       32.256   0.100E-07
     TRS4 it   8 1.00000000   0.235E-06       0.001       32.256   0.100E-07
     TRS4 it   9 1.00000000   0.229E-12       0.001       32.256   0.100E-07
     Final TRS4 iteration    9 1.00000000   0.229E-12
     Chemical potential (mu):       0.01047
 
 PAO| energy:  -7.8050383299988280      penalty:   1.5078078496053926E-005
 PAO|LS| adapt:  T T F
 PAO|LS| adapt: scan_steps:    0.0000000000000000       0.29341979712479332        0.0000000000000000     
 PAO|LS| adapt: energies:   -7.8029729701697761       -7.8050383299988280        0.0000000000000000     
 PAO| ======================= Iteration:        14 =============================

     Lanczos converged:  T threshold:   0.100E-02
     Est. extremal eigenvalues:    0.275E+01   0.180E+00
     Est. condition number :    0.152E+02
     NS sqrt iter    1 1.00000000   0.701E+00       0.002       40.673
     NS sqrt iter    2 1.00000000   0.325E+00       0.002       65.861
     NS sqrt iter    3 1.00000000   0.731E-01       0.002       64.622
     NS sqrt iter    4 1.00000000   0.176E-02       0.002       65.087
     NS sqrt iter    5 1.00000000   0.526E-07       0.002       45.519
     Final NS sqrt iter    5 1.00000000   0.435E-09

     Est. extremal eigenvalues     -0.93745     1.73406  converged:  T
     TRS4 it   1 1.00000000   0.887E+00       0.001       16.128   0.100E-07
     TRS4 it   2 1.00000000   0.628E+00       0.001       32.256   0.100E-07
     TRS4 it   3 1.00000000   0.428E+00       0.001       32.256   0.100E-07
     TRS4 it   4 1.00000000   0.219E+00       0.001       29.736   0.100E-07
     TRS4 it   5 1.00000000   0.709E-01       0.001       32.208   0.100E-07
     TRS4 it   6 1.00000000   0.934E-02       0.001       32.256   0.100E-07
     TRS4 it   7 1.00000000   0.212E-03       0.001       32.256   0.100E-07
     TRS4 it   8 1.00000000   0.147E-06       0.001       32.256   0.100E-07
     TRS4 it   9 1.00000000   0.873E-13       0.001       32.256   0.100E-07
     Final TRS4 iteration    9 1.00000000   0.873E-13
     Chemical potential (mu):       0.01494
 
 PAO| energy:  -7.8043987329836755      penalty:   1.5860644997607330E-005
 PAO|LS| adapt:  T T T
 PAO|LS| adapt: scan_steps:    0.0000000000000000       0.29341979712479332       0.58683959424958665     
 PAO|LS| adapt: energies:   -7.8029729701697761       -7.8050383299988280       -7.8043987329836755     
 PAO|LS| adapt: suggested step_size:   0.37074950323429828     
 PAO|LS| adapt: predicted energy  -7.8051322686325371     
 PAO| ======================= Iteration:        15 =============================

     Lanczos converged:  T threshold:   0.100E-02
     Est. extremal eigenvalues:    0.277E+01   0.177E+00
     Est. condition number :    0.156E+02
     NS sqrt iter    1 1.00000000   0.706E+00       0.002       39.968
     NS sqrt iter    2 1.00000000   0.330E+00       0.002       65.664
     NS sqrt iter    3 1.00000000   0.761E-01       0.002       65.532
     NS sqrt iter    4 1.00000000   0.198E-02       0.002       62.767
     NS sqrt iter    5 1.00000000   0.744E-07       0.002       47.728
     Final NS sqrt iter    5 1.00000000   0.597E-09

     Est. extremal eigenvalues     -0.93752     1.73991  converged:  T
     TRS4 it   1 1.00000000   0.888E+00       0.001       16.128   0.100E-07
     TRS4 it   2 1.00000000   0.630E+00       0.001       32.256   0.100E-07
     TRS4 it   3 1.00000000   0.431E+00       0.001       32.256   0.100E-07
     TRS4 it   4 1.00000000   0.223E+00       0.001       32.256   0.100E-07
     TRS4 it   5 1.00000000   0.736E-01       0.001       32.256   0.100E-07
     TRS4 it   6 1.00000000   0.101E-01       0.001       32.256   0.100E-07
     TRS4 it   7 1.00000000   0.249E-03       0.001       32.256   0.100E-07
     TRS4 it   8 1.00000000   0.207E-06       0.001       32.256   0.100E-07
     TRS4 it   9 1.00000000   0.178E-12       0.001       32.256   0.100E-07
     Final TRS4 iteration    9 1.00000000   0.178E-12
     Chemical potential (mu):       0.01166
 
 PAO| energy:  -7.8051291913645837      penalty:   1.5234886782416257E-005
 PAO|CG| trace_G_new    2.6214852195898773E-003
 PAO|CG| trace_G_prev    1.1803165349787724E-002
 PAO|CG| trace_G_mix    6.4213128952357462E-005
 PAO|CG| trace_D    1.6608533177970491E-002
 PAO|CG| trace_D_Gnew   3.3935916745493191E-005
 PAO|CG| beta:   0.21665985478069336     
 PAO| norm of gradient:   5.1200441595653033E-002
 PAO| energy improvement:  -2.1562211948076282E-003
 PAO| step     15                   -7.805129191  0.320E-02  0.371E+00     0.083
 PAO|LS| adapt:  T F F
 PAO|LS| adapt: scan_steps:    0.0000000000000000        0.0000000000000000        0.0000000000000000     
 PAO|LS| adapt: energies:   -7.8051291913645837        0.0000000000000000        0.0000000000000000     
 PAO| ======================= Iteration:        16 =============================

     Lanczos converged:  T threshold:   0.100E-02
     Est. extremal eigenvalues:    0.276E+01   0.178E+00
     Est. condition number :    0.155E+02
     NS sqrt iter    1 1.00000000   0.704E+00       0.002       40.466
     NS sqrt iter    2 1.00000000   0.328E+00       0.002       63.480
     NS sqrt iter    3 1.00000000   0.754E-01       0.002       65.804
     NS sqrt iter    4 1.00000000   0.192E-02       0.002       65.569
     NS sqrt iter    5 1.00000000   0.678E-07       0.002       47.391
     Final NS sqrt iter    5 1.00000000   0.582E-09

     Est. extremal eigenvalues     -0.93754     1.73843  converged:  T
     TRS4 it   1 1.00000000   0.888E+00       0.001       16.128   0.100E-07
     TRS4 it   2 1.00000000   0.629E+00       0.003       11.184   0.100E-07
     TRS4 it   3 1.00000000   0.430E+00       0.001       32.256   0.100E-07
     TRS4 it   4 1.00000000   0.221E+00       0.001       32.256   0.100E-07
     TRS4 it   5 1.00000000   0.723E-01       0.001       32.256   0.100E-07
     TRS4 it   6 1.00000000   0.976E-02       0.001       32.256   0.100E-07
     TRS4 it   7 1.00000000   0.234E-03       0.001       32.256   0.100E-07
     TRS4 it   8 1.00000000   0.185E-06       0.001       32.256   0.100E-07
     TRS4 it   9 1.00000000   0.143E-12       0.001       32.256   0.100E-07
     Final TRS4 iteration    9 1.00000000   0.143E-12
     Chemical potential (mu):       0.01251
 
 PAO| energy:  -7.8052544413363236      penalty:   1.5015979400128638E-005
 PAO|LS| adapt:  T T F
 PAO|LS| adapt: scan_steps:    0.0000000000000000       0.37074950323429828        0.0000000000000000     
 PAO|LS| adapt: energies:   -7.8051291913645837       -7.8052544413363236        0.0000000000000000     
 PAO| ======================= Iteration:        17 =============================

     Lanczos converged:  T threshold:   0.100E-02
     Est. extremal eigenvalues:    0.275E+01   0.179E+00
     Est. condition number :    0.154E+02
     NS sqrt iter    1 1.00000000   0.702E+00       0.002       37.949
     NS sqrt iter    2 1.00000000   0.327E+00       0.002       62.002
     NS sqrt iter    3 1.00000000   0.747E-01       0.002       64.086
     NS sqrt iter    4 1.00000000   0.187E-02       0.002       63.402
     NS sqrt iter    5 1.00000000   0.620E-07       0.002       46.982
     Final NS sqrt iter    5 1.00000000   0.568E-09

     Est. extremal eigenvalues     -0.93745     1.73701  converged:  T
     TRS4 it   1 1.00000000   0.888E+00       0.001       16.128   0.100E-07
     TRS4 it   2 1.00000000   0.628E+00       0.001       32.256   0.100E-07
     TRS4 it   3 1.00000000   0.428E+00       0.001       32.256   0.100E-07
     TRS4 it   4 1.00000000   0.219E+00       0.001       32.256   0.100E-07
     TRS4 it   5 1.00000000   0.711E-01       0.001       32.256   0.100E-07
     TRS4 it   6 1.00000000   0.944E-02       0.001       32.256   0.100E-07
     TRS4 it   7 1.00000000   0.220E-03       0.001       32.256   0.100E-07
     TRS4 it   8 1.00000000   0.165E-06       0.001       32.256   0.100E-07
     TRS4 it   9 1.00000000   0.114E-12       0.001       32.256   0.100E-07
     Final TRS4 iteration    9 1.00000000   0.114E-12
     Chemical potential (mu):       0.01333
 
 PAO| energy:  -7.8036863231357545      penalty:   1.4923296078806188E-005
 PAO|LS| adapt:  T T T
 PAO|LS| adapt: scan_steps:    0.0000000000000000       0.37074950323429828       0.74149900646859657     
 PAO|LS| adapt: energies:   -7.8051291913645837       -7.8052544413363236       -7.8036863231357545     
 PAO|LS| adapt: suggested step_size:   0.21279723750181076     
 PAO|LS| adapt: predicted energy  -7.8054081194288827     
 PAO| ======================= Iteration:        18 =============================

     Lanczos converged:  T threshold:   0.100E-02
     Est. extremal eigenvalues:    0.277E+01   0.178E+00
     Est. condition number :    0.156E+02
     NS sqrt iter    1 1.00000000   0.705E+00       0.002       40.619
     NS sqrt iter    2 1.00000000   0.329E+00       0.002       62.408
     NS sqrt iter    3 1.00000000   0.757E-01       0.002       65.784
     NS sqrt iter    4 1.00000000   0.195E-02       0.002       64.584
     NS sqrt iter    5 1.00000000   0.705E-07       0.002       47.914
     Final NS sqrt iter    5 1.00000000   0.595E-09

     Est. extremal eigenvalues     -0.93755     1.73905  converged:  T
     TRS4 it   1 1.00000000   0.888E+00       0.001       16.128   0.100E-07
     TRS4 it   2 1.00000000   0.630E+00       0.001       32.256   0.100E-07
     TRS4 it   3 1.00000000   0.430E+00       0.001       32.256   0.100E-07
     TRS4 it   4 1.00000000   0.222E+00       0.001       32.256   0.100E-07
     TRS4 it   5 1.00000000   0.728E-01       0.001       32.256   0.100E-07
     TRS4 it   6 1.00000000   0.989E-02       0.001       32.256   0.100E-07
     TRS4 it   7 1.00000000   0.240E-03       0.001       32.256   0.100E-07
     TRS4 it   8 1.00000000   0.194E-06       0.001       32.256   0.100E-07
     TRS4 it   9 1.00000000   0.157E-12       0.001       32.256   0.100E-07
     Final TRS4 iteration    9 1.00000000   0.157E-12
     Chemical potential (mu):       0.01215
 
 PAO| energy:  -7.8054076686950040      penalty:   1.5094089231787430E-005
 PAO|CG| trace_G_new    7.2554908270079990E-004
 PAO|CG| trace_G_prev    2.6214852195898773E-003
 PAO|CG| trace_G_mix    1.4026623307563912E-006
 PAO|CG| trace_D    3.3864094564948185E-003
 PAO|CG| trace_D_Gnew  -1.7113394480042030E-006
 PAO|CG| beta:   0.27623517193941449     
 PAO| norm of gradient:   2.6936018315645686E-002
 PAO| energy improvement:  -2.7847733042030143E-004
 PAO| step     18                   -7.805407669  0.168E-02  0.213E+00     0.084
 PAO|LS| adapt:  T F F
 PAO|LS| adapt: scan_steps:    0.0000000000000000        0.0000000000000000        0.0000000000000000     
 PAO|LS| adapt: energies:   -7.8054076686950040        0.0000000000000000        0.0000000000000000     
 PAO| ======================= Iteration:        19 =============================

     Lanczos converged:  T threshold:   0.100E-02
     Est. extremal eigenvalues:    0.277E+01   0.177E+00
     Est. condition number :    0.156E+02
     NS sqrt iter    1 1.00000000   0.705E+00       0.002       39.110
     NS sqrt iter    2 1.00000000   0.329E+00       0.002       62.789
     NS sqrt iter    3 1.00000000   0.759E-01       0.002       64.084
     NS sqrt iter    4 1.00000000   0.196E-02       0.002       64.838
     NS sqrt iter    5 1.00000000   0.713E-07       0.002       46.627
     Final NS sqrt iter    5 1.00000000   0.612E-09

     Est. extremal eigenvalues     -0.93755     1.73911  converged:  T
     TRS4 it   1 1.00000000   0.888E+00       0.001       16.128   0.100E-07
     TRS4 it   2 1.00000000   0.630E+00       0.001       32.256   0.100E-07
     TRS4 it   3 1.00000000   0.430E+00       0.001       32.256   0.100E-07
     TRS4 it   4 1.00000000   0.221E+00       0.001       32.256   0.100E-07
     TRS4 it   5 1.00000000   0.727E-01       0.001       32.256   0.100E-07
     TRS4 it   6 1.00000000   0.988E-02       0.001       32.256   0.100E-07
     TRS4 it   7 1.00000000   0.241E-03       0.001       32.256   0.100E-07
     TRS4 it   8 1.00000000   0.197E-06       0.001       32.256   0.100E-07
     TRS4 it   9 1.00000000   0.162E-12       0.001       32.256   0.100E-07
     Final TRS4 iteration    9 1.00000000   0.162E-12
     Chemical potential (mu):       0.01187
 
 PAO| energy:  -7.8055254533705076      penalty:   1.4804951865136995E-005
 PAO|LS| adapt:  T T F
 PAO|LS| adapt: scan_steps:    0.0000000000000000       0.21279723750181076        0.0000000000000000     
 PAO|LS| adapt: energies:   -7.8054076686950040       -7.8055254533705076        0.0000000000000000     
 PAO| ======================= Iteration:        20 =============================

     Lanczos converged:  T threshold:   0.100E-02
     Est. extremal eigenvalues:    0.277E+01   0.177E+00
     Est. condition number :    0.156E+02
     NS sqrt iter    1 1.00000000   0.705E+00       0.002       36.008
     NS sqrt iter    2 1.00000000   0.329E+00       0.002       64.802
     NS sqrt iter    3 1.00000000   0.761E-01       0.002       64.946
     NS sqrt iter    4 1.00000000   0.197E-02       0.002       65.155
     NS sqrt iter    5 1.00000000   0.721E-07       0.002       47.744
     Final NS sqrt iter    5 1.00000000   0.626E-09

     Est. extremal eigenvalues     -0.93755     1.73917  converged:  T
     TRS4 it   1 1.00000000   0.888E+00       0.001       16.128   0.100E-07
     TRS4 it   2 1.00000000   0.630E+00       0.001       32.256   0.100E-07
     TRS4 it   3 1.00000000   0.430E+00       0.001       32.256   0.100E-07
     TRS4 it   4 1.00000000   0.221E+00       0.001       32.256   0.100E-07
     TRS4 it   5 1.00000000   0.726E-01       0.001       32.256   0.100E-07
     TRS4 it   6 1.00000000   0.987E-02       0.001       32.256   0.100E-07
     TRS4 it   7 1.00000000   0.241E-03       0.001       32.256   0.100E-07
     TRS4 it   8 1.00000000   0.199E-06       0.001       32.256   0.100E-07
     TRS4 it   9 1.00000000   0.167E-12       0.001       32.256   0.100E-07
     Final TRS4 iteration    9 1.00000000   0.167E-12
     Chemical potential (mu):       0.01158
 
 PAO| energy:  -7.8055694262049817      penalty:   1.4528262051960102E-005
 PAO|LS| adapt:  T T F
 PAO|LS| adapt: scan_steps:    0.0000000000000000       0.42559447500362152        0.0000000000000000     
 PAO|LS| adapt: energies:   -7.8054076686950040       -7.8055694262049817        0.0000000000000000     
 PAO| ======================= Iteration:        21 =============================

     Lanczos converged:  T threshold:   0.100E-02
     Est. extremal eigenvalues:    0.277E+01   0.177E+00
     Est. condition number :    0.156E+02
     NS sqrt iter    1 1.00000000   0.705E+00       0.002       41.526
     NS sqrt iter    2 1.00000000   0.330E+00       0.002       65.556
     NS sqrt iter    3 1.00000000   0.765E-01       0.002       64.665
     NS sqrt iter    4 1.00000000   0.199E-02       0.002       64.370
     NS sqrt iter    5 1.00000000   0.740E-07       0.002       45.598
     Final NS sqrt iter    5 1.00000000   0.647E-09

     Est. extremal eigenvalues     -0.93754     1.73931  converged:  T
     TRS4 it   1 1.00000000   0.888E+00       0.001       16.128   0.100E-07
     TRS4 it   2 1.00000000   0.630E+00       0.001       32.256   0.100E-07
     TRS4 it   3 1.00000000   0.430E+00       0.001       32.256   0.100E-07
     TRS4 it   4 1.00000000   0.221E+00       0.001       32.256   0.100E-07
     TRS4 it   5 1.00000000   0.724E-01       0.001       32.256   0.100E-07
     TRS4 it   6 1.00000000   0.984E-02       0.001       32.256   0.100E-07
     TRS4 it   7 1.00000000   0.242E-03       0.001       31.049   0.100E-07
     TRS4 it   8 1.00000000   0.205E-06       0.001       32.256   0.100E-07
     TRS4 it   9 1.00000000   0.179E-12       0.001       31.469   0.100E-07
     Final TRS4 iteration    9 1.00000000   0.179E-12
     Chemical potential (mu):       0.01100
 
 PAO| energy:  -7.8054335892456557      penalty:   1.4011643495380196E-005
 PAO|LS| Need extra step
 PAO|LS| adapt:  T T T
 PAO|LS| adapt: scan_steps:    0.0000000000000000       0.42559447500362152       0.85118895000724304     
 PAO|LS| adapt: energies:   -7.8054076686950040       -7.8055694262049817       -7.8054335892456557     
 PAO|LS| adapt: suggested step_size:   0.44412916614254211     
 PAO|LS| adapt: predicted energy  -7.8055697084157645     
 PAO| ======================= Iteration:        22 =============================

     Lanczos converged:  T threshold:   0.100E-02
     Est. extremal eigenvalues:    0.277E+01   0.177E+00
     Est. condition number :    0.156E+02
     NS sqrt iter    1 1.00000000   0.705E+00       0.002       39.824
     NS sqrt iter    2 1.00000000   0.329E+00       0.002       63.320
     NS sqrt iter    3 1.00000000   0.761E-01       0.002       63.828
     NS sqrt iter    4 1.00000000   0.197E-02       0.002       64.024
     NS sqrt iter    5 1.00000000   0.722E-07       0.002       47.343
     Final NS sqrt iter    5 1.00000000   0.623E-09

     Est. extremal eigenvalues     -0.93755     1.73918  converged:  T
     TRS4 it   1 1.00000000   0.888E+00       0.001       16.128   0.100E-07
     TRS4 it   2 1.00000000   0.630E+00       0.001       32.256   0.100E-07
     TRS4 it   3 1.00000000   0.430E+00       0.001       32.256   0.100E-07
     TRS4 it   4 1.00000000   0.221E+00       0.001       32.256   0.100E-07
     TRS4 it   5 1.00000000   0.726E-01       0.001       32.256   0.100E-07
     TRS4 it   6 1.00000000   0.987E-02       0.001       32.256   0.100E-07
     TRS4 it   7 1.00000000   0.241E-03       0.001       32.256   0.100E-07
     TRS4 it   8 1.00000000   0.200E-06       0.001       32.256   0.100E-07
     TRS4 it   9 1.00000000   0.167E-12       0.001       32.256   0.100E-07
     Final TRS4 iteration    9 1.00000000   0.167E-12
     Chemical potential (mu):       0.01155
 
 PAO| energy:  -7.8055697424412429      penalty:   1.4504745762674598E-005
 PAO|CG| trace_G_new    2.2104510394503493E-004
 PAO|CG| trace_G_prev    7.2554908270079990E-004
 PAO|CG| trace_G_mix    2.9298712903992578E-006
 PAO|CG| trace_D    9.8489746748100810E-004
 PAO|CG| trace_D_Gnew  -1.8290097770138651E-006
 PAO|CG| beta:   0.30062091987315137     
 PAO| norm of gradient:   1.4867585679761019E-002
 PAO| energy improvement:  -1.6207374623888882E-004
 PAO| step     22                   -7.805569742  0.929E-03  0.444E+00     0.120
 PAO|LS| adapt:  T F F
 PAO|LS| adapt: scan_steps:    0.0000000000000000        0.0000000000000000        0.0000000000000000     
 PAO|LS| adapt: energies:   -7.8055697424412429        0.0000000000000000        0.0000000000000000     
 PAO| ======================= Iteration:        23 =============================

     Lanczos converged:  T threshold:   0.100E-02
     Est. extremal eigenvalues:    0.277E+01   0.177E+00
     Est. condition number :    0.156E+02
     NS sqrt iter    1 1.00000000   0.705E+00       0.002       41.503
     NS sqrt iter    2 1.00000000   0.329E+00       0.002       65.653
     NS sqrt iter    3 1.00000000   0.761E-01       0.002       66.461
     NS sqrt iter    4 1.00000000   0.197E-02       0.003       33.295
     NS sqrt iter    5 1.00000000   0.721E-07       0.002       45.545
     Final NS sqrt iter    5 1.00000000   0.628E-09

     Est. extremal eigenvalues     -0.93755     1.73872  converged:  T
     TRS4 it   1 1.00000000   0.888E+00       0.001       16.128   0.100E-07
     TRS4 it   2 1.00000000   0.630E+00       0.001       32.256   0.100E-07
     TRS4 it   3 1.00000000   0.430E+00       0.002       16.232   0.100E-07
     TRS4 it   4 1.00000000   0.221E+00       0.001       32.256   0.100E-07
     TRS4 it   5 1.00000000   0.727E-01       0.001       32.256   0.100E-07
     TRS4 it   6 1.00000000   0.990E-02       0.001       32.256   0.100E-07
     TRS4 it   7 1.00000000   0.244E-03       0.001       32.256   0.100E-07
     TRS4 it   8 1.00000000   0.204E-06       0.001       32.256   0.100E-07
     TRS4 it   9 1.00000000   0.176E-12       0.001       32.256   0.100E-07
     Final TRS4 iteration    9 1.00000000   0.176E-12
     Chemical potential (mu):       0.01121
 
 PAO| energy:  -7.8056188404320537      penalty:   1.3824457098985211E-005
 PAO|LS| adapt:  T T F
 PAO|LS| adapt: scan_steps:    0.0000000000000000       0.44412916614254211        0.0000000000000000     
 PAO|LS| adapt: energies:   -7.8055697424412429       -7.8056188404320537        0.0000000000000000     
 PAO| ======================= Iteration:        24 =============================

     Lanczos converged:  T threshold:   0.100E-02
     Est. extremal eigenvalues:    0.277E+01   0.177E+00
     Est. condition number :    0.156E+02
     NS sqrt iter    1 1.00000000   0.705E+00       0.002       40.857
     NS sqrt iter    2 1.00000000   0.330E+00       0.002       64.980
     NS sqrt iter    3 1.00000000   0.762E-01       0.002       65.141
     NS sqrt iter    4 1.00000000   0.197E-02       0.002       64.193
     NS sqrt iter    5 1.00000000   0.720E-07       0.002       48.239
     Final NS sqrt iter    5 1.00000000   0.632E-09

     Est. extremal eigenvalues     -0.93754     1.73826  converged:  T
     TRS4 it   1 1.00000000   0.887E+00       0.001       16.128   0.100E-07
     TRS4 it   2 1.00000000   0.630E+00       0.001       32.256   0.100E-07
     TRS4 it   3 1.00000000   0.430E+00       0.001       32.256   0.100E-07
     TRS4 it   4 1.00000000   0.221E+00       0.001       32.256   0.100E-07
     TRS4 it   5 1.00000000   0.728E-01       0.001       32.256   0.100E-07
     TRS4 it   6 1.00000000   0.994E-02       0.001       32.256   0.100E-07
     TRS4 it   7 1.00000000   0.246E-03       0.001       32.256   0.100E-07
     TRS4 it   8 1.00000000   0.209E-06       0.001       32.256   0.100E-07
     TRS4 it   9 1.00000000   0.185E-12       0.001       32.256   0.100E-07
     Final TRS4 iteration    9 1.00000000   0.185E-12
     Chemical potential (mu):       0.01087
 
 PAO| energy:  -7.8055686841758032      penalty:   1.3172380451337343E-005
 PAO|LS| adapt:  T T T
 PAO|LS| adapt: scan_steps:    0.0000000000000000       0.44412916614254211       0.88825833228508422     
 PAO|LS| adapt: energies:   -7.8055697424412429       -7.8056188404320537       -7.8055686841758032     
 PAO|LS| adapt: suggested step_size:   0.44176147628937124     
 PAO|LS| adapt: predicted energy  -7.8056188418424792     
 PAO| ======================= Iteration:        25 =============================

     Lanczos converged:  T threshold:   0.100E-02
     Est. extremal eigenvalues:    0.277E+01   0.177E+00
     Est. condition number :    0.156E+02
     NS sqrt iter    1 1.00000000   0.705E+00       0.002       41.302
     NS sqrt iter    2 1.00000000   0.329E+00       0.002       64.946
     NS sqrt iter    3 1.00000000   0.761E-01       0.002       66.595
     NS sqrt iter    4 1.00000000   0.197E-02       0.002       65.837
     NS sqrt iter    5 1.00000000   0.721E-07       0.002       48.699
     Final NS sqrt iter    5 1.00000000   0.628E-09

     Est. extremal eigenvalues     -0.93755     1.73872  converged:  T
     TRS4 it   1 1.00000000   0.888E+00       0.001       16.128   0.100E-07
     TRS4 it   2 1.00000000   0.630E+00       0.001       32.256   0.100E-07
     TRS4 it   3 1.00000000   0.430E+00       0.001       32.256   0.100E-07
     TRS4 it   4 1.00000000   0.221E+00       0.001       32.256   0.100E-07
     TRS4 it   5 1.00000000   0.727E-01       0.001       32.256   0.100E-07
     TRS4 it   6 1.00000000   0.990E-02       0.001       32.256   0.100E-07
     TRS4 it   7 1.00000000   0.244E-03       0.001       32.256   0.100E-07
     TRS4 it   8 1.00000000   0.204E-06       0.001       32.256   0.100E-07
     TRS4 it   9 1.00000000   0.176E-12       0.001       32.256   0.100E-07
     Final TRS4 iteration    9 1.00000000   0.176E-12
     Chemical potential (mu):       0.01121
 
 PAO| energy:  -7.8056188410205003      penalty:   1.3828008432507898E-005
 PAO|CG| trace_G_new    7.8756760651201967E-005
 PAO|CG| trace_G_prev    2.2104510394503493E-004
 PAO|CG| trace_G_mix    6.7468999772034785E-007
 PAO|CG| trace_D    3.1115285838675271E-004
 PAO|CG| trace_D_Gnew  -3.4718910450546025E-007
 PAO|CG| beta:   0.35324044396340715     
 PAO| norm of gradient:   8.8745005860162048E-003
 PAO| energy improvement:  -4.9098579257389474E-005
 PAO| step     25                   -7.805618841  0.555E-03  0.442E+00     0.084
 PAO|LS| adapt:  T F F
 PAO|LS| adapt: scan_steps:    0.0000000000000000        0.0000000000000000        0.0000000000000000     
 PAO|LS| adapt: energies:   -7.8056188410205003        0.0000000000000000        0.0000000000000000     
 PAO| ======================= Iteration:        26 =============================

     Lanczos converged:  T threshold:   0.100E-02
     Est. extremal eigenvalues:    0.277E+01   0.178E+00
     Est. condition number :    0.156E+02
     NS sqrt iter    1 1.00000000   0.704E+00       0.001       43.782
     NS sqrt iter    2 1.00000000   0.329E+00       0.002       67.638
     NS sqrt iter    3 1.00000000   0.760E-01       0.002       69.070
     NS sqrt iter    4 1.00000000   0.196E-02       0.002       68.415
     NS sqrt iter    5 1.00000000   0.711E-07       0.001       50.373
     Final NS sqrt iter    5 1.00000000   0.626E-09

     Est. extremal eigenvalues     -0.93755     1.73799  converged:  T
     TRS4 it   1 1.00000000   0.887E+00       0.001       16.128   0.100E-07
     TRS4 it   2 1.00000000   0.629E+00       0.001       32.256   0.100E-07
     TRS4 it   3 1.00000000   0.430E+00       0.001       32.256   0.100E-07
     TRS4 it   4 1.00000000   0.221E+00       0.001       32.256   0.100E-07
     TRS4 it   5 1.00000000   0.726E-01       0.001       32.256   0.100E-07
     TRS4 it   6 1.00000000   0.988E-02       0.001       32.256   0.100E-07
     TRS4 it   7 1.00000000   0.242E-03       0.001       32.256   0.100E-07
     TRS4 it   8 1.00000000   0.202E-06       0.001       32.256   0.100E-07
     TRS4 it   9 1.00000000   0.171E-12       0.001       32.256   0.100E-07
     Final TRS4 iteration    9 1.00000000   0.171E-12
     Chemical potential (mu):       0.01131
 
 PAO| energy:  -7.8056225323850796      penalty:   1.3107661045458593E-005
 PAO|LS| adapt:  T T F
 PAO|LS| adapt: scan_steps:    0.0000000000000000       0.44176147628937124        0.0000000000000000     
 PAO|LS| adapt: energies:   -7.8056188410205003       -7.8056225323850796        0.0000000000000000     
 PAO| ======================= Iteration:        27 =============================

     Lanczos converged:  T threshold:   0.100E-02
     Est. extremal eigenvalues:    0.277E+01   0.178E+00
     Est. condition number :    0.156E+02
     NS sqrt iter    1 1.00000000   0.704E+00       0.002       41.982
     NS sqrt iter    2 1.00000000   0.329E+00       0.002       64.836
     NS sqrt iter    3 1.00000000   0.759E-01       0.002       65.671
     NS sqrt iter    4 1.00000000   0.195E-02       0.002       65.946
     NS sqrt iter    5 1.00000000   0.701E-07       0.002       47.434
     Final NS sqrt iter    5 1.00000000   0.620E-09

     Est. extremal eigenvalues     -0.93755     1.73726  converged:  T
     TRS4 it   1 1.00000000   0.887E+00       0.001       16.128   0.100E-07
     TRS4 it   2 1.00000000   0.629E+00       0.001       32.256   0.100E-07
     TRS4 it   3 1.00000000   0.430E+00       0.001       32.256   0.100E-07
     TRS4 it   4 1.00000000   0.221E+00       0.001       32.256   0.100E-07
     TRS4 it   5 1.00000000   0.725E-01       0.001       32.256   0.100E-07
     TRS4 it   6 1.00000000   0.985E-02       0.001       32.256   0.100E-07
     TRS4 it   7 1.00000000   0.241E-03       0.001       32.256   0.100E-07
     TRS4 it   8 1.00000000   0.199E-06       0.001       32.256   0.100E-07
     TRS4 it   9 1.00000000   0.166E-12       0.001       32.256   0.100E-07
     Final TRS4 iteration    9 1.00000000   0.166E-12
     Chemical potential (mu):       0.01141
 
 PAO| energy:  -7.8055638123859143      penalty:   1.2410802409119367E-005
 PAO|LS| adapt:  T T T
 PAO|LS| adapt: scan_steps:    0.0000000000000000       0.44176147628937124       0.88352295257874247     
 PAO|LS| adapt: energies:   -7.8056188410205003       -7.8056225323850796       -7.8055638123859143     
 PAO|LS| adapt: suggested step_size:   0.24700903543303676     
 PAO|LS| adapt: predicted energy  -7.8056285972874520     
 PAO| ======================= Iteration:        28 =============================

     Lanczos converged:  T threshold:   0.100E-02
     Est. extremal eigenvalues:    0.277E+01   0.177E+00
     Est. condition number :    0.156E+02
     NS sqrt iter    1 1.00000000   0.704E+00       0.002       41.820
     NS sqrt iter    2 1.00000000   0.329E+00       0.002       64.024
     NS sqrt iter    3 1.00000000   0.761E-01       0.002       65.285
     NS sqrt iter    4 1.00000000   0.196E-02       0.002       66.338
     NS sqrt iter    5 1.00000000   0.715E-07       0.002       47.994
     Final NS sqrt iter    5 1.00000000   0.629E-09

     Est. extremal eigenvalues     -0.93755     1.73831  converged:  T
     TRS4 it   1 1.00000000   0.888E+00       0.001       16.128   0.100E-07
     TRS4 it   2 1.00000000   0.630E+00       0.001       32.256   0.100E-07
     TRS4 it   3 1.00000000   0.430E+00       0.001       32.256   0.100E-07
     TRS4 it   4 1.00000000   0.221E+00       0.001       32.256   0.100E-07
     TRS4 it   5 1.00000000   0.726E-01       0.001       32.256   0.100E-07
     TRS4 it   6 1.00000000   0.989E-02       0.001       32.256   0.100E-07
     TRS4 it   7 1.00000000   0.243E-03       0.001       32.256   0.100E-07
     TRS4 it   8 1.00000000   0.203E-06       0.001       32.256   0.100E-07
     TRS4 it   9 1.00000000   0.173E-12       0.001       32.256   0.100E-07
     Final TRS4 iteration    9 1.00000000   0.173E-12
     Chemical potential (mu):       0.01127
 
 PAO| energy:  -7.8056285882199798      penalty:   1.3422315465526753E-005
 PAO|CG| trace_G_new    3.0594699392955800E-005
 PAO|CG| trace_G_prev    7.8756760651201967E-005
 PAO|CG| trace_G_mix    4.6244910198587873E-008
 PAO|CG| trace_D    1.1782732690502594E-004
 PAO|CG| trace_D_Gnew  -2.4214583102104506E-008
 PAO|CG| beta:   0.38788358269393841     
 PAO| norm of gradient:   5.5312475439954593E-003
 PAO| energy improvement:  -9.7471994795483852E-006
 PAO| step     28                   -7.805628588  0.346E-03  0.247E+00     0.080
 PAO|LS| adapt:  T F F
 PAO|LS| adapt: scan_steps:    0.0000000000000000        0.0000000000000000        0.0000000000000000     
 PAO|LS| adapt: energies:   -7.8056285882199798        0.0000000000000000        0.0000000000000000     
 PAO| ======================= Iteration:        29 =============================

     Lanczos converged:  T threshold:   0.100E-02
     Est. extremal eigenvalues:    0.277E+01   0.178E+00
     Est. condition number :    0.156E+02
     NS sqrt iter    1 1.00000000   0.704E+00       0.002       42.308
     NS sqrt iter    2 1.00000000   0.329E+00       0.002       65.383
     NS sqrt iter    3 1.00000000   0.760E-01       0.002       66.492
     NS sqrt iter    4 1.00000000   0.196E-02       0.002       65.501
     NS sqrt iter    5 1.00000000   0.711E-07       0.002       48.554
     Final NS sqrt iter    5 1.00000000   0.626E-09

     Est. extremal eigenvalues     -0.93755     1.73804  converged:  T
     TRS4 it   1 1.00000000   0.888E+00       0.001       16.128   0.100E-07
     TRS4 it   2 1.00000000   0.629E+00       0.001       32.256   0.100E-07
     TRS4 it   3 1.00000000   0.430E+00       0.001       32.256   0.100E-07
     TRS4 it   4 1.00000000   0.221E+00       0.001       32.256   0.100E-07
     TRS4 it   5 1.00000000   0.725E-01       0.001       32.256   0.100E-07
     TRS4 it   6 1.00000000   0.986E-02       0.001       32.256   0.100E-07
     TRS4 it   7 1.00000000   0.242E-03       0.001       32.256   0.100E-07
     TRS4 it   8 1.00000000   0.200E-06       0.001       32.256   0.100E-07
     TRS4 it   9 1.00000000   0.170E-12       0.001       32.256   0.100E-07
     Final TRS4 iteration    9 1.00000000   0.170E-12
     Chemical potential (mu):       0.01139
 
 PAO| energy:  -7.8056352415390364      penalty:   1.2999884397387532E-005
 PAO|LS| adapt:  T T F
 PAO|LS| adapt: scan_steps:    0.0000000000000000       0.24700903543303676        0.0000000000000000     
 PAO|LS| adapt: energies:   -7.8056285882199798       -7.8056352415390364        0.0000000000000000     
 PAO| ======================= Iteration:        30 =============================

     Lanczos converged:  T threshold:   0.100E-02
     Est. extremal eigenvalues:    0.276E+01   0.178E+00
     Est. condition number :    0.156E+02
     NS sqrt iter    1 1.00000000   0.704E+00       0.002       41.977
     NS sqrt iter    2 1.00000000   0.329E+00       0.002       65.096
     NS sqrt iter    3 1.00000000   0.759E-01       0.002       65.728
     NS sqrt iter    4 1.00000000   0.196E-02       0.002       66.415
     NS sqrt iter    5 1.00000000   0.706E-07       0.002       48.235
     Final NS sqrt iter    5 1.00000000   0.622E-09

     Est. extremal eigenvalues     -0.93755     1.73777  converged:  T
     TRS4 it   1 1.00000000   0.888E+00       0.001       16.128   0.100E-07
     TRS4 it   2 1.00000000   0.629E+00       0.001       32.256   0.100E-07
     TRS4 it   3 1.00000000   0.430E+00       0.001       32.256   0.100E-07
     TRS4 it   4 1.00000000   0.221E+00       0.001       32.256   0.100E-07
     TRS4 it   5 1.00000000   0.724E-01       0.001       32.256   0.100E-07
     TRS4 it   6 1.00000000   0.984E-02       0.001       32.256   0.100E-07
     TRS4 it   7 1.00000000   0.240E-03       0.001       32.256   0.100E-07
     TRS4 it   8 1.00000000   0.198E-06       0.001       32.256   0.100E-07
     TRS4 it   9 1.00000000   0.164E-12       0.001       32.256   0.100E-07
     Final TRS4 iteration    9 1.00000000   0.164E-12
     Chemical potential (mu):       0.01151
 
 PAO| energy:  -7.8056400827143015      penalty:   1.2584955454933358E-005
 PAO|LS| adapt:  T T F
 PAO|LS| adapt: scan_steps:    0.0000000000000000       0.49401807086607352        0.0000000000000000     
 PAO|LS| adapt: energies:   -7.8056285882199798       -7.8056400827143015        0.0000000000000000     
 PAO| ======================= Iteration:        31 =============================

     Lanczos converged:  T threshold:   0.100E-02
     Est. extremal eigenvalues:    0.276E+01   0.178E+00
     Est. condition number :    0.156E+02
     NS sqrt iter    1 1.00000000   0.704E+00       0.002       42.055
     NS sqrt iter    2 1.00000000   0.329E+00       0.002       65.192
     NS sqrt iter    3 1.00000000   0.758E-01       0.002       66.420
     NS sqrt iter    4 1.00000000   0.195E-02       0.002       65.868
     NS sqrt iter    5 1.00000000   0.697E-07       0.002       48.574
     Final NS sqrt iter    5 1.00000000   0.616E-09

     Est. extremal eigenvalues     -0.93755     1.73722  converged:  T
     TRS4 it   1 1.00000000   0.887E+00       0.001       16.128   0.100E-07
     TRS4 it   2 1.00000000   0.629E+00       0.001       32.256   0.100E-07
     TRS4 it   3 1.00000000   0.429E+00       0.001       32.256   0.100E-07
     TRS4 it   4 1.00000000   0.220E+00       0.001       32.256   0.100E-07
     TRS4 it   5 1.00000000   0.722E-01       0.001       32.256   0.100E-07
     TRS4 it   6 1.00000000   0.979E-02       0.001       32.256   0.100E-07
     TRS4 it   7 1.00000000   0.238E-03       0.001       32.256   0.100E-07
     TRS4 it   8 1.00000000   0.193E-06       0.001       32.256   0.100E-07
     TRS4 it   9 1.00000000   0.156E-12       0.001       32.256   0.100E-07
     Final TRS4 iteration    9 1.00000000   0.156E-12
     Chemical potential (mu):       0.01174
 
 PAO| energy:  -7.8056443292011011      penalty:   1.1777459961696661E-005
 PAO|LS| Need extra step
 PAO|LS| adapt:  T T F
 PAO|LS| adapt: scan_steps:    0.0000000000000000       0.98803614173214704        0.0000000000000000     
 PAO|LS| adapt: energies:   -7.8056285882199798       -7.8056443292011011        0.0000000000000000     
 PAO| ======================= Iteration:        32 =============================

     Lanczos converged:  T threshold:   0.100E-02
     Est. extremal eigenvalues:    0.276E+01   0.178E+00
     Est. condition number :    0.155E+02
     NS sqrt iter    1 1.00000000   0.703E+00       0.002       41.853
     NS sqrt iter    2 1.00000000   0.328E+00       0.002       65.502
     NS sqrt iter    3 1.00000000   0.755E-01       0.002       65.744
     NS sqrt iter    4 1.00000000   0.193E-02       0.002       66.937
     NS sqrt iter    5 1.00000000   0.680E-07       0.002       48.208
     Final NS sqrt iter    5 1.00000000   0.618E-09

     Est. extremal eigenvalues     -0.93756     1.73611  converged:  T
     TRS4 it   1 1.00000000   0.887E+00       0.001       16.128   0.100E-07
     TRS4 it   2 1.00000000   0.629E+00       0.001       32.256   0.100E-07
     TRS4 it   3 1.00000000   0.429E+00       0.001       32.256   0.100E-07
     TRS4 it   4 1.00000000   0.220E+00       0.001       32.256   0.100E-07
     TRS4 it   5 1.00000000   0.718E-01       0.001       32.256   0.100E-07
     TRS4 it   6 1.00000000   0.968E-02       0.001       32.256   0.100E-07
     TRS4 it   7 1.00000000   0.232E-03       0.001       32.256   0.100E-07
     TRS4 it   8 1.00000000   0.183E-06       0.001       32.256   0.100E-07
     TRS4 it   9 1.00000000   0.141E-12       0.001       32.256   0.100E-07
     Final TRS4 iteration    9 1.00000000   0.141E-12
     Chemical potential (mu):       0.01222
 
 PAO| energy:  -7.8056310772937447      penalty:   1.0250919851173487E-005
 PAO|LS| Need extra step
 PAO|LS| adapt:  T T T
 PAO|LS| adapt: scan_steps:    0.0000000000000000       0.98803614173214704        1.9760722834642941     
 PAO|LS| adapt: energies:   -7.8056285882199798       -7.8056443292011011       -7.8056310772937447     
 PAO|LS| adapt: suggested step_size:    1.0304481773773446     
 PAO|LS| adapt: predicted energy  -7.8056443559123423     
 PAO| ======================= Iteration:        33 =============================

     Lanczos converged:  T threshold:   0.100E-02
     Est. extremal eigenvalues:    0.276E+01   0.178E+00
     Est. condition number :    0.156E+02
     NS sqrt iter    1 1.00000000   0.704E+00       0.002       42.121
     NS sqrt iter    2 1.00000000   0.329E+00       0.002       65.092
     NS sqrt iter    3 1.00000000   0.758E-01       0.002       66.244
     NS sqrt iter    4 1.00000000   0.195E-02       0.002       66.327
     NS sqrt iter    5 1.00000000   0.696E-07       0.002       48.558
     Final NS sqrt iter    5 1.00000000   0.616E-09

     Est. extremal eigenvalues     -0.93755     1.73717  converged:  T
     TRS4 it   1 1.00000000   0.887E+00       0.001       16.128   0.100E-07
     TRS4 it   2 1.00000000   0.629E+00       0.001       32.256   0.100E-07
     TRS4 it   3 1.00000000   0.429E+00       0.001       32.256   0.100E-07
     TRS4 it   4 1.00000000   0.220E+00       0.001       32.256   0.100E-07
     TRS4 it   5 1.00000000   0.722E-01       0.001       32.256   0.100E-07
     TRS4 it   6 1.00000000   0.978E-02       0.001       32.256   0.100E-07
[...]
     NS sqrt iter    4 1.00000000   0.767E-03       0.002       66.936
     NS sqrt iter    5 1.00000000   0.592E-08       0.001       28.317
     Final NS sqrt iter    5 1.00000000   0.345E-09

     Est. extremal eigenvalues     -0.93724     1.63367  converged:  T
     TRS4 it   1 1.00000000   0.881E+00       0.000       16.128   0.100E-07
     TRS4 it   2 1.00000000   0.634E+00       0.001       32.256   0.100E-07
     TRS4 it   3 1.00000000   0.456E+00       0.001       32.256   0.100E-07
     TRS4 it   4 1.00000000   0.278E+00       0.001       32.256   0.100E-07
     TRS4 it   5 1.00000000   0.138E+00       0.001       32.256   0.100E-07
     TRS4 it   6 1.00000000   0.434E-01       0.001       32.256   0.100E-07
     TRS4 it   7 1.00000000   0.601E-02       0.001       32.256   0.100E-07
     TRS4 it   8 1.00000000   0.153E-03       0.001       32.256   0.100E-07
     TRS4 it   9 1.00000000   0.105E-06       0.001       32.256   0.100E-07
     TRS4 it  10 1.00000000   0.499E-13       0.001       32.256   0.100E-07
     Final TRS4 iteration   10 1.00000000   0.499E-13
     Chemical potential (mu):      -0.07575
 
 PAO| energy:  -7.8047791574539422      penalty:   3.1028976573583797E-008
 PAO|LS| Need extra step
 PAO|LS| adapt:  T T T
 PAO|LS| adapt: scan_steps:    0.0000000000000000       0.20000000000000001       0.40000000000000002     
 PAO|LS| adapt: energies:   -7.8047791531616557       -7.8047791587478530       -7.8047791574539422     
 PAO|LS| adapt: suggested step_size:   0.26238690587380092     
 PAO|LS| adapt: predicted energy  -7.8047791590825808     
 PAO| ======================= Iteration:       408 =============================

     Lanczos converged:  T threshold:   0.100E-02
     Est. extremal eigenvalues:    0.249E+01   0.190E+00
     Est. condition number :    0.131E+02
     NS sqrt iter    1 1.00000000   0.633E+00       0.001       49.151
     NS sqrt iter    2 1.00000000   0.275E+00       0.002       69.158
     NS sqrt iter    3 1.00000000   0.487E-01       0.002       66.388
     NS sqrt iter    4 1.00000000   0.767E-03       0.002       68.971
     NS sqrt iter    5 1.00000000   0.592E-08       0.001       30.151
     Final NS sqrt iter    5 1.00000000   0.345E-09

     Est. extremal eigenvalues     -0.93724     1.63367  converged:  T
     TRS4 it   1 1.00000000   0.881E+00       0.001       16.128   0.100E-07
     TRS4 it   2 1.00000000   0.634E+00       0.001       32.256   0.100E-07
     TRS4 it   3 1.00000000   0.456E+00       0.001       32.256   0.100E-07
     TRS4 it   4 1.00000000   0.278E+00       0.001       32.256   0.100E-07
     TRS4 it   5 1.00000000   0.138E+00       0.001       32.256   0.100E-07
     TRS4 it   6 1.00000000   0.434E-01       0.001       32.256   0.100E-07
     TRS4 it   7 1.00000000   0.601E-02       0.001       32.256   0.100E-07
     TRS4 it   8 1.00000000   0.153E-03       0.001       32.256   0.100E-07
     TRS4 it   9 1.00000000   0.105E-06       0.001       32.256   0.100E-07
     TRS4 it  10 1.00000000   0.505E-13       0.001       32.256   0.100E-07
     Final TRS4 iteration   10 1.00000000   0.505E-13
     Chemical potential (mu):      -0.07575
 
 PAO| energy:  -7.8047791590825852      penalty:   3.1376846447618539E-008
 PAO|CG| warming up with steepest descent
 PAO|CG| beta:    0.0000000000000000     
 PAO| norm of gradient:   1.4330118282913690E-004
 PAO| energy improvement:  -5.9209295244500026E-009
 PAO| step    408                   -7.804779159  0.896E-05  0.262E+00     0.087
 PAO| converged after          408  steps :-)
 PAO| Recalculating energy after mixing.

     Lanczos converged:  T threshold:   0.100E-02
     Est. extremal eigenvalues:    0.249E+01   0.190E+00
     Est. condition number :    0.131E+02
     NS sqrt iter    1 1.00000000   0.633E+00       0.002       39.962
     NS sqrt iter    2 1.00000000   0.275E+00       0.002       70.670
     NS sqrt iter    3 1.00000000   0.487E-01       0.001       73.907
     NS sqrt iter    4 1.00000000   0.767E-03       0.001       80.778
     NS sqrt iter    5 1.00000000   0.592E-08       0.001       28.853
     Final NS sqrt iter    5 1.00000000   0.345E-09

     Est. extremal eigenvalues     -0.93724     1.63366  converged:  T
     TRS4 it   1 1.00000000   0.881E+00       0.000       16.128   0.100E-07
     TRS4 it   2 1.00000000   0.634E+00       0.001       32.256   0.100E-07
     TRS4 it   3 1.00000000   0.456E+00       0.001       32.256   0.100E-07
     TRS4 it   4 1.00000000   0.278E+00       0.001       32.256   0.100E-07
     TRS4 it   5 1.00000000   0.138E+00       0.001       32.256   0.100E-07
     TRS4 it   6 1.00000000   0.434E-01       0.001       32.256   0.100E-07
     TRS4 it   7 1.00000000   0.601E-02       0.001       32.256   0.100E-07
     TRS4 it   8 1.00000000   0.153E-03       0.001       32.256   0.100E-07
     TRS4 it   9 1.00000000   0.105E-06       0.001       32.256   0.100E-07
     TRS4 it  10 1.00000000   0.498E-13       0.001       32.256   0.100E-07
     Final TRS4 iteration   10 1.00000000   0.498E-13
     Chemical potential (mu):      -0.07575
 
 PAO| energy:  -7.8047791576023409      penalty:   3.1710288683901399E-008
 PAO| Writing restart file.
     Est. extremal eigenvalues     -0.93724     1.63366  converged:  T
     TRS4 it   1 1.00000000   0.881E+00       0.000       16.128   0.100E-07
     TRS4 it   2 1.00000000   0.634E+00       0.001       32.256   0.100E-07
     TRS4 it   3 1.00000000   0.456E+00       0.001       32.256   0.100E-07
     TRS4 it   4 1.00000000   0.278E+00       0.001       32.256   0.100E-07
     TRS4 it   5 1.00000000   0.138E+00       0.001       32.256   0.100E-07
     TRS4 it   6 1.00000000   0.434E-01       0.001       32.256   0.100E-07
     TRS4 it   7 1.00000000   0.601E-02       0.001       32.256   0.100E-07
     TRS4 it   8 1.00000000   0.153E-03       0.001       32.256   0.100E-07
     TRS4 it   9 1.00000000   0.105E-06       0.001       32.256   0.100E-07
     TRS4 it  10 1.00000000   0.498E-13       0.001       32.256   0.100E-07
     Final TRS4 iteration   10 1.00000000   0.498E-13
     Chemical potential (mu):      -0.07575

 SCF     1       -34.449812411       -34.449812411    1.720710

*********************************************************
 Using MIXING_FRACTION=0.450 to mix KS matrix:  iscf=  2
 KS_nw=0.450*KS + 0.550*KS_old
*********************************************************
     Est. extremal eigenvalues     -0.93725     1.63367  converged:  T
     TRS4 it   1 1.00000000   0.881E+00       0.000       16.128   0.100E-07
     TRS4 it   2 1.00000000   0.634E+00       0.001       32.256   0.100E-07
     TRS4 it   3 1.00000000   0.456E+00       0.001       32.256   0.100E-07
     TRS4 it   4 1.00000000   0.278E+00       0.001       32.256   0.100E-07
     TRS4 it   5 1.00000000   0.138E+00       0.001       32.256   0.100E-07
     TRS4 it   6 1.00000000   0.434E-01       0.001       32.256   0.100E-07
     TRS4 it   7 1.00000000   0.601E-02       0.001       32.256   0.100E-07
     TRS4 it   8 1.00000000   0.153E-03       0.001       32.256   0.100E-07
     TRS4 it   9 1.00000000   0.105E-06       0.001       32.256   0.100E-07
     TRS4 it  10 1.00000000   0.502E-13       0.001       32.256   0.100E-07
     Final TRS4 iteration   10 1.00000000   0.502E-13
     Chemical potential (mu):      -0.07575

 SCF     2       -34.449812411        -0.000000000    2.199404

 PAO| Storing density matrix for ASPC guess in slot:           1

 ENERGY| Total FORCE_EVAL ( QS ) energy (a.u.):              -34.449812411358280


 -------------------------------------------------------------------------------
 -                                                                             -
 -                                DBCSR STATISTICS                             -
 -                                                                             -
 -------------------------------------------------------------------------------
 COUNTER                                    TOTAL       BLAS       SMM       ACC
 flops     5 x     5 x     4                20000     100.0%      0.0%      0.0%
 flops    13 x     5 x     4                20800     100.0%      0.0%      0.0%
 flops     5 x    13 x     4                20800     100.0%      0.0%      0.0%
 flops    13 x    13 x     4                40560     100.0%      0.0%      0.0%
 flops     4 x     4 x     5              3206400     100.0%      0.0%      0.0%
 flops     5 x     4 x     5              3920000     100.0%      0.0%      0.0%
 flops     4 x     4 x    13              4168320     100.0%      0.0%      0.0%
 flops    13 x     4 x     5              5096000     100.0%      0.0%      0.0%
 flops     5 x     4 x    13              5096000     100.0%      0.0%      0.0%
 flops     5 x     4 x     4              6211520     100.0%      0.0%      0.0%
 flops    13 x     4 x    13              6624800     100.0%      0.0%      0.0%
 flops    13 x     4 x     4              8208096     100.0%      0.0%      0.0%
 flops     4 x     4 x     4            415109120     100.0%      0.0%      0.0%
 flops inhomo. stacks                           0       0.0%      0.0%      0.0%
 flops total                       457.742416E+06     100.0%      0.0%      0.0%
 flops max/rank                    457.742416E+06     100.0%      0.0%      0.0%
 matmuls inhomo. stacks                         0       0.0%      0.0%      0.0%
 matmuls total                            3375963     100.0%      0.0%      0.0%
 number of processed stacks                 26875     100.0%      0.0%      0.0%
 average stack size                                   125.6       0.0       0.0
 marketing flops                   744.339264E+06
 -------------------------------------------------------------------------------
 # multiplications                          22488
 max memory usage/rank             328.056832E+06
 # max total images/rank                        1
 # max 3D layers                                1
 # MPI messages exchanged                       0
 MPI messages size (bytes):
  total size                         0.000000E+00
  min size                           0.000000E+00
  max size                           0.000000E+00
  average size                       0.000000E+00
 MPI breakdown and total messages size (bytes):
             size <=      128                   0                        0
       128 < size <=     8192                   0                        0
      8192 < size <=    32768                   0                        0
     32768 < size <=   131072                   0                        0
    131072 < size <=  4194304                   0                        0
   4194304 < size <= 16777216                   0                        0
  16777216 < size                               0                        0
 -------------------------------------------------------------------------------

 MEMORY| Estimated peak process memory [MiB]                                 313

 -------------------------------------------------------------------------------
 -                                                                             -
 -                           R E F E R E N C E S                               -
 -                                                                             -
 -------------------------------------------------------------------------------
 
 CP2K version 7.0 (Development Version), the CP2K developers group (2018).
 CP2K is freely available from https://www.cp2k.org/ .

 Schuett, O; VandeVondele, J. 
 Journal of Chemical Theory and Computation, 14, (2018). 
 Machine Learning Adaptive Basis Sets for Efficient Large Scale Density Functional Theory Simulation.
 https://dx.doi.org/10.1021/acs.jctc.8b00378


 Schuett, Ole; Messmer, Peter; Hutter, Juerg; VandeVondele, Joost. 
 Electronic Structure Calculations on Graphics Processing Units, John Wiley & Sons, Ltd, 173-190 (2016). 
 GPU-Accelerated Sparse Matrix-Matrix Multiplication for Linear Scaling Density Functional Theory.
 https://dx.doi.org/10.1002/9781118670712.ch8


 Borstnik, U; VandeVondele, J; Weber, V; Hutter, J. 
 PARALLEL COMPUTING, 40 (5-6), 47-58 (2014). 
 Sparse matrix multiplication: The distributed block-compressed sparse
 row library.
 https://dx.doi.org/10.1016/j.parco.2014.03.012


 Hutter, J; Iannuzzi, M; Schiffmann, F; VandeVondele, J. 
 WILEY INTERDISCIPLINARY REVIEWS-COMPUTATIONAL MOLECULAR SCIENCE, 4 (1), 15-25 (2014). 
 CP2K: atomistic simulations of condensed matter systems.
 https://dx.doi.org/10.1002/wcms.1159


 VandeVondele, J; Borstnik, U; Hutter, J. 
 JOURNAL OF CHEMICAL THEORY AND COMPUTATION, 8 (10), 3565-3573 (2012). 
 Linear Scaling Self-Consistent Field Calculations with Millions of Atoms
 in the Condensed Phase.
 https://dx.doi.org/10.1021/ct200897x


 VandeVondele, J; Hutter, J. 
 JOURNAL OF CHEMICAL PHYSICS, 127 (11), 114105 (2007). 
 Gaussian basis sets for accurate calculations on molecular systems in
 gas and condensed phases.
 https://dx.doi.org/10.1063/1.2770708


 Krack, M. 
 THEORETICAL CHEMISTRY ACCOUNTS, 114 (1-3), 145-152 (2005). 
 Pseudopotentials for H to Kr optimized for gradient-corrected
 exchange-correlation functionals.
 https://dx.doi.org/10.1007/s00214-005-0655-y


 VandeVondele, J; Krack, M; Mohamed, F; Parrinello, M; Chassaing, T;
 Hutter, J. COMPUTER PHYSICS COMMUNICATIONS, 167 (2), 103-128 (2005). 
 QUICKSTEP: Fast and accurate density functional calculations using a
 mixed Gaussian and plane waves approach.
 https://dx.doi.org/10.1016/j.cpc.2004.12.014


 Frigo, M; Johnson, SG. 
 PROCEEDINGS OF THE IEEE, 93 (2), 216-231 (2005). 
 The design and implementation of FFTW3.
 https://dx.doi.org/10.1109/JPROC.2004.840301


 Niklasson, AMN; Tymczak, CJ; Challacombe, M. 
 JOURNAL OF CHEMICAL PHYSICS, 118 (19), 8611-8620 (2003). 
 Trace resetting density matrix purification in O(N)
 self-consistent-field theory.
 https://dx.doi.org/10.1063/1.1559913


 Hartwigsen, C; Goedecker, S; Hutter, J. 
 PHYSICAL REVIEW B, 58 (7), 3641-3662 (1998). 
 Relativistic separable dual-space Gaussian pseudopotentials from H to Rn.
 https://dx.doi.org/10.1103/PhysRevB.58.3641


 Lippert, G; Hutter, J; Parrinello, M. 
 MOLECULAR PHYSICS, 92 (3), 477-487 (1997). 
 A hybrid Gaussian and plane wave density functional scheme.
 https://dx.doi.org/10.1080/002689797170220


 Perdew, JP; Burke, K; Ernzerhof, M. 
 PHYSICAL REVIEW LETTERS, 77 (18), 3865-3868 (1996). 
 Generalized gradient approximation made simple.
 https://dx.doi.org/10.1103/PhysRevLett.77.3865


 Goedecker, S; Teter, M; Hutter, J. 
 PHYSICAL REVIEW B, 54 (3), 1703-1710 (1996). 
 Separable dual-space Gaussian pseudopotentials.
 https://dx.doi.org/10.1103/PhysRevB.54.1703


 -------------------------------------------------------------------------------
 -                                                                             -
 -                                T I M I N G                                  -
 -                                                                             -
 -------------------------------------------------------------------------------
 SUBROUTINE                       CALLS  ASD         SELF TIME        TOTAL TIME
                                MAXIMUM       AVERAGE  MAXIMUM  AVERAGE  MAXIMUM
 CP2K                                 1  1.0    0.040    0.040   31.698   31.698
 qs_energies                          1  2.0    0.000    0.000   31.183   31.183
 ls_scf                               1  3.0    0.000    0.000   31.055   31.055
 ls_scf_main                          4  4.0    0.001    0.001   17.257   17.257
 ls_scf_dm_to_ks                      9  5.0    0.000    0.000   17.154   17.154
 qs_ks_update_qs_env                 10  6.0    0.000    0.000   13.974   13.974
 rebuild_ks_matrix                   10  7.0    0.000    0.000   13.974   13.974
 qs_ks_build_kohn_sham_matrix        10  8.0    0.001    0.001   13.974   13.974
 pao_update                           4  4.0    0.011    0.011   11.361   11.361
 pao_calc_energy                    411  5.0    0.004    0.004   10.239   10.239
 dbcsr_multiply_generic           22488  8.4    0.534    0.534    8.729    8.729
 qs_vxc_create                       10  9.0    0.000    0.000    8.396    8.396
 xc_vxc_pw_create                    10 10.0    0.104    0.104    8.396    8.396
 xc_rho_set_and_dset_create          10 11.0    0.032    0.032    6.065    6.065
 pw_transfer                        191 10.6    0.013    0.013    5.955    5.955
 fft_wrap_pw1pw2                    171 11.7    0.002    0.002    5.865    5.865
 fft_wrap_pw1pw2_200                111 12.8    0.324    0.324    5.606    5.606
 qs_rho_update_rho                   10  6.0    0.000    0.000    5.534    5.534
 calculate_rho_elec                  10  7.0    4.254    4.254    5.534    5.534
 pao_dm_trs4                        411  6.0    0.004    0.004    5.298    5.298
 density_matrix_trs4                420  7.0    0.196    0.196    5.103    5.103
 ls_scf_init_matrix_S               415  7.0    0.004    0.004    4.932    4.932
 pao_rebuild_S                      411  6.0    0.003    0.003    4.893    4.893
 sum_up_and_integrate                10  9.0    0.017    0.017    4.703    4.703
 integrate_v_rspace                  10 10.0    3.966    3.966    4.686    4.686
 matrix_sqrt_Newton_Schulz          415  8.0    0.127    0.127    4.456    4.456
 xc_functional_eval                  10 12.0    0.000    0.000    4.178    4.178
 pbe_lda_eval                        10 13.0    4.178    4.178    4.178    4.178
 multiply_cannon                  22488  9.4    1.380    1.380    4.110    4.110
 fft3d_s                            172 13.6    3.076    3.076    3.091    3.091
 make_m2s                         44976  9.4    0.197    0.197    2.777    2.777
 make_images                      44976 10.4    0.672    0.672    2.444    2.444
 pao_guess_initial_P                  1  4.0    0.000    0.000    2.360    2.360
 pao_read_preopt_dm                   1  5.0    0.000    0.000    2.360    2.360
 multiply_cannon_multrec          22488 10.4    1.454    1.454    1.589    1.589
 pw_gather_s                         81 13.1    1.392    1.392    1.392    1.392
 density_rs2pw                       10  8.0    0.001    0.001    1.267    1.267
 arnoldi_extremal                   835  8.5    0.005    0.005    1.267    1.267
 arnoldi_normal_ev                  835  9.5    0.014    0.014    1.262    1.262
 pao_calc_AB                        542  5.8    0.001    0.001    1.102    1.102
 pao_calc_AB_direct                 542  6.8    0.031    0.031    1.101    1.101
 pw_scatter_s                        90 14.2    1.043    1.043    1.043    1.043
 pao_calc_grad_lnv_wrt_AB           130  7.0    0.008    0.008    1.039    1.039
 build_subspace                     835 10.5    0.064    0.064    0.953    0.953
 dbcsr_matrix_vector_mult         20033 11.5    0.131    0.131    0.863    0.863
 dbcsr_finalize                   53587  9.6    0.128    0.128    0.800    0.800
 dbcsr_create_new                171978 10.7    0.386    0.386    0.742    0.742
 potential_pw2rs                     10 11.0    0.004    0.004    0.718    0.718
 -------------------------------------------------------------------------------

 The number of warnings for this run is : 0
 
 -------------------------------------------------------------------------------
  **** **** ******  **  PROGRAM ENDED AT                 2019-03-28 17:34:30.408
 ***** ** ***  *** **   PROGRAM RAN ON            oleschuett.zrh.corp.google.com
 **    ****   ******    PROGRAM RAN BY                                oleschuett
 ***** **    ** ** **   PROGRAM PROCESS ID                                 35468
  **** **  *******  **  PROGRAM STOPPED IN /usr/local/google/home/oleschuett/git
                                           /pao_ml_equivar/2H2O_rotations/rand_0
                                           4
