 DBCSR| CPU Multiplication driver                                           XSMM (U)
 DBCSR| Multrec recursion limit                                              512 (U)
 DBCSR| Multiplication stack size                                           1000 (D)
 DBCSR| Maximum elements for images                                    UNLIMITED (U)
 DBCSR| Multiplicative factor virtual images                                   1 (U)
 DBCSR| Use multiplication densification                                       T (D)
 DBCSR| Multiplication size stacks                                             3 (U)
 DBCSR| Use memory pool for CPU allocation                                     F (U)
 DBCSR| OMP: Current number of threads                                         1
 DBCSR| OMP: Max number of threads                                             1
 DBCSR| Split modifier for TAS multiplication algorithm                  1.0E+00 (U)


  **** **** ******  **  PROGRAM STARTED AT               2023-02-01 10:43:54.935
 ***** ** ***  *** **   PROGRAM STARTED ON                                moritz
 **    ****   ******    PROGRAM STARTED BY                                   ole
 ***** **    ** ** **   PROGRAM PROCESS ID                                148497
  **** **  *******  **  PROGRAM STARTED IN /home/ole/git/pao_ml_equivar/2H2O_rot
                                           ations/rand_04

 CP2K| version string:                 CP2K version 2023.1 (Development Version)
 CP2K| source code revision number:                                  git:03b4147
 CP2K| cp2kflags: omp libint fftw3 libxc quip xsmm spglib libvori libbqb libtorc
 CP2K|            h
 CP2K| is freely available from                            https://www.cp2k.org/
 CP2K| Program compiled at                           Mi 01 Feb 2023 10:36:52 CET
 CP2K| Program compiled on                                                moritz
 CP2K| Program compiled for                                                local
 CP2K| Data directory path                               /home/ole/git/cp2k/data
 CP2K| Input file name                                            2H2O_pao44.inp

 GLOBAL| Force Environment number                                              1
 GLOBAL| Basis set file name                                        BASIS_MOLOPT
 GLOBAL| Potential file name                                      GTH_POTENTIALS
 GLOBAL| MM Potential file name                                     MM_POTENTIAL
 GLOBAL| Coordinate file name                                         coords.xyz
 GLOBAL| Method name                                                        CP2K
 GLOBAL| Project name                                                 2H2O_pao44
 GLOBAL| Run type                                                         ENERGY
 GLOBAL| FFT library                                                       FFTW3
 GLOBAL| Diagonalization library                                       ScaLAPACK
 GLOBAL| DGEMM library                                                      BLAS
 GLOBAL| Orthonormality check for eigenvectors                          DISABLED
 GLOBAL| Matrix multiplication library                                 ScaLAPACK
 GLOBAL| All-to-all communication in single precision                          F
 GLOBAL| FFTs using library dependent lengths                                  F
 GLOBAL| Grid backend                                                       AUTO
 GLOBAL| Global print level                                                  LOW
 GLOBAL| MPI I/O enabled                                                       T
 GLOBAL| Total number of message passing processes                             1
 GLOBAL| Number of threads for this process                                    1
 GLOBAL| This output is from process                                           0
 GLOBAL| Stack size for threads created by OpenMP (OMP_STACKSIZE)        default
 GLOBAL| CPU model name           AMD Ryzen Threadripper 3970X 32-Core Processor
 GLOBAL| CPUID                                                              1002
 GLOBAL| Compiled for CPUID                                                    0

 *** HINT in environment.F:884 :: The compiler target flags (generic) used ***
 *** to build this binary cannot exploit all extensions of this CPU model  ***
 *** (x86_avx2). Consider compiler target flags as part of FCFLAGS and     ***
 *** CFLAGS (ARCH file).                                                   ***


 MEMORY| system memory details [Kb]
 MEMORY|                        rank 0           min           max       average
 MEMORY| MemTotal            131773860     131773860     131773860     131773860
 MEMORY| MemFree             115422716     115422716     115422716     115422716
 MEMORY| Buffers                301492        301492        301492        301492
 MEMORY| Cached                7000768       7000768       7000768       7000768
 MEMORY| Slab                   776600        776600        776600        776600
 MEMORY| SReclaimable           330700        330700        330700        330700
 MEMORY| MemLikelyFree       123055676     123055676     123055676     123055676


 GENERATE|  Preliminary Number of Bonds generated:                             0
 GENERATE|  Achieved consistency in connectivity generation.

 *******************************************************************************
 *******************************************************************************
 **                                                                           **
 **     #####                         ##              ##                      **
 **    ##   ##            ##          ##              ##                      **
 **   ##     ##                       ##            ######                    **
 **   ##     ##  ##   ##  ##   #####  ##  ##   ####   ##    #####    #####    **
 **   ##     ##  ##   ##  ##  ##      ## ##   ##      ##   ##   ##  ##   ##   **
 **   ##  ## ##  ##   ##  ##  ##      ####     ###    ##   ######   ######    **
 **    ##  ###   ##   ##  ##  ##      ## ##      ##   ##   ##       ##        **
 **     #######   #####   ##   #####  ##  ##  ####    ##    #####   ##        **
 **           ##                                                    ##        **
 **                                                                           **
 **                                                ... make the atoms dance   **
 **                                                                           **
 **            Copyright (C) by CP2K developers group (2000-2023)             **
 **                      J. Chem. Phys. 152, 194103 (2020)                    **
 **                                                                           **
 *******************************************************************************


 TOTAL NUMBERS AND MAXIMUM NUMBERS

  Total number of            - Atomic kinds:                                   2
                             - Atoms:                                          6
                             - Shell sets:                                     6
                             - Shells:                                        22
                             - Primitive Cartesian functions:                 42
                             - Cartesian basis functions:                     48
                             - Spherical basis functions:                     46

  Maximum angular momentum of- Orbital basis functions:                        2
                             - Local part of the GTH pseudopotential:          2
                             - Non-local part of the GTH pseudopotential:      0

 ------------------------------ Linear scaling SCF -----------------------------
 eps_scf:                                                              0.100E-07
 eps_filter:                                                           0.100E-07
 mixing_fraction:                                                      0.450E+00
 max_scf:                                                                     25
 fixed chemical potential (mu)                                                 F
 has unit metric:                                                              F
 Computing inv(S):                                                             T
 Computing sqrt(S):                                                            T
 Computing S preconditioner                                                    F
 S sqrt method:                                                     NEWTONSCHULZ
 S sqrt order:                                                                 3
 Extrapolation order:                                                          1
 Use single precision matrices                                                 F
 S preconditioner type                                                      NONE
 Polarized Atomic Orbitals (PAO)                                               T
 Purification method                                   Trace resetting 4th order
 Cluster type                                                             ATOMIC
 Computing Chebyshev                                                       FALSE
 Using PAO                                                                     T
 -------------------------------------------------------------------------------

 
 PAO|                                  EPS_PAO                           0.1E-04
 PAO|                                  MIXING                            0.5E+00
 PAO|                                  MAX_PAO                              1000
 PAO|                                  MAX_CYCLES                           1000
 PAO|                                  PARAMETERIZATION              EQUIVARIANT
 PAO|                                  PRECONDITION                            F
 PAO|                                  REGULARIZATION                    0.0E+00
 PAO|                                  EPS_PGF                           0.1E-09
 PAO|                                  PENALTY_DISTANCE                  0.1E+00
 PAO|                                  PENALTY_STRENGTH                  0.5E-02
 PAO|                                  LINPOT_PRECONDITION_DELTA         0.0E+00
 PAO|                                  LINPOT_INITGUESS_DELT             0.0E+00
 PAO|                                  LINPOT_REGULARIZATION_DELTA       0.0E+00
 PAO|                                  LINPOT_REGULARIZATION_STRENGTH    0.0E+00
 PAO|                                  OPTIMIZER                              CG
 PAO|                                  CG_INIT_STEPS                           2
 PAO|                                  CG_RESET_LIMIT                    0.1E+00
 PAO|                                  CHECK_UNITARY_TOL                -0.1E+01
 PAO|                                  CHECK_GRADIENT_TOL               -0.1E+01
 PAO|                                  NUM_GRADIENT_ORDER                      2
 PAO|                                  NUM_GRADIENT_EPS                  0.1E-07
 PAO|                                  PRINT%RESTART%WRITE_CYCLES            100
 PAO|                                  RESTART_FILE 
 PAO|                                  PREOPT_DM_FILE 2H2O_ref_LS_DM_SPIN_1_RESTART.dm
 PAO|                                  MACHINE_LEARNING%METHOD       GAUSSIAN_PR
 PAO|                                  MACHINE_LEARNING%PRIOR               ZERO
 PAO|                                  MACHINE_LEARNING%DESCRIPTOR     POTENTIAL
 PAO|                                  MACHINE_LEARNING%TOLERANCE        0.1E-01
 PAO|                                  MACHINE_LEARNING%GP_NOISE_VAR     0.1E+00
 PAO|                                  MACHINE_LEARNING%GP_SCALE         0.5E-01
 

 Calculating atomic Fock matrix for atomic kind: O

 Electronic structure
    Total number of core electrons                                          2.00
    Total number of valence electrons                                       6.00
    Total number of electrons                                               8.00
    Multiplicity                                                   not specified
    S   [  2.00] 2.00
    P      4.00


 *******************************************************************************
                  Iteration          Convergence                     Energy [au]
 *******************************************************************************
                          1        0.708315                     -15.576645311500
                          2        0.608879                     -15.587933561584
                          3        0.102828E-01                 -15.656849565404
                          4        0.113889E-02                 -15.656866888140
                          5        0.434197E-03                 -15.656867072159
                          6        0.263771E-03                 -15.656867091904
                          7        0.478536E-06                 -15.656867103452

 Energy components [Hartree]           Total Energy ::          -15.656867103452
                                        Band Energy ::           -3.000198112285
                                     Kinetic Energy ::           11.759971203220
                                   Potential Energy ::          -27.416838306672
                                      Virial (-V/T) ::            2.331369510426
                                        Core Energy ::          -26.140716385623
                                          XC Energy ::           -3.154051012914
                                     Coulomb Energy ::           13.637900295084
                       Total Pseudopotential Energy ::          -37.935781716540
                       Local Pseudopotential Energy ::          -39.218907440693
                    Nonlocal Pseudopotential Energy ::            1.283125724153
                                        Confinement ::            0.350941276976

 Orbital energies  State     L     Occupation   Energy[a.u.]          Energy[eV]

                       1     0          2.000      -0.864471          -23.523463

                       1     1          4.000      -0.317814           -8.648154


 Total Electron Density at R=0:                                         0.000068

 Calculating atomic Fock matrix for atomic kind: H

 Electronic structure
    Total number of core electrons                                          0.00
    Total number of valence electrons                                       1.00
    Total number of electrons                                               1.00
    Multiplicity                                                   not specified
    S      1.00


 *******************************************************************************
                  Iteration          Convergence                     Energy [au]
 *******************************************************************************
                          1        0.437545E-02                  -0.424159432110
                          2        0.531356E-03                  -0.424178438213
                          3        0.259176E-06                  -0.424178722480

 Energy components [Hartree]           Total Energy ::           -0.424178722480
                                        Band Energy ::           -0.199015229016
                                     Kinetic Energy ::            0.464007633961
                                   Potential Energy ::           -0.888186356441
                                      Virial (-V/T) ::            1.914163240935
                                        Core Energy ::           -0.479160803564
                                          XC Energy ::           -0.244352904054
                                     Coulomb Energy ::            0.299334985138
                       Total Pseudopotential Energy ::           -0.962295316385
                       Local Pseudopotential Energy ::           -0.962295316385
                    Nonlocal Pseudopotential Energy ::            0.000000000000
                                        Confinement ::            0.191268788606

 Orbital energies  State     L     Occupation   Energy[a.u.]          Energy[eV]

                       1     0          1.000      -0.199015           -5.415480


 Total Electron Density at R=0:                                         0.242907
 PAO| Made initial guess for matrix_X with norm:   4.8989794855663558     

     Lanczos converged:  T threshold:   0.100E-02
     Est. extremal eigenvalues:    0.337E+01   0.115E+00
     Est. condition number :    0.293E+02

 Order=           3
     NS sqrt iter    1 1.00000000   0.824E+00       0.001       62.890
     NS sqrt iter    2 1.00000000   0.441E+00       0.001      110.592
     NS sqrt iter    3 1.00000000   0.170E+00       0.001      110.592
     NS sqrt iter    4 1.00000000   0.207E-01       0.001      110.592
     NS sqrt iter    5 1.00000000   0.549E-04       0.001       90.752
     Symmetrizing Results
     Final NS sqrt iter    5 1.00000000   0.566E-08

 PAO| Read restart DM 2H2O_ref_LS_DM_SPIN_1_RESTART.dm with checksum:    72.109168388739874     
 PAO| Quickstep energy from restart density:  -34.449988103903614     
 PAO| ======================= Iteration:         1 =============================

     Lanczos converged:  T threshold:   0.100E-02
     Est. extremal eigenvalues:    0.337E+01   0.115E+00
     Est. condition number :    0.293E+02

 Order=           3
     NS sqrt iter    1 1.00000000   0.824E+00       0.001       59.019
     NS sqrt iter    2 1.00000000   0.441E+00       0.001      102.747
     NS sqrt iter    3 1.00000000   0.170E+00       0.001      103.741
     NS sqrt iter    4 1.00000000   0.207E-01       0.001      102.150
     NS sqrt iter    5 1.00000000   0.549E-04       0.001       85.903
     Symmetrizing Results
     Final NS sqrt iter    5 1.00000000   0.566E-08

     Est. extremal eigenvalues     -0.91809     1.85011  converged:  T
     TRS4 it   1 1.00000000   0.880E+00       0.000       16.128   0.100E-07
     TRS4 it   2 1.00000000   0.683E+00       0.001       32.256   0.100E-07
     TRS4 it   3 1.00000000   0.494E+00       0.001       32.256   0.100E-07
     TRS4 it   4 1.00000000   0.308E+00       0.001       32.256   0.100E-07
     TRS4 it   5 1.00000000   0.152E+00       0.001       32.256   0.100E-07
     TRS4 it   6 1.00000000   0.472E-01       0.001       32.256   0.100E-07
     TRS4 it   7 1.00000000   0.628E-02       0.001       32.256   0.100E-07
     TRS4 it   8 1.00000000   0.157E-03       0.001       32.256   0.100E-07
     TRS4 it   9 1.00000000   0.109E-06       0.001       32.256   0.100E-07
     TRS4 it  10 1.00000000   0.538E-13       0.001       32.256   0.100E-07
     Final TRS4 iteration   10 1.00000000   0.538E-13
     Chemical potential (mu):      -0.06142
 
 PAO| energy:  -7.5846512988390060      penalty:   2.9582283945787942E-033
 PAO|CG| warming up with steepest descent
 PAO|CG| beta:    0.0000000000000000     
 PAO| norm of gradient:  0.78414681338683379     
 PAO|LS| adapt:  T F F
 PAO|LS| adapt: scan_steps:    0.0000000000000000        0.0000000000000000        0.0000000000000000     
 PAO|LS| adapt: energies:   -7.5846512988390060        0.0000000000000000        0.0000000000000000     
 PAO| ======================= Iteration:         2 =============================

     Lanczos converged:  T threshold:   0.100E-02
     Est. extremal eigenvalues:    0.328E+01   0.129E+00
     Est. condition number :    0.256E+02

 Order=           3
     NS sqrt iter    1 1.00000000   0.807E+00       0.001       60.114
     NS sqrt iter    2 1.00000000   0.425E+00       0.001      100.376
     NS sqrt iter    3 1.00000000   0.152E+00       0.001      104.782
     NS sqrt iter    4 1.00000000   0.142E-01       0.001      101.141
     NS sqrt iter    5 1.00000000   0.167E-04       0.001       78.182
     Symmetrizing Results
     Final NS sqrt iter    5 1.00000000   0.414E-09

     Est. extremal eigenvalues     -0.92177     1.79103  converged:  T
     TRS4 it   1 1.00000000   0.875E+00       0.000       16.128   0.100E-07
     TRS4 it   2 1.00000000   0.662E+00       0.001       32.256   0.100E-07
     TRS4 it   3 1.00000000   0.476E+00       0.001       32.256   0.100E-07
     TRS4 it   4 1.00000000   0.286E+00       0.001       32.256   0.100E-07
     TRS4 it   5 1.00000000   0.132E+00       0.001       32.256   0.100E-07
     TRS4 it   6 1.00000000   0.356E-01       0.001       32.256   0.100E-07
     TRS4 it   7 1.00000000   0.364E-02       0.001       32.256   0.100E-07
     TRS4 it   8 1.00000000   0.533E-04       0.001       32.256   0.100E-07
     TRS4 it   9 1.00000000   0.127E-07       0.001       32.256   0.100E-07
     Final TRS4 iteration    9 1.00000000   0.127E-07
     Chemical potential (mu):      -0.04953
 
 PAO| energy:  -7.6402272297518961      penalty:   2.2597126526016332E-008
 PAO|LS| adapt:  T T F
 PAO|LS| adapt: scan_steps:    0.0000000000000000       0.10000000000000001        0.0000000000000000     
 PAO|LS| adapt: energies:   -7.5846512988390060       -7.6402272297518961        0.0000000000000000     
 PAO| ======================= Iteration:         3 =============================

     Lanczos converged:  T threshold:   0.100E-02
     Est. extremal eigenvalues:    0.319E+01   0.141E+00
     Est. condition number :    0.226E+02

 Order=           3
     NS sqrt iter    1 1.00000000   0.789E+00       0.001       58.560
     NS sqrt iter    2 1.00000000   0.408E+00       0.001       98.486
     NS sqrt iter    3 1.00000000   0.135E+00       0.001      101.483
     NS sqrt iter    4 1.00000000   0.966E-02       0.001      100.635
     NS sqrt iter    5 1.00000000   0.516E-05       0.001       77.714
     Symmetrizing Results
     Final NS sqrt iter    5 1.00000000   0.394E-10

     Est. extremal eigenvalues     -0.92521     1.74349  converged:  T
     TRS4 it   1 1.00000000   0.870E+00       0.000       16.128   0.100E-07
     TRS4 it   2 1.00000000   0.645E+00       0.001       32.256   0.100E-07
     TRS4 it   3 1.00000000   0.459E+00       0.001       32.256   0.100E-07
     TRS4 it   4 1.00000000   0.265E+00       0.001       32.256   0.100E-07
     TRS4 it   5 1.00000000   0.112E+00       0.001       32.256   0.100E-07
     TRS4 it   6 1.00000000   0.259E-01       0.001       32.256   0.100E-07
     TRS4 it   7 1.00000000   0.194E-02       0.001       32.256   0.100E-07
     TRS4 it   8 1.00000000   0.152E-04       0.001       32.256   0.100E-07
     TRS4 it   9 1.00000000   0.104E-08       0.001       32.256   0.100E-07
     Final TRS4 iteration    9 1.00000000   0.104E-08
     Chemical potential (mu):      -0.03670
 
 PAO| energy:  -7.6833195304384461      penalty:   3.6155332838996704E-007
 PAO|LS| adapt:  T T F
 PAO|LS| adapt: scan_steps:    0.0000000000000000       0.20000000000000001        0.0000000000000000     
 PAO|LS| adapt: energies:   -7.5846512988390060       -7.6833195304384461        0.0000000000000000     
 PAO| ======================= Iteration:         4 =============================

     Lanczos converged:  T threshold:   0.100E-02
     Est. extremal eigenvalues:    0.299E+01   0.161E+00
     Est. condition number :    0.186E+02

 Order=           3
     NS sqrt iter    1 1.00000000   0.752E+00       0.001       59.829
     NS sqrt iter    2 1.00000000   0.374E+00       0.001      100.936
     NS sqrt iter    3 1.00000000   0.105E+00       0.001      100.716
     NS sqrt iter    4 1.00000000   0.456E-02       0.001      102.149
     NS sqrt iter    5 1.00000000   0.611E-06       0.001       77.955
     Symmetrizing Results
     Final NS sqrt iter    5 1.00000000   0.604E-12

     Est. extremal eigenvalues     -0.93052     1.67509  converged:  T
     TRS4 it   1 1.00000000   0.863E+00       0.000       16.128   0.100E-07
     TRS4 it   2 1.00000000   0.616E+00       0.001       32.256   0.100E-07
     TRS4 it   3 1.00000000   0.425E+00       0.001       32.256   0.100E-07
     TRS4 it   4 1.00000000   0.225E+00       0.001       32.256   0.100E-07
     TRS4 it   5 1.00000000   0.795E-01       0.001       32.256   0.100E-07
     TRS4 it   6 1.00000000   0.126E-01       0.001       32.256   0.100E-07
     TRS4 it   7 1.00000000   0.446E-03       0.001       32.256   0.100E-07
     TRS4 it   8 1.00000000   0.790E-06       0.001       32.256   0.100E-07
     TRS4 it   9 1.00000000   0.279E-11       0.001       32.256   0.100E-07
     Final TRS4 iteration    9 1.00000000   0.279E-11
     Chemical potential (mu):      -0.00866
 
 PAO| energy:  -7.7304787457724178      penalty:   5.7848476860416254E-006
 PAO|LS| Need extra step
 PAO|LS| adapt:  T T F
 PAO|LS| adapt: scan_steps:    0.0000000000000000       0.40000000000000002        0.0000000000000000     
 PAO|LS| adapt: energies:   -7.5846512988390060       -7.7304787457724178        0.0000000000000000     
 PAO| ======================= Iteration:         5 =============================

     Lanczos converged:  T threshold:   0.100E-02
     Est. extremal eigenvalues:    0.263E+01   0.191E+00
     Est. condition number :    0.138E+02

 Order=           3
     NS sqrt iter    1 1.00000000   0.685E+00       0.001       59.942
     NS sqrt iter    2 1.00000000   0.310E+00       0.001       98.137
     NS sqrt iter    3 1.00000000   0.640E-01       0.001      100.758
     NS sqrt iter    4 1.00000000   0.117E-02       0.001       99.911
     NS sqrt iter    5 1.00000000   0.118E-07       0.001       43.241
     Symmetrizing Results
     Final NS sqrt iter    5 1.00000000   0.631E-08

     Est. extremal eigenvalues     -0.93168     1.60349  converged:  T
     TRS4 it   1 1.00000000   0.856E+00       0.000       16.128   0.100E-07
     TRS4 it   2 1.00000000   0.578E+00       0.001       32.256   0.100E-07
     TRS4 it   3 1.00000000   0.372E+00       0.001       32.256   0.100E-07
     TRS4 it   4 1.00000000   0.165E+00       0.001       32.256   0.100E-07
     TRS4 it   5 1.00000000   0.400E-01       0.001       32.256   0.100E-07
     TRS4 it   6 1.00000000   0.292E-02       0.001       32.256   0.100E-07
     TRS4 it   7 1.00000000   0.201E-04       0.001       32.256   0.100E-07
     TRS4 it   8 1.00000000   0.118E-08       0.001       32.256   0.100E-07
     Final TRS4 iteration    8 1.00000000   0.118E-08
     Chemical potential (mu):       0.04062
 
 PAO| energy:  -7.6754477229643125      penalty:   9.2557518431133203E-005
 PAO|LS| Need extra step
 PAO|LS| adapt:  T T T
 PAO|LS| adapt: scan_steps:    0.0000000000000000       0.40000000000000002       0.80000000000000004     
 PAO|LS| adapt: energies:   -7.5846512988390060       -7.7304787457724178       -7.6754477229643125     
 PAO|LS| adapt: suggested step_size:   0.49040835991845577     
 PAO|LS| adapt: predicted energy  -7.7356092181421863     
 PAO| ======================= Iteration:         6 =============================

     Lanczos converged:  T threshold:   0.100E-02
     Est. extremal eigenvalues:    0.290E+01   0.169E+00
     Est. condition number :    0.172E+02

 Order=           3
     NS sqrt iter    1 1.00000000   0.735E+00       0.001       58.993
     NS sqrt iter    2 1.00000000   0.358E+00       0.001      100.487
     NS sqrt iter    3 1.00000000   0.937E-01       0.001      100.616
     NS sqrt iter    4 1.00000000   0.330E-02       0.001      100.851
     NS sqrt iter    5 1.00000000   0.250E-06       0.001       75.556
     Symmetrizing Results
     Final NS sqrt iter    5 1.00000000   0.697E-09

     Est. extremal eigenvalues     -0.93199     1.65291  converged:  T
     TRS4 it   1 1.00000000   0.860E+00       0.000       16.128   0.100E-07
     TRS4 it   2 1.00000000   0.605E+00       0.001       32.256   0.100E-07
     TRS4 it   3 1.00000000   0.411E+00       0.001       32.256   0.100E-07
     TRS4 it   4 1.00000000   0.209E+00       0.001       32.256   0.100E-07
     TRS4 it   5 1.00000000   0.676E-01       0.001       32.256   0.100E-07
     TRS4 it   6 1.00000000   0.894E-02       0.001       32.256   0.100E-07
     TRS4 it   7 1.00000000   0.215E-03       0.001       32.256   0.100E-07
     TRS4 it   8 1.00000000   0.177E-06       0.001       32.256   0.100E-07
     TRS4 it   9 1.00000000   0.140E-12       0.001       32.256   0.100E-07
     Final TRS4 iteration    9 1.00000000   0.140E-12
     Chemical potential (mu):       0.00470
 
 PAO| energy:  -7.7348540712793277      penalty:   1.3070233486359285E-005
 PAO|CG| warming up with steepest descent
 PAO|CG| beta:    0.0000000000000000     
 PAO| norm of gradient:  0.41673812628292833     
 PAO| energy improvement: -0.15020277244032165     
 PAO| step      6                   -7.734854071  0.260E-01  0.490E+00     0.091
 PAO|LS| adapt:  T F F
 PAO|LS| adapt: scan_steps:    0.0000000000000000        0.0000000000000000        0.0000000000000000     
 PAO|LS| adapt: energies:   -7.7348540712793277        0.0000000000000000        0.0000000000000000     
 PAO| ======================= Iteration:         7 =============================

     Lanczos converged:  T threshold:   0.100E-02
     Est. extremal eigenvalues:    0.281E+01   0.183E+00
     Est. condition number :    0.154E+02

 Order=           3
     NS sqrt iter    1 1.00000000   0.717E+00       0.001       59.044
     NS sqrt iter    2 1.00000000   0.337E+00       0.001      100.070
     NS sqrt iter    3 1.00000000   0.781E-01       0.001       99.969
     NS sqrt iter    4 1.00000000   0.196E-02       0.001      100.500
     NS sqrt iter    5 1.00000000   0.588E-07       0.001       67.967
     Symmetrizing Results
     Final NS sqrt iter    5 1.00000000   0.406E-09

     Est. extremal eigenvalues     -0.93369     1.63988  converged:  T
     TRS4 it   1 1.00000000   0.859E+00       0.000       16.128   0.100E-07
     TRS4 it   2 1.00000000   0.603E+00       0.001       32.256   0.100E-07
     TRS4 it   3 1.00000000   0.411E+00       0.001       32.256   0.100E-07
     TRS4 it   4 1.00000000   0.209E+00       0.001       32.256   0.100E-07
     TRS4 it   5 1.00000000   0.680E-01       0.001       32.256   0.100E-07
     TRS4 it   6 1.00000000   0.883E-02       0.001       32.256   0.100E-07
     TRS4 it   7 1.00000000   0.200E-03       0.001       32.256   0.100E-07
     TRS4 it   8 1.00000000   0.147E-06       0.001       32.256   0.100E-07
     TRS4 it   9 1.00000000   0.943E-13       0.001       32.256   0.100E-07
     Final TRS4 iteration    9 1.00000000   0.943E-13
     Chemical potential (mu):       0.00626
 
 PAO| energy:  -7.7289933552423973      penalty:   1.9714986594214255E-005
 PAO|LS| adapt:  T F T
 PAO|LS| adapt: scan_steps:    0.0000000000000000        0.0000000000000000       0.49040835991845577     
 PAO|LS| adapt: energies:   -7.7348540712793277        0.0000000000000000       -7.7289933552423973     
 PAO| ======================= Iteration:         8 =============================

     Lanczos converged:  T threshold:   0.100E-02
     Est. extremal eigenvalues:    0.286E+01   0.176E+00
     Est. condition number :    0.163E+02

 Order=           3
     NS sqrt iter    1 1.00000000   0.726E+00       0.001       59.717
     NS sqrt iter    2 1.00000000   0.348E+00       0.001      100.316
     NS sqrt iter    3 1.00000000   0.858E-01       0.001      100.600
     NS sqrt iter    4 1.00000000   0.256E-02       0.001      100.559
     NS sqrt iter    5 1.00000000   0.124E-06       0.001       72.543
     Symmetrizing Results
     Final NS sqrt iter    5 1.00000000   0.102E-08

     Est. extremal eigenvalues     -0.93381     1.64564  converged:  T
     TRS4 it   1 1.00000000   0.859E+00       0.000       16.128   0.100E-07
     TRS4 it   2 1.00000000   0.604E+00       0.001       32.256   0.100E-07
     TRS4 it   3 1.00000000   0.410E+00       0.001       32.256   0.100E-07
     TRS4 it   4 1.00000000   0.208E+00       0.001       32.256   0.100E-07
     TRS4 it   5 1.00000000   0.676E-01       0.001       32.256   0.100E-07
     TRS4 it   6 1.00000000   0.894E-02       0.001       32.256   0.100E-07
     TRS4 it   7 1.00000000   0.213E-03       0.001       32.256   0.100E-07
     TRS4 it   8 1.00000000   0.172E-06       0.001       32.256   0.100E-07
     TRS4 it   9 1.00000000   0.131E-12       0.001       32.256   0.100E-07
     Final TRS4 iteration    9 1.00000000   0.131E-12
     Chemical potential (mu):       0.00503
 
 PAO| energy:  -7.7544447503926799      penalty:   1.4159432500381428E-005
 PAO|LS| adapt:  T T T
 PAO|LS| adapt: scan_steps:    0.0000000000000000       0.24520417995922789       0.49040835991845577     
 PAO|LS| adapt: energies:   -7.7348540712793277       -7.7544447503926799       -7.7289933552423973     
 PAO|LS| adapt: suggested step_size:   0.22925162789204159     
 PAO|LS| adapt: predicted energy  -7.7545400723583837     
 PAO| ======================= Iteration:         9 =============================

     Lanczos converged:  T threshold:   0.100E-02
     Est. extremal eigenvalues:    0.286E+01   0.175E+00
     Est. condition number :    0.163E+02

 Order=           3
     NS sqrt iter    1 1.00000000   0.726E+00       0.001       59.836
     NS sqrt iter    2 1.00000000   0.348E+00       0.001      100.197
     NS sqrt iter    3 1.00000000   0.863E-01       0.001      101.088
     NS sqrt iter    4 1.00000000   0.260E-02       0.001       99.460
     NS sqrt iter    5 1.00000000   0.130E-06       0.001       73.941
     Symmetrizing Results
     Final NS sqrt iter    5 1.00000000   0.106E-08

     Est. extremal eigenvalues     -0.93376     1.64606  converged:  T
     TRS4 it   1 1.00000000   0.859E+00       0.000       16.128   0.100E-07
     TRS4 it   2 1.00000000   0.604E+00       0.001       32.256   0.100E-07
     TRS4 it   3 1.00000000   0.411E+00       0.001       32.256   0.100E-07
     TRS4 it   4 1.00000000   0.208E+00       0.001       32.256   0.100E-07
     TRS4 it   5 1.00000000   0.676E-01       0.001       32.256   0.100E-07
     TRS4 it   6 1.00000000   0.894E-02       0.001       32.256   0.100E-07
     TRS4 it   7 1.00000000   0.214E-03       0.001       32.256   0.100E-07
     TRS4 it   8 1.00000000   0.173E-06       0.001       32.256   0.100E-07
     TRS4 it   9 1.00000000   0.132E-12       0.001       32.256   0.100E-07
     Final TRS4 iteration    9 1.00000000   0.132E-12
     Chemical potential (mu):       0.00498
 
 PAO| energy:  -7.7545636901008308      penalty:   1.3990466975431117E-005
 PAO|CG| trace_G_new    3.6563343827991465E-002
 PAO|CG| trace_G_prev   0.17367066589780594     
 PAO|CG| trace_G_mix   -1.4334697463075593E-003
 PAO|CG| trace_D   0.17367066589780594     
 PAO|CG| trace_D_Gnew   1.4334697463075593E-003
 PAO|CG| beta:   0.21878659460347616     
 PAO| norm of gradient:  0.19121543825745729     
 PAO| energy improvement:  -1.9709618821503128E-002
 PAO| step      9                   -7.754563690  0.120E-01  0.229E+00     0.057
 PAO|LS| adapt:  T F F
 PAO|LS| adapt: scan_steps:    0.0000000000000000        0.0000000000000000        0.0000000000000000     
 PAO|LS| adapt: energies:   -7.7545636901008308        0.0000000000000000        0.0000000000000000     
 PAO| ======================= Iteration:        10 =============================

     Lanczos converged:  T threshold:   0.100E-02
     Est. extremal eigenvalues:    0.282E+01   0.181E+00
     Est. condition number :    0.156E+02

 Order=           3
     NS sqrt iter    1 1.00000000   0.718E+00       0.001       59.407
     NS sqrt iter    2 1.00000000   0.340E+00       0.001       99.300
     NS sqrt iter    3 1.00000000   0.806E-01       0.001      103.457
     NS sqrt iter    4 1.00000000   0.213E-02       0.001      101.738
     NS sqrt iter    5 1.00000000   0.706E-07       0.001       68.519
     Symmetrizing Results
     Final NS sqrt iter    5 1.00000000   0.767E-09

     Est. extremal eigenvalues     -0.93464     1.64262  converged:  T
     TRS4 it   1 1.00000000   0.858E+00       0.000       16.128   0.100E-07
     TRS4 it   2 1.00000000   0.602E+00       0.001       32.256   0.100E-07
     TRS4 it   3 1.00000000   0.409E+00       0.001       32.256   0.100E-07
     TRS4 it   4 1.00000000   0.206E+00       0.001       32.256   0.100E-07
     TRS4 it   5 1.00000000   0.657E-01       0.001       32.256   0.100E-07
     TRS4 it   6 1.00000000   0.840E-02       0.001       32.256   0.100E-07
     TRS4 it   7 1.00000000   0.186E-03       0.001       32.256   0.100E-07
     TRS4 it   8 1.00000000   0.128E-06       0.001       32.256   0.100E-07
     TRS4 it   9 1.00000000   0.727E-13       0.001       32.256   0.100E-07
     Final TRS4 iteration    9 1.00000000   0.727E-13
     Chemical potential (mu):       0.00791
 
 PAO| energy:  -7.7595486063803998      penalty:   1.4518118339684842E-005
 PAO|LS| adapt:  T T F
 PAO|LS| adapt: scan_steps:    0.0000000000000000       0.22925162789204159        0.0000000000000000     
 PAO|LS| adapt: energies:   -7.7545636901008308       -7.7595486063803998        0.0000000000000000     
 PAO| ======================= Iteration:        11 =============================

     Lanczos converged:  T threshold:   0.100E-02
     Est. extremal eigenvalues:    0.278E+01   0.187E+00
     Est. condition number :    0.149E+02

 Order=           3
     NS sqrt iter    1 1.00000000   0.710E+00       0.001       59.966
     NS sqrt iter    2 1.00000000   0.331E+00       0.001      100.024
     NS sqrt iter    3 1.00000000   0.753E-01       0.001      101.270
     NS sqrt iter    4 1.00000000   0.174E-02       0.001      101.571
     NS sqrt iter    5 1.00000000   0.380E-07       0.001       63.536
     Symmetrizing Results
     Final NS sqrt iter    5 1.00000000   0.432E-09

     Est. extremal eigenvalues     -0.93455     1.64077  converged:  T
     TRS4 it   1 1.00000000   0.857E+00       0.000       16.128   0.100E-07
     TRS4 it   2 1.00000000   0.602E+00       0.001       32.256   0.100E-07
     TRS4 it   3 1.00000000   0.407E+00       0.001       32.256   0.100E-07
     TRS4 it   4 1.00000000   0.204E+00       0.001       32.256   0.100E-07
     TRS4 it   5 1.00000000   0.640E-01       0.001       32.256   0.100E-07
     TRS4 it   6 1.00000000   0.792E-02       0.001       32.256   0.100E-07
     TRS4 it   7 1.00000000   0.162E-03       0.001       32.256   0.100E-07
     TRS4 it   8 1.00000000   0.951E-07       0.001       32.256   0.100E-07
     TRS4 it   9 1.00000000   0.401E-13       0.001       32.256   0.100E-07
     Final TRS4 iteration    9 1.00000000   0.401E-13
     Chemical potential (mu):       0.01096
 
 PAO| energy:  -7.7581237589652314      penalty:   1.5706292314700503E-005
 PAO|LS| adapt:  T T T
 PAO|LS| adapt: scan_steps:    0.0000000000000000       0.22925162789204159       0.45850325578408319     
 PAO|LS| adapt: energies:   -7.7545636901008308       -7.7595486063803998       -7.7581237589652314     
 PAO|LS| adapt: suggested step_size:   0.29291634483330015     
 PAO|LS| adapt: predicted energy  -7.7597957701395268     
 PAO| ======================= Iteration:        12 =============================

     Lanczos converged:  T threshold:   0.100E-02
     Est. extremal eigenvalues:    0.281E+01   0.183E+00
     Est. condition number :    0.154E+02

 Order=           3
     NS sqrt iter    1 1.00000000   0.716E+00       0.001       64.512
     NS sqrt iter    2 1.00000000   0.337E+00       0.002       57.326
     NS sqrt iter    3 1.00000000   0.791E-01       0.001      101.578
     NS sqrt iter    4 1.00000000   0.201E-02       0.001      101.241
     NS sqrt iter    5 1.00000000   0.595E-07       0.001       66.507
     Symmetrizing Results
     Final NS sqrt iter    5 1.00000000   0.402E-09

     Est. extremal eigenvalues     -0.93471     1.64195  converged:  T
     TRS4 it   1 1.00000000   0.858E+00       0.000       16.128   0.100E-07
     TRS4 it   2 1.00000000   0.602E+00       0.001       32.256   0.100E-07
     TRS4 it   3 1.00000000   0.408E+00       0.001       32.256   0.100E-07
     TRS4 it   4 1.00000000   0.205E+00       0.001       32.256   0.100E-07
     TRS4 it   5 1.00000000   0.652E-01       0.001       32.256   0.100E-07
     TRS4 it   6 1.00000000   0.826E-02       0.001       32.256   0.100E-07
     TRS4 it   7 1.00000000   0.179E-03       0.001       32.256   0.100E-07
     TRS4 it   8 1.00000000   0.118E-06       0.001       32.256   0.100E-07
     TRS4 it   9 1.00000000   0.612E-13       0.001       32.256   0.100E-07
     Final TRS4 iteration    9 1.00000000   0.612E-13
     Chemical potential (mu):       0.00875
 
 PAO| energy:  -7.7597798973550942      penalty:   1.4774389641006200E-005
 PAO|CG| trace_G_new    1.1706433809325366E-002
 PAO|CG| trace_G_prev    3.6563343827991465E-002
 PAO|CG| trace_G_mix   -4.5478663091755300E-004
 PAO|CG| trace_D    4.4249289347171990E-002
 PAO|CG| trace_D_Gnew   2.0876009067931486E-004
 PAO|CG| beta:   0.33260689989006870     
 PAO| norm of gradient:  0.10819627447063677     
 PAO| energy improvement:  -5.2162072542634164E-003
 PAO| step     12                   -7.759779897  0.676E-02  0.293E+00     0.062
 PAO|LS| adapt:  T F F
 PAO|LS| adapt: scan_steps:    0.0000000000000000        0.0000000000000000        0.0000000000000000     
 PAO|LS| adapt: energies:   -7.7597798973550942        0.0000000000000000        0.0000000000000000     
 PAO| ======================= Iteration:        13 =============================

     Lanczos converged:  T threshold:   0.100E-02
     Est. extremal eigenvalues:    0.278E+01   0.188E+00
     Est. condition number :    0.148E+02

 Order=           3
     NS sqrt iter    1 1.00000000   0.709E+00       0.001       59.671
     NS sqrt iter    2 1.00000000   0.330E+00       0.001       99.826
     NS sqrt iter    3 1.00000000   0.747E-01       0.001      101.184
     NS sqrt iter    4 1.00000000   0.171E-02       0.001      102.725
     NS sqrt iter    5 1.00000000   0.364E-07       0.001       63.476
     Symmetrizing Results
     Final NS sqrt iter    5 1.00000000   0.488E-09

     Est. extremal eigenvalues     -0.93518     1.63575  converged:  T
     TRS4 it   1 1.00000000   0.857E+00       0.000       16.128   0.100E-07
     TRS4 it   2 1.00000000   0.599E+00       0.001       32.256   0.100E-07
     TRS4 it   3 1.00000000   0.404E+00       0.001       32.256   0.100E-07
     TRS4 it   4 1.00000000   0.200E+00       0.001       32.256   0.100E-07
     TRS4 it   5 1.00000000   0.618E-01       0.001       32.256   0.100E-07
     TRS4 it   6 1.00000000   0.737E-02       0.001       32.256   0.100E-07
     TRS4 it   7 1.00000000   0.141E-03       0.001       32.256   0.100E-07
     TRS4 it   8 1.00000000   0.714E-07       0.001       32.256   0.100E-07
     Final TRS4 iteration    8 1.00000000   0.714E-07
     Chemical potential (mu):       0.01140
 
 PAO| energy:  -7.7618294253318902      penalty:   1.5069129807118214E-005
 PAO|LS| adapt:  T T F
 PAO|LS| adapt: scan_steps:    0.0000000000000000       0.29291634483330015        0.0000000000000000     
 PAO|LS| adapt: energies:   -7.7597798973550942       -7.7618294253318902        0.0000000000000000     
 PAO| ======================= Iteration:        14 =============================

     Lanczos converged:  T threshold:   0.100E-02
     Est. extremal eigenvalues:    0.274E+01   0.192E+00
     Est. condition number :    0.143E+02

 Order=           3
     NS sqrt iter    1 1.00000000   0.702E+00       0.001       59.629
     NS sqrt iter    2 1.00000000   0.323E+00       0.001      100.454
     NS sqrt iter    3 1.00000000   0.706E-01       0.001       99.774
     NS sqrt iter    4 1.00000000   0.144E-02       0.001       99.148
     NS sqrt iter    5 1.00000000   0.216E-07       0.001       54.452
     Symmetrizing Results
     Final NS sqrt iter    5 1.00000000   0.599E-08

     Est. extremal eigenvalues     -0.93517     1.62990  converged:  T
     TRS4 it   1 1.00000000   0.856E+00       0.000       16.128   0.100E-07
     TRS4 it   2 1.00000000   0.596E+00       0.001       32.256   0.100E-07
     TRS4 it   3 1.00000000   0.399E+00       0.001       32.256   0.100E-07
     TRS4 it   4 1.00000000   0.195E+00       0.001       32.256   0.100E-07
     TRS4 it   5 1.00000000   0.585E-01       0.001       32.256   0.100E-07
     TRS4 it   6 1.00000000   0.657E-02       0.001       32.256   0.100E-07
     TRS4 it   7 1.00000000   0.111E-03       0.001       32.256   0.100E-07
     TRS4 it   8 1.00000000   0.432E-07       0.001       32.256   0.100E-07
     Final TRS4 iteration    8 1.00000000   0.432E-07
     Chemical potential (mu):       0.01527
 
 PAO| energy:  -7.7612100298122568      penalty:   1.5835320496633688E-005
 PAO|LS| adapt:  T T T
 PAO|LS| adapt: scan_steps:    0.0000000000000000       0.29291634483330015       0.58583268966660029     
 PAO|LS| adapt: energies:   -7.7597798973550942       -7.7618294253318902       -7.7612100298122568     
 PAO|LS| adapt: suggested step_size:   0.37139539688180706     
 PAO|LS| adapt: predicted energy  -7.7619252167084394     
 PAO| ======================= Iteration:        15 =============================

     Lanczos converged:  T threshold:   0.100E-02
     Est. extremal eigenvalues:    0.277E+01   0.189E+00
     Est. condition number :    0.147E+02

 Order=           3
     NS sqrt iter    1 1.00000000   0.707E+00       0.001       59.892
     NS sqrt iter    2 1.00000000   0.328E+00       0.001      102.495
     NS sqrt iter    3 1.00000000   0.736E-01       0.001      100.713
     NS sqrt iter    4 1.00000000   0.163E-02       0.001      100.814
     NS sqrt iter    5 1.00000000   0.319E-07       0.001       62.566
     Symmetrizing Results
     Final NS sqrt iter    5 1.00000000   0.412E-09

     Est. extremal eigenvalues     -0.93523     1.63415  converged:  T
     TRS4 it   1 1.00000000   0.857E+00       0.000       16.128   0.100E-07
     TRS4 it   2 1.00000000   0.598E+00       0.001       32.256   0.100E-07
     TRS4 it   3 1.00000000   0.403E+00       0.001       32.256   0.100E-07
     TRS4 it   4 1.00000000   0.199E+00       0.001       32.256   0.100E-07
     TRS4 it   5 1.00000000   0.609E-01       0.001       32.256   0.100E-07
     TRS4 it   6 1.00000000   0.715E-02       0.001       32.256   0.100E-07
     TRS4 it   7 1.00000000   0.132E-03       0.001       32.256   0.100E-07
     TRS4 it   8 1.00000000   0.624E-07       0.001       32.256   0.100E-07
     Final TRS4 iteration    8 1.00000000   0.624E-07
     Chemical potential (mu):       0.01245
 
 PAO| energy:  -7.7619221511344900      penalty:   1.5225156415285803E-005
 PAO|CG| trace_G_new    2.5925234243949387E-003
 PAO|CG| trace_G_prev    1.1706433809325366E-002
 PAO|CG| trace_G_mix    6.2814485590107213E-005
 PAO|CG| trace_D    1.6462745329583937E-002
 PAO|CG| trace_D_Gnew   3.3296371971113444E-005
 PAO|CG| beta:   0.21609560862076210     
 PAO| norm of gradient:   5.0916828498983893E-002
 PAO| energy improvement:  -2.1422537793958085E-003
 PAO| step     15                   -7.761922151  0.318E-02  0.371E+00     0.055
 PAO|LS| adapt:  T F F
 PAO|LS| adapt: scan_steps:    0.0000000000000000        0.0000000000000000        0.0000000000000000     
 PAO|LS| adapt: energies:   -7.7619221511344900        0.0000000000000000        0.0000000000000000     
 PAO| ======================= Iteration:        16 =============================

     Lanczos converged:  T threshold:   0.100E-02
     Est. extremal eigenvalues:    0.276E+01   0.189E+00
     Est. condition number :    0.146E+02

 Order=           3
     NS sqrt iter    1 1.00000000   0.705E+00       0.001       59.305
     NS sqrt iter    2 1.00000000   0.327E+00       0.001      100.287
     NS sqrt iter    3 1.00000000   0.729E-01       0.001      100.244
     NS sqrt iter    4 1.00000000   0.158E-02       0.001       99.229
     NS sqrt iter    5 1.00000000   0.289E-07       0.001       63.148
     Symmetrizing Results
     Final NS sqrt iter    5 1.00000000   0.739E-09

     Est. extremal eigenvalues     -0.93526     1.63363  converged:  T
     TRS4 it   1 1.00000000   0.857E+00       0.000       16.128   0.100E-07
     TRS4 it   2 1.00000000   0.597E+00       0.001       32.256   0.100E-07
     TRS4 it   3 1.00000000   0.401E+00       0.001       32.256   0.100E-07
     TRS4 it   4 1.00000000   0.197E+00       0.001       32.256   0.100E-07
     TRS4 it   5 1.00000000   0.598E-01       0.001       32.256   0.100E-07
     TRS4 it   6 1.00000000   0.690E-02       0.001       32.256   0.100E-07
     TRS4 it   7 1.00000000   0.124E-03       0.001       32.256   0.100E-07
     TRS4 it   8 1.00000000   0.556E-07       0.001       32.256   0.100E-07
     Final TRS4 iteration    8 1.00000000   0.556E-07
     Chemical potential (mu):       0.01337
 
 PAO| energy:  -7.7620439005378543      penalty:   1.5001905338067182E-005
 PAO|LS| adapt:  T T F
 PAO|LS| adapt: scan_steps:    0.0000000000000000       0.37139539688180706        0.0000000000000000     
 PAO|LS| adapt: energies:   -7.7619221511344900       -7.7620439005378543        0.0000000000000000     
 PAO| ======================= Iteration:        17 =============================

     Lanczos converged:  T threshold:   0.100E-02
     Est. extremal eigenvalues:    0.275E+01   0.190E+00
     Est. condition number :    0.145E+02

 Order=           3
     NS sqrt iter    1 1.00000000   0.703E+00       0.001       59.309
     NS sqrt iter    2 1.00000000   0.326E+00       0.001      100.842
     NS sqrt iter    3 1.00000000   0.722E-01       0.001       99.755
     NS sqrt iter    4 1.00000000   0.153E-02       0.001      100.853
     NS sqrt iter    5 1.00000000   0.263E-07       0.001       60.322
     Symmetrizing Results
     Final NS sqrt iter    5 1.00000000   0.977E-09

     Est. extremal eigenvalues     -0.93516     1.63319  converged:  T
     TRS4 it   1 1.00000000   0.857E+00       0.000       16.128   0.100E-07
     TRS4 it   2 1.00000000   0.597E+00       0.001       32.256   0.100E-07
     TRS4 it   3 1.00000000   0.400E+00       0.001       32.256   0.100E-07
     TRS4 it   4 1.00000000   0.196E+00       0.001       32.256   0.100E-07
     TRS4 it   5 1.00000000   0.587E-01       0.001       32.256   0.100E-07
     TRS4 it   6 1.00000000   0.667E-02       0.001       32.256   0.100E-07
     TRS4 it   7 1.00000000   0.116E-03       0.001       32.256   0.100E-07
     TRS4 it   8 1.00000000   0.496E-07       0.001       32.256   0.100E-07
     Final TRS4 iteration    8 1.00000000   0.496E-07
     Chemical potential (mu):       0.01428
 
 PAO| energy:  -7.7604833739439902      penalty:   1.4903620046053028E-005
 PAO|LS| adapt:  T T T
 PAO|LS| adapt: scan_steps:    0.0000000000000000       0.37139539688180706       0.74279079376361412     
 PAO|LS| adapt: energies:   -7.7619221511344900       -7.7620439005378543       -7.7604833739439902     
 PAO|LS| adapt: suggested step_size:   0.21257626536874505     
 PAO|LS| adapt: predicted energy  -7.7621977159497808     
 PAO| ======================= Iteration:        18 =============================

     Lanczos converged:  T threshold:   0.100E-02
     Est. extremal eigenvalues:    0.276E+01   0.189E+00
     Est. condition number :    0.146E+02

 Order=           3
     NS sqrt iter    1 1.00000000   0.706E+00       0.001       59.599
     NS sqrt iter    2 1.00000000   0.328E+00       0.001      100.553
     NS sqrt iter    3 1.00000000   0.732E-01       0.001      101.462
     NS sqrt iter    4 1.00000000   0.160E-02       0.001      102.258
     NS sqrt iter    5 1.00000000   0.302E-07       0.001       62.667
     Symmetrizing Results
     Final NS sqrt iter    5 1.00000000   0.420E-09

     Est. extremal eigenvalues     -0.93526     1.63384  converged:  T
     TRS4 it   1 1.00000000   0.857E+00       0.000       16.128   0.100E-07
     TRS4 it   2 1.00000000   0.598E+00       0.001       32.256   0.100E-07
     TRS4 it   3 1.00000000   0.402E+00       0.001       32.256   0.100E-07
     TRS4 it   4 1.00000000   0.198E+00       0.001       32.256   0.100E-07
     TRS4 it   5 1.00000000   0.602E-01       0.001       32.256   0.100E-07
     TRS4 it   6 1.00000000   0.701E-02       0.001       32.256   0.100E-07
     TRS4 it   7 1.00000000   0.127E-03       0.001       32.256   0.100E-07
     TRS4 it   8 1.00000000   0.584E-07       0.001       32.256   0.100E-07
     Final TRS4 iteration    8 1.00000000   0.584E-07
     Chemical potential (mu):       0.01298
 
 PAO| energy:  -7.7621972721301162      penalty:   1.5082352940334062E-005
 PAO|CG| trace_G_new    7.1714132482917910E-004
 PAO|CG| trace_G_prev    2.5925234243949387E-003
 PAO|CG| trace_G_mix    1.3638830376910357E-006
 PAO|CG| trace_D    3.3468989809681431E-003
 PAO|CG| trace_D_Gnew  -1.6451275905305925E-006
 PAO|CG| beta:   0.27609295061954597     
 PAO| norm of gradient:   2.6779494484197777E-002
 PAO| energy improvement:  -2.7512099562621017E-004
 PAO| step     18                   -7.762197272  0.167E-02  0.213E+00     0.055
 PAO|LS| adapt:  T F F
 PAO|LS| adapt: scan_steps:    0.0000000000000000        0.0000000000000000        0.0000000000000000     
 PAO|LS| adapt: energies:   -7.7621972721301162        0.0000000000000000        0.0000000000000000     
 PAO| ======================= Iteration:        19 =============================

     Lanczos converged:  T threshold:   0.100E-02
     Est. extremal eigenvalues:    0.276E+01   0.189E+00
     Est. condition number :    0.146E+02

 Order=           3
     NS sqrt iter    1 1.00000000   0.706E+00       0.001       59.142
     NS sqrt iter    2 1.00000000   0.328E+00       0.001      100.015
     NS sqrt iter    3 1.00000000   0.734E-01       0.001      100.901
     NS sqrt iter    4 1.00000000   0.161E-02       0.001      100.491
     NS sqrt iter    5 1.00000000   0.305E-07       0.001       61.633
     Symmetrizing Results
     Final NS sqrt iter    5 1.00000000   0.412E-09

     Est. extremal eigenvalues     -0.93526     1.63424  converged:  T
     TRS4 it   1 1.00000000   0.857E+00       0.000       16.128   0.100E-07
     TRS4 it   2 1.00000000   0.598E+00       0.001       32.256   0.100E-07
     TRS4 it   3 1.00000000   0.402E+00       0.001       32.256   0.100E-07
     TRS4 it   4 1.00000000   0.198E+00       0.001       32.256   0.100E-07
     TRS4 it   5 1.00000000   0.602E-01       0.001       32.256   0.100E-07
     TRS4 it   6 1.00000000   0.701E-02       0.001       32.256   0.100E-07
     TRS4 it   7 1.00000000   0.128E-03       0.001       32.256   0.100E-07
     TRS4 it   8 1.00000000   0.595E-07       0.001       32.256   0.100E-07
     Final TRS4 iteration    8 1.00000000   0.595E-07
     Chemical potential (mu):       0.01282
 
 PAO| energy:  -7.7623134852541664      penalty:   1.4792995537965870E-005
 PAO|LS| adapt:  T T F
 PAO|LS| adapt: scan_steps:    0.0000000000000000       0.21257626536874505        0.0000000000000000     
 PAO|LS| adapt: energies:   -7.7621972721301162       -7.7623134852541664        0.0000000000000000     
 PAO| ======================= Iteration:        20 =============================

     Lanczos converged:  T threshold:   0.100E-02
     Est. extremal eigenvalues:    0.276E+01   0.189E+00
     Est. condition number :    0.146E+02

 Order=           3
     NS sqrt iter    1 1.00000000   0.706E+00       0.001       59.125
     NS sqrt iter    2 1.00000000   0.328E+00       0.001      101.210
     NS sqrt iter    3 1.00000000   0.736E-01       0.001      100.459
     NS sqrt iter    4 1.00000000   0.162E-02       0.001       99.350
     NS sqrt iter    5 1.00000000   0.309E-07       0.001       62.678
     Symmetrizing Results
     Final NS sqrt iter    5 1.00000000   0.407E-09

     Est. extremal eigenvalues     -0.93526     1.63464  converged:  T
     TRS4 it   1 1.00000000   0.857E+00       0.000       16.128   0.100E-07
     TRS4 it   2 1.00000000   0.598E+00       0.001       32.256   0.100E-07
     TRS4 it   3 1.00000000   0.402E+00       0.001       32.256   0.100E-07
     TRS4 it   4 1.00000000   0.198E+00       0.001       32.256   0.100E-07
     TRS4 it   5 1.00000000   0.601E-01       0.001       32.256   0.100E-07
     TRS4 it   6 1.00000000   0.701E-02       0.001       32.256   0.100E-07
     TRS4 it   7 1.00000000   0.129E-03       0.001       32.256   0.100E-07
     TRS4 it   8 1.00000000   0.607E-07       0.001       32.256   0.100E-07
     Final TRS4 iteration    8 1.00000000   0.607E-07
     Chemical potential (mu):       0.01265
 
 PAO| energy:  -7.7623566542077986      penalty:   1.4515935240355850E-005
 PAO|LS| adapt:  T T F
 PAO|LS| adapt: scan_steps:    0.0000000000000000       0.42515253073749010        0.0000000000000000     
 PAO|LS| adapt: energies:   -7.7621972721301162       -7.7623566542077986        0.0000000000000000     
 PAO| ======================= Iteration:        21 =============================

     Lanczos converged:  T threshold:   0.100E-02
     Est. extremal eigenvalues:    0.276E+01   0.188E+00
     Est. condition number :    0.147E+02

 Order=           3
     NS sqrt iter    1 1.00000000   0.705E+00       0.001       60.038
     NS sqrt iter    2 1.00000000   0.328E+00       0.001      101.136
     NS sqrt iter    3 1.00000000   0.740E-01       0.001      100.443
     NS sqrt iter    4 1.00000000   0.164E-02       0.001      100.583
     NS sqrt iter    5 1.00000000   0.319E-07       0.001       62.285
     Symmetrizing Results
     Final NS sqrt iter    5 1.00000000   0.424E-09

     Est. extremal eigenvalues     -0.93525     1.63545  converged:  T
     TRS4 it   1 1.00000000   0.857E+00       0.000       16.128   0.100E-07
     TRS4 it   2 1.00000000   0.598E+00       0.001       32.256   0.100E-07
     TRS4 it   3 1.00000000   0.401E+00       0.001       32.256   0.100E-07
     TRS4 it   4 1.00000000   0.197E+00       0.001       32.256   0.100E-07
     TRS4 it   5 1.00000000   0.600E-01       0.001       32.256   0.100E-07
     TRS4 it   6 1.00000000   0.701E-02       0.001       32.256   0.100E-07
     TRS4 it   7 1.00000000   0.130E-03       0.001       32.256   0.100E-07
     TRS4 it   8 1.00000000   0.631E-07       0.001       32.256   0.100E-07
     Final TRS4 iteration    8 1.00000000   0.631E-07
     Chemical potential (mu):       0.01231
 
 PAO| energy:  -7.7622215330650359      penalty:   1.3998129143380911E-005
 PAO|LS| Need extra step
 PAO|LS| adapt:  T T T
 PAO|LS| adapt: scan_steps:    0.0000000000000000       0.42515253073749010       0.85030506147498019     
 PAO|LS| adapt: energies:   -7.7621972721301162       -7.7623566542077986       -7.7622215330650359     
 PAO|LS| adapt: suggested step_size:   0.44266438996873486     
 PAO|LS| adapt: predicted energy  -7.7623569040323011     
 PAO| ======================= Iteration:        22 =============================

     Lanczos converged:  T threshold:   0.100E-02
     Est. extremal eigenvalues:    0.276E+01   0.189E+00
     Est. condition number :    0.146E+02

 Order=           3
     NS sqrt iter    1 1.00000000   0.706E+00       0.001       60.481
     NS sqrt iter    2 1.00000000   0.328E+00       0.001      101.575
     NS sqrt iter    3 1.00000000   0.736E-01       0.001       99.956
     NS sqrt iter    4 1.00000000   0.162E-02       0.001      101.206
     NS sqrt iter    5 1.00000000   0.310E-07       0.001       62.399
     Symmetrizing Results
     Final NS sqrt iter    5 1.00000000   0.408E-09

     Est. extremal eigenvalues     -0.93526     1.63467  converged:  T
     TRS4 it   1 1.00000000   0.857E+00       0.000       16.128   0.100E-07
     TRS4 it   2 1.00000000   0.598E+00       0.001       32.256   0.100E-07
     TRS4 it   3 1.00000000   0.402E+00       0.001       32.256   0.100E-07
     TRS4 it   4 1.00000000   0.198E+00       0.001       32.256   0.100E-07
     TRS4 it   5 1.00000000   0.601E-01       0.001       32.256   0.100E-07
     TRS4 it   6 1.00000000   0.701E-02       0.001       32.256   0.100E-07
     TRS4 it   7 1.00000000   0.129E-03       0.001       32.256   0.100E-07
     TRS4 it   8 1.00000000   0.608E-07       0.001       32.256   0.100E-07
     Final TRS4 iteration    8 1.00000000   0.608E-07
     Chemical potential (mu):       0.01264
 
 PAO| energy:  -7.7623569359701428      penalty:   1.4493654039292333E-005
 PAO|CG| trace_G_new    2.1664089328268115E-004
 PAO|CG| trace_G_prev    7.1714132482917910E-004
 PAO|CG| trace_G_mix    2.9598022867410645E-006
 PAO|CG| trace_D    9.7317487195751459E-004
 PAO|CG| trace_D_Gnew  -1.8253569997431214E-006
 PAO|CG| beta:   0.29796231732544248     
 PAO| norm of gradient:   1.4718725939519397E-002
 PAO| energy improvement:  -1.5966384002652489E-004
 PAO| step     22                   -7.762356936  0.920E-03  0.443E+00     0.072
 PAO|LS| adapt:  T F F
 PAO|LS| adapt: scan_steps:    0.0000000000000000        0.0000000000000000        0.0000000000000000     
 PAO|LS| adapt: energies:   -7.7623569359701428        0.0000000000000000        0.0000000000000000     
 PAO| ======================= Iteration:        23 =============================

     Lanczos converged:  T threshold:   0.100E-02
     Est. extremal eigenvalues:    0.276E+01   0.189E+00
     Est. condition number :    0.146E+02

 Order=           3
     NS sqrt iter    1 1.00000000   0.705E+00       0.001       61.003
     NS sqrt iter    2 1.00000000   0.328E+00       0.001       99.767
     NS sqrt iter    3 1.00000000   0.737E-01       0.001      100.053
     NS sqrt iter    4 1.00000000   0.162E-02       0.001      100.547
     NS sqrt iter    5 1.00000000   0.311E-07       0.001       62.263
     Symmetrizing Results
     Final NS sqrt iter    5 1.00000000   0.412E-09

     Est. extremal eigenvalues     -0.93526     1.63484  converged:  T
     TRS4 it   1 1.00000000   0.857E+00       0.000       16.128   0.100E-07
     TRS4 it   2 1.00000000   0.598E+00       0.001       32.256   0.100E-07
     TRS4 it   3 1.00000000   0.402E+00       0.001       32.256   0.100E-07
     TRS4 it   4 1.00000000   0.198E+00       0.001       32.256   0.100E-07
     TRS4 it   5 1.00000000   0.603E-01       0.001       32.256   0.100E-07
     TRS4 it   6 1.00000000   0.705E-02       0.001       32.256   0.100E-07
     TRS4 it   7 1.00000000   0.130E-03       0.001       32.256   0.100E-07
     TRS4 it   8 1.00000000   0.627E-07       0.001       32.256   0.100E-07
     Final TRS4 iteration    8 1.00000000   0.627E-07
     Chemical potential (mu):       0.01235
 
 PAO| energy:  -7.7624049809734803      penalty:   1.3816748342545249E-005
 PAO|LS| adapt:  T T F
 PAO|LS| adapt: scan_steps:    0.0000000000000000       0.44266438996873486        0.0000000000000000     
 PAO|LS| adapt: energies:   -7.7623569359701428       -7.7624049809734803        0.0000000000000000     
 PAO| ======================= Iteration:        24 =============================

     Lanczos converged:  T threshold:   0.100E-02
     Est. extremal eigenvalues:    0.276E+01   0.189E+00
     Est. condition number :    0.147E+02

 Order=           3
     NS sqrt iter    1 1.00000000   0.705E+00       0.001       59.736
     NS sqrt iter    2 1.00000000   0.328E+00       0.001      102.064
     NS sqrt iter    3 1.00000000   0.737E-01       0.001      100.845
     NS sqrt iter    4 1.00000000   0.163E-02       0.001      100.594
     NS sqrt iter    5 1.00000000   0.313E-07       0.001       62.081
     Symmetrizing Results
     Final NS sqrt iter    5 1.00000000   0.416E-09

     Est. extremal eigenvalues     -0.93526     1.63501  converged:  T
     TRS4 it   1 1.00000000   0.857E+00       0.000       16.128   0.100E-07
     TRS4 it   2 1.00000000   0.598E+00       0.001       32.256   0.100E-07
     TRS4 it   3 1.00000000   0.402E+00       0.001       32.256   0.100E-07
     TRS4 it   4 1.00000000   0.198E+00       0.001       32.256   0.100E-07
     TRS4 it   5 1.00000000   0.604E-01       0.001       32.256   0.100E-07
     TRS4 it   6 1.00000000   0.709E-02       0.001       32.256   0.100E-07
     TRS4 it   7 1.00000000   0.132E-03       0.001       32.256   0.100E-07
     TRS4 it   8 1.00000000   0.647E-07       0.001       32.256   0.100E-07
     Final TRS4 iteration    8 1.00000000   0.647E-07
     Chemical potential (mu):       0.01207
 
 PAO| energy:  -7.7623562360188689      penalty:   1.3167458946541660E-005
 PAO|LS| adapt:  T T T
 PAO|LS| adapt: scan_steps:    0.0000000000000000       0.44266438996873486       0.88532877993746972     
 PAO|LS| adapt: energies:   -7.7623569359701428       -7.7624049809734803       -7.7623562360188689     
 PAO|LS| adapt: suggested step_size:   0.44106379260200462     
 PAO|LS| adapt: predicted energy  -7.7624049816062062     
 PAO| ======================= Iteration:        25 =============================

     Lanczos converged:  T threshold:   0.100E-02
     Est. extremal eigenvalues:    0.276E+01   0.189E+00
     Est. condition number :    0.146E+02

 Order=           3
     NS sqrt iter    1 1.00000000   0.705E+00       0.001       58.789
     NS sqrt iter    2 1.00000000   0.328E+00       0.001      101.555
     NS sqrt iter    3 1.00000000   0.737E-01       0.001       99.430
     NS sqrt iter    4 1.00000000   0.162E-02       0.001       99.262
     NS sqrt iter    5 1.00000000   0.311E-07       0.001       61.173
     Symmetrizing Results
     Final NS sqrt iter    5 1.00000000   0.412E-09

     Est. extremal eigenvalues     -0.93526     1.63484  converged:  T
     TRS4 it   1 1.00000000   0.857E+00       0.000       16.128   0.100E-07
     TRS4 it   2 1.00000000   0.598E+00       0.001       32.256   0.100E-07
     TRS4 it   3 1.00000000   0.402E+00       0.001       32.256   0.100E-07
     TRS4 it   4 1.00000000   0.198E+00       0.001       32.256   0.100E-07
     TRS4 it   5 1.00000000   0.603E-01       0.001       32.256   0.100E-07
     TRS4 it   6 1.00000000   0.705E-02       0.001       32.256   0.100E-07
     TRS4 it   7 1.00000000   0.130E-03       0.001       32.256   0.100E-07
     TRS4 it   8 1.00000000   0.627E-07       0.001       32.256   0.100E-07
     Final TRS4 iteration    8 1.00000000   0.627E-07
     Chemical potential (mu):       0.01235
 
 PAO| energy:  -7.7624049810590314      penalty:   1.3819145816123633E-005
 PAO|CG| trace_G_new    7.6034391287069800E-005
 PAO|CG| trace_G_prev    2.1664089328268115E-004
 PAO|CG| trace_G_mix    6.6241776046637237E-007
 PAO|CG| trace_D    3.0412863478520370E-004
 PAO|CG| trace_D_Gnew  -3.4802038844051869E-007
 PAO|CG| beta:   0.34791203260159775     
 PAO| norm of gradient:   8.7197701395776376E-003
 PAO| energy improvement:  -4.8045088888670762E-005
 PAO| step     25                   -7.762404981  0.545E-03  0.441E+00     0.056
 PAO|LS| adapt:  T F F
 PAO|LS| adapt: scan_steps:    0.0000000000000000        0.0000000000000000        0.0000000000000000     
 PAO|LS| adapt: energies:   -7.7624049810590314        0.0000000000000000        0.0000000000000000     
 PAO| ======================= Iteration:        26 =============================

     Lanczos converged:  T threshold:   0.100E-02
     Est. extremal eigenvalues:    0.276E+01   0.189E+00
     Est. condition number :    0.146E+02

 Order=           3
     NS sqrt iter    1 1.00000000   0.705E+00       0.001       60.167
     NS sqrt iter    2 1.00000000   0.328E+00       0.001      101.272
     NS sqrt iter    3 1.00000000   0.736E-01       0.001      102.871
     NS sqrt iter    4 1.00000000   0.162E-02       0.001      101.055
     NS sqrt iter    5 1.00000000   0.309E-07       0.001       62.180
     Symmetrizing Results
     Final NS sqrt iter    5 1.00000000   0.423E-09

     Est. extremal eigenvalues     -0.93526     1.63484  converged:  T
     TRS4 it   1 1.00000000   0.857E+00       0.000       16.128   0.100E-07
     TRS4 it   2 1.00000000   0.598E+00       0.001       32.256   0.100E-07
     TRS4 it   3 1.00000000   0.402E+00       0.001       32.256   0.100E-07
     TRS4 it   4 1.00000000   0.198E+00       0.001       32.256   0.100E-07
     TRS4 it   5 1.00000000   0.602E-01       0.001       32.256   0.100E-07
     TRS4 it   6 1.00000000   0.704E-02       0.001       32.256   0.100E-07
     TRS4 it   7 1.00000000   0.130E-03       0.001       32.256   0.100E-07
     TRS4 it   8 1.00000000   0.622E-07       0.001       32.256   0.100E-07
     Final TRS4 iteration    8 1.00000000   0.622E-07
     Chemical potential (mu):       0.01243
 
 PAO| energy:  -7.7624080627370313      penalty:   1.3103853930512049E-005
 PAO|LS| adapt:  T T F
 PAO|LS| adapt: scan_steps:    0.0000000000000000       0.44106379260200462        0.0000000000000000     
 PAO|LS| adapt: energies:   -7.7624049810590314       -7.7624080627370313        0.0000000000000000     
 PAO| ======================= Iteration:        27 =============================

     Lanczos converged:  T threshold:   0.100E-02
     Est. extremal eigenvalues:    0.276E+01   0.189E+00
     Est. condition number :    0.146E+02

 Order=           3
     NS sqrt iter    1 1.00000000   0.705E+00       0.001       58.839
     NS sqrt iter    2 1.00000000   0.328E+00       0.001      100.023
     NS sqrt iter    3 1.00000000   0.735E-01       0.001      103.406
     NS sqrt iter    4 1.00000000   0.161E-02       0.001      101.687
     NS sqrt iter    5 1.00000000   0.308E-07       0.001       61.873
     Symmetrizing Results
     Final NS sqrt iter    5 1.00000000   0.422E-09

     Est. extremal eigenvalues     -0.93526     1.63485  converged:  T
     TRS4 it   1 1.00000000   0.857E+00       0.000       16.128   0.100E-07
     TRS4 it   2 1.00000000   0.598E+00       0.001       32.256   0.100E-07
     TRS4 it   3 1.00000000   0.402E+00       0.001       32.256   0.100E-07
     TRS4 it   4 1.00000000   0.198E+00       0.001       32.256   0.100E-07
     TRS4 it   5 1.00000000   0.602E-01       0.001       32.256   0.100E-07
     TRS4 it   6 1.00000000   0.703E-02       0.001       32.256   0.100E-07
     TRS4 it   7 1.00000000   0.130E-03       0.001       32.256   0.100E-07
     TRS4 it   8 1.00000000   0.617E-07       0.001       32.256   0.100E-07
     Final TRS4 iteration    8 1.00000000   0.617E-07
     Chemical potential (mu):       0.01251
 
 PAO| energy:  -7.7623500265724639      penalty:   1.2411525823844253E-005
 PAO|LS| adapt:  T T T
 PAO|LS| adapt: scan_steps:    0.0000000000000000       0.44106379260200462       0.88212758520400925     
 PAO|LS| adapt: energies:   -7.7624049810590314       -7.7624080627370313       -7.7623500265724639     
 PAO|LS| adapt: suggested step_size:   0.24277117257640043     
 PAO|LS| adapt: predicted energy  -7.7624142393203890     
 PAO| ======================= Iteration:        28 =============================

     Lanczos converged:  T threshold:   0.100E-02
     Est. extremal eigenvalues:    0.276E+01   0.189E+00
     Est. condition number :    0.146E+02

 Order=           3
     NS sqrt iter    1 1.00000000   0.705E+00       0.001       58.545
     NS sqrt iter    2 1.00000000   0.328E+00       0.001      100.336
     NS sqrt iter    3 1.00000000   0.736E-01       0.001      101.550
     NS sqrt iter    4 1.00000000   0.162E-02       0.001      103.153
     NS sqrt iter    5 1.00000000   0.310E-07       0.001       61.672
     Symmetrizing Results
     Final NS sqrt iter    5 1.00000000   0.411E-09

     Est. extremal eigenvalues     -0.93526     1.63484  converged:  T
     TRS4 it   1 1.00000000   0.857E+00       0.000       16.128   0.100E-07
     TRS4 it   2 1.00000000   0.598E+00       0.001       32.256   0.100E-07
     TRS4 it   3 1.00000000   0.402E+00       0.001       32.256   0.100E-07
     TRS4 it   4 1.00000000   0.198E+00       0.001       32.256   0.100E-07
     TRS4 it   5 1.00000000   0.602E-01       0.001       32.256   0.100E-07
     TRS4 it   6 1.00000000   0.704E-02       0.001       32.256   0.100E-07
     TRS4 it   7 1.00000000   0.130E-03       0.001       32.256   0.100E-07
     TRS4 it   8 1.00000000   0.624E-07       0.001       32.256   0.100E-07
     Final TRS4 iteration    8 1.00000000   0.624E-07
     Chemical potential (mu):       0.01240
 
 PAO| energy:  -7.7624142300716743      penalty:   1.3422574532430995E-005
 PAO|CG| trace_G_new    2.8186292965725505E-005
 PAO|CG| trace_G_prev    7.6034391287069800E-005
 PAO|CG| trace_G_mix    3.5096611392032661E-008
 PAO|CG| trace_D    1.1308912841925475E-004
 PAO|CG| trace_D_Gnew  -1.9385120537339487E-008
 PAO|CG| beta:   0.37024293714732204     
 PAO| norm of gradient:   5.3090764701335304E-003
 PAO| energy improvement:  -9.2490126428756980E-006
 PAO| step     28                   -7.762414230  0.332E-03  0.243E+00     0.055
 PAO|LS| adapt:  T F F
 PAO|LS| adapt: scan_steps:    0.0000000000000000        0.0000000000000000        0.0000000000000000     
 PAO|LS| adapt: energies:   -7.7624142300716743        0.0000000000000000        0.0000000000000000     
 PAO| ======================= Iteration:        29 =============================

     Lanczos converged:  T threshold:   0.100E-02
     Est. extremal eigenvalues:    0.276E+01   0.189E+00
     Est. condition number :    0.146E+02

 Order=           3
     NS sqrt iter    1 1.00000000   0.705E+00       0.001       58.571
     NS sqrt iter    2 1.00000000   0.328E+00       0.001       99.558
     NS sqrt iter    3 1.00000000   0.735E-01       0.001       98.493
     NS sqrt iter    4 1.00000000   0.162E-02       0.001      101.215
     NS sqrt iter    5 1.00000000   0.309E-07       0.001       62.335
     Symmetrizing Results
     Final NS sqrt iter    5 1.00000000   0.423E-09

     Est. extremal eigenvalues     -0.93526     1.63485  converged:  T
     TRS4 it   1 1.00000000   0.857E+00       0.000       16.128   0.100E-07
     TRS4 it   2 1.00000000   0.598E+00       0.001       32.256   0.100E-07
     TRS4 it   3 1.00000000   0.402E+00       0.001       32.256   0.100E-07
     TRS4 it   4 1.00000000   0.198E+00       0.001       32.256   0.100E-07
     TRS4 it   5 1.00000000   0.602E-01       0.001       32.256   0.100E-07
     TRS4 it   6 1.00000000   0.703E-02       0.001       32.256   0.100E-07
     TRS4 it   7 1.00000000   0.130E-03       0.001       32.256   0.100E-07
     TRS4 it   8 1.00000000   0.617E-07       0.001       32.256   0.100E-07
     Final TRS4 iteration    8 1.00000000   0.617E-07
     Chemical potential (mu):       0.01250
 
 PAO| energy:  -7.7624202792878734      penalty:   1.3014888345875101E-005
 PAO|LS| adapt:  T T F
 PAO|LS| adapt: scan_steps:    0.0000000000000000       0.24277117257640043        0.0000000000000000     
 PAO|LS| adapt: energies:   -7.7624142300716743       -7.7624202792878734        0.0000000000000000     
 PAO| ======================= Iteration:        30 =============================

     Lanczos converged:  T threshold:   0.100E-02
     Est. extremal eigenvalues:    0.276E+01   0.189E+00
     Est. condition number :    0.146E+02

 Order=           3
     NS sqrt iter    1 1.00000000   0.705E+00       0.001       59.096
     NS sqrt iter    2 1.00000000   0.328E+00       0.001       98.382
     NS sqrt iter    3 1.00000000   0.735E-01       0.001      100.662
     NS sqrt iter    4 1.00000000   0.162E-02       0.001      100.129
     NS sqrt iter    5 1.00000000   0.309E-07       0.001       63.059
     Symmetrizing Results
     Final NS sqrt iter    5 1.00000000   0.423E-09

     Est. extremal eigenvalues     -0.93526     1.63486  converged:  T
     TRS4 it   1 1.00000000   0.857E+00       0.000       16.128   0.100E-07
     TRS4 it   2 1.00000000   0.598E+00       0.001       32.256   0.100E-07
     TRS4 it   3 1.00000000   0.402E+00       0.001       32.256   0.100E-07
     TRS4 it   4 1.00000000   0.198E+00       0.001       32.256   0.100E-07
     TRS4 it   5 1.00000000   0.601E-01       0.001       32.256   0.100E-07
     TRS4 it   6 1.00000000   0.701E-02       0.001       32.256   0.100E-07
     TRS4 it   7 1.00000000   0.129E-03       0.001       32.256   0.100E-07
     TRS4 it   8 1.00000000   0.611E-07       0.001       32.256   0.100E-07
     Final TRS4 iteration    8 1.00000000   0.611E-07
     Chemical potential (mu):       0.01259
 
 PAO| energy:  -7.7624247342294481      penalty:   1.2614144355482180E-005
 PAO|LS| adapt:  T T F
 PAO|LS| adapt: scan_steps:    0.0000000000000000       0.48554234515280087        0.0000000000000000     
 PAO|LS| adapt: energies:   -7.7624142300716743       -7.7624247342294481        0.0000000000000000     
 PAO| ======================= Iteration:        31 =============================

     Lanczos converged:  T threshold:   0.100E-02
     Est. extremal eigenvalues:    0.276E+01   0.189E+00
     Est. condition number :    0.146E+02

 Order=           3
     NS sqrt iter    1 1.00000000   0.704E+00       0.001       56.981
     NS sqrt iter    2 1.00000000   0.327E+00       0.001       99.681
     NS sqrt iter    3 1.00000000   0.733E-01       0.001      100.247
     NS sqrt iter    4 1.00000000   0.161E-02       0.001      100.379
     NS sqrt iter    5 1.00000000   0.307E-07       0.001       62.062
     Symmetrizing Results
     Final NS sqrt iter    5 1.00000000   0.436E-09

     Est. extremal eigenvalues     -0.93527     1.63488  converged:  T
     TRS4 it   1 1.00000000   0.858E+00       0.000       16.128   0.100E-07
     TRS4 it   2 1.00000000   0.598E+00       0.001       32.256   0.100E-07
     TRS4 it   3 1.00000000   0.401E+00       0.001       32.256   0.100E-07
     TRS4 it   4 1.00000000   0.197E+00       0.001       32.256   0.100E-07
     TRS4 it   5 1.00000000   0.600E-01       0.001       32.256   0.100E-07
     TRS4 it   6 1.00000000   0.698E-02       0.001       32.256   0.100E-07
     TRS4 it   7 1.00000000   0.128E-03       0.001       32.256   0.100E-07
     TRS4 it   8 1.00000000   0.597E-07       0.001       32.256   0.100E-07
     Final TRS4 iteration    8 1.00000000   0.597E-07
     Chemical potential (mu):       0.01279
 
 PAO| energy:  -7.7624288636708609      penalty:   1.1833361123637248E-005
 PAO|LS| Need extra step
 PAO|LS| adapt:  T T F
 PAO|LS| adapt: scan_steps:    0.0000000000000000       0.97108469030560174        0.0000000000000000     
 PAO|LS| adapt: energies:   -7.7624142300716743       -7.7624288636708609        0.0000000000000000     
 PAO| ======================= Iteration:        32 =============================

     Lanczos converged:  T threshold:   0.100E-02
     Est. extremal eigenvalues:    0.276E+01   0.189E+00
     Est. condition number :    0.146E+02

 Order=           3
     NS sqrt iter    1 1.00000000   0.704E+00       0.001       58.610
     NS sqrt iter    2 1.00000000   0.327E+00       0.001       99.200
     NS sqrt iter    3 1.00000000   0.731E-01       0.001      103.218
     NS sqrt iter    4 1.00000000   0.160E-02       0.001       99.743
     NS sqrt iter    5 1.00000000   0.305E-07       0.001       62.152
     Symmetrizing Results
     Final NS sqrt iter    5 1.00000000   0.433E-09

     Est. extremal eigenvalues     -0.93527     1.63490  converged:  T
     TRS4 it   1 1.00000000   0.858E+00       0.000       16.128   0.100E-07
     TRS4 it   2 1.00000000   0.598E+00       0.001       32.256   0.100E-07
     TRS4 it   3 1.00000000   0.401E+00       0.001       32.256   0.100E-07
     TRS4 it   4 1.00000000   0.197E+00       0.001       32.256   0.100E-07
     TRS4 it   5 1.00000000   0.597E-01       0.001       32.256   0.100E-07
     TRS4 it   6 1.00000000   0.692E-02       0.001       32.256   0.100E-07
     TRS4 it   7 1.00000000   0.125E-03       0.001       32.256   0.100E-07
     TRS4 it   8 1.00000000   0.571E-07       0.001       32.256   0.100E-07
     Final TRS4 iteration    8 1.00000000   0.571E-07
     Chemical potential (mu):       0.01319
 
 PAO| energy:  -7.7624179917092802      penalty:   1.0353767227420864E-005
 PAO|LS| Need extra step
 PAO|LS| adapt:  T T T
 PAO|LS| adapt: scan_steps:    0.0000000000000000       0.97108469030560174        1.9421693806112035     
[...]
     NS sqrt iter    4 1.00000000   0.771E-03       0.001      100.818
     NS sqrt iter    5 1.00000000   0.610E-08       0.001       38.272
     Symmetrizing Results
     Final NS sqrt iter    5 1.00000000   0.364E-09

     Est. extremal eigenvalues     -0.93500     1.63772  converged:  T
     TRS4 it   1 1.00000000   0.886E+00       0.000       16.128   0.100E-07
     TRS4 it   2 1.00000000   0.635E+00       0.001       32.256   0.100E-07
     TRS4 it   3 1.00000000   0.455E+00       0.001       32.256   0.100E-07
     TRS4 it   4 1.00000000   0.278E+00       0.001       32.256   0.100E-07
     TRS4 it   5 1.00000000   0.138E+00       0.001       32.256   0.100E-07
     TRS4 it   6 1.00000000   0.435E-01       0.001       32.256   0.100E-07
     TRS4 it   7 1.00000000   0.598E-02       0.001       32.256   0.100E-07
     TRS4 it   8 1.00000000   0.152E-03       0.001       32.256   0.100E-07
     TRS4 it   9 1.00000000   0.104E-06       0.001       32.256   0.100E-07
     TRS4 it  10 1.00000000   0.485E-13       0.001       32.256   0.100E-07
     Final TRS4 iteration   10 1.00000000   0.485E-13
     Chemical potential (mu):      -0.07226
 
 PAO| energy:  -7.7620396799005027      penalty:   2.8744614104742800E-008
 PAO|CG| warming up with steepest descent
 PAO|CG| beta:    0.0000000000000000     
 PAO| norm of gradient:   1.3083045134360335E-004
 PAO| energy improvement:  -5.3064939109503939E-009
 PAO| step    414                   -7.762039680  0.818E-05  0.249E+00     0.082
 PAO| converged after          414  steps :-)
 PAO| Recalculating energy after mixing.

     Lanczos converged:  T threshold:   0.100E-02
     Est. extremal eigenvalues:    0.250E+01   0.190E+00
     Est. condition number :    0.131E+02

 Order=           3
     NS sqrt iter    1 1.00000000   0.633E+00       0.001       49.956
     NS sqrt iter    2 1.00000000   0.274E+00       0.001      110.592
     NS sqrt iter    3 1.00000000   0.484E-01       0.001      110.592
     NS sqrt iter    4 1.00000000   0.771E-03       0.001      110.435
     NS sqrt iter    5 1.00000000   0.610E-08       0.001       38.272
     Symmetrizing Results
     Final NS sqrt iter    5 1.00000000   0.364E-09

     Est. extremal eigenvalues     -0.93500     1.63772  converged:  T
     TRS4 it   1 1.00000000   0.886E+00       0.001       16.128   0.100E-07
     TRS4 it   2 1.00000000   0.635E+00       0.001       32.256   0.100E-07
     TRS4 it   3 1.00000000   0.455E+00       0.001       32.256   0.100E-07
     TRS4 it   4 1.00000000   0.278E+00       0.001       32.256   0.100E-07
     TRS4 it   5 1.00000000   0.138E+00       0.001       32.256   0.100E-07
     TRS4 it   6 1.00000000   0.435E-01       0.001       32.256   0.100E-07
     TRS4 it   7 1.00000000   0.598E-02       0.001       32.256   0.100E-07
     TRS4 it   8 1.00000000   0.152E-03       0.001       32.256   0.100E-07
     TRS4 it   9 1.00000000   0.104E-06       0.001       32.256   0.100E-07
     TRS4 it  10 1.00000000   0.483E-13       0.001       32.256   0.100E-07
     Final TRS4 iteration   10 1.00000000   0.483E-13
     Chemical potential (mu):      -0.07226
 
 PAO| energy:  -7.7620396785738617      penalty:   2.9033821041270363E-008
 PAO| Writing restart file.
     Est. extremal eigenvalues     -0.93500     1.63772  converged:  T
     TRS4 it   1 1.00000000   0.886E+00       0.000       16.128   0.100E-07
     TRS4 it   2 1.00000000   0.635E+00       0.001       32.256   0.100E-07
     TRS4 it   3 1.00000000   0.455E+00       0.001       32.256   0.100E-07
     TRS4 it   4 1.00000000   0.278E+00       0.001       32.256   0.100E-07
     TRS4 it   5 1.00000000   0.138E+00       0.001       32.256   0.100E-07
     TRS4 it   6 1.00000000   0.435E-01       0.001       32.256   0.100E-07
     TRS4 it   7 1.00000000   0.598E-02       0.001       32.256   0.100E-07
     TRS4 it   8 1.00000000   0.152E-03       0.001       32.256   0.100E-07
     TRS4 it   9 1.00000000   0.104E-06       0.001       32.256   0.100E-07
     TRS4 it  10 1.00000000   0.483E-13       0.001       32.256   0.100E-07
     Final TRS4 iteration   10 1.00000000   0.483E-13
     Chemical potential (mu):      -0.07226

 SCF     1       -34.449443937       -34.449443937    2.339382

*********************************************************
 Using MIXING_FRACTION=0.450 to mix KS matrix:  iscf=  2
 KS_nw=0.450*KS + 0.550*KS_old
*********************************************************
     Est. extremal eigenvalues     -0.93500     1.63773  converged:  T
     TRS4 it   1 1.00000000   0.886E+00       0.000       16.128   0.100E-07
     TRS4 it   2 1.00000000   0.635E+00       0.000       32.256   0.100E-07
     TRS4 it   3 1.00000000   0.455E+00       0.000       32.256   0.100E-07
     TRS4 it   4 1.00000000   0.278E+00       0.000       32.256   0.100E-07
     TRS4 it   5 1.00000000   0.138E+00       0.000       32.256   0.100E-07
     TRS4 it   6 1.00000000   0.435E-01       0.000       32.256   0.100E-07
     TRS4 it   7 1.00000000   0.598E-02       0.000       32.256   0.100E-07
     TRS4 it   8 1.00000000   0.152E-03       0.000       32.256   0.100E-07
     TRS4 it   9 1.00000000   0.104E-06       0.000       32.256   0.100E-07
     TRS4 it  10 1.00000000   0.496E-13       0.000       32.256   0.100E-07
     Final TRS4 iteration   10 1.00000000   0.496E-13
     Chemical potential (mu):      -0.07226

 SCF     2       -34.449443937        -0.000000000    1.798986


 SCF run converged in     2 steps.

 PAO| Storing density matrix for ASPC guess in slot:           1

 ENERGY| Total FORCE_EVAL ( QS ) energy [a.u.]:              -34.449443936788015

 -------------------------------------------------------------------------------
 -                                                                             -
 -                                DBCSR STATISTICS                             -
 -                                                                             -
 -------------------------------------------------------------------------------
 COUNTER                                    TOTAL       BLAS       SMM       ACC
 flops     5 x     5 x     4                20000       0.0%    100.0%      0.0%
 flops    13 x     5 x     4                20800       0.0%    100.0%      0.0%
 flops     5 x    13 x     4                20800       0.0%    100.0%      0.0%
 flops    13 x    13 x     4                40560       0.0%    100.0%      0.0%
 flops     4 x     4 x     5              3252480       0.0%    100.0%      0.0%
 flops     5 x     4 x     5              3958400       0.0%    100.0%      0.0%
 flops     4 x     4 x    13              4228224       0.0%    100.0%      0.0%
 flops    13 x     4 x     5              5145920       0.0%    100.0%      0.0%
 flops     5 x     4 x    13              5145920       0.0%    100.0%      0.0%
 flops     5 x     4 x     4              6347840       0.0%    100.0%      0.0%
 flops    13 x     4 x    13              6689696       0.0%    100.0%      0.0%
 flops    13 x     4 x     4              8471008       0.0%    100.0%      0.0%
 flops     4 x     4 x     4            418581632       0.0%    100.0%      0.0%
 flops inhomo. stacks                           0       0.0%      0.0%      0.0%
 flops total                       461.923280E+06       0.0%    100.0%      0.0%
 flops max/rank                    461.923280E+06       0.0%    100.0%      0.0%
 matmuls inhomo. stacks                         0       0.0%      0.0%      0.0%
 matmuls total                            3405440       0.0%    100.0%      0.0%
 number of processed stacks                 27179       0.0%    100.0%      0.0%
 average stack size                                     0.0     125.3       0.0
 marketing flops                   751.612992E+06
 -------------------------------------------------------------------------------
 # multiplications                          22708
 max memory usage/rank             506.478592E+06
 # max total images/rank                        1
 # max 3D layers                                1
 # MPI messages exchanged                       0
 -------------------------------------------------------------------------------

 -------------------------------------------------------------------------------
 -                                                                             -
 -                                DBM STATISTICS                               -
 -                                                                             -
 -------------------------------------------------------------------------------
    M  x    N  x    K                                          COUNT     PERCENT
 -------------------------------------------------------------------------------

 -------------------------------------------------------------------------------
 -                                                                             -
 -                                GRID STATISTICS                              -
 -                                                                             -
 -------------------------------------------------------------------------------
 LP    KERNEL             BACKEND                              COUNT     PERCENT
 2     collocate ortho    REF                                  38110      30.68%
 2     integrate ortho    REF                                  38110      30.68%
 3     collocate ortho    REF                                  19720      15.88%
 3     integrate ortho    REF                                  19720      15.88%
 4     collocate ortho    REF                                   4270       3.44%
 4     integrate ortho    REF                                   4270       3.44%
 0     collocate general  REF                                      6       0.00%
 -------------------------------------------------------------------------------

 MEMORY| Estimated peak process memory [MiB]                                 484

 -------------------------------------------------------------------------------
 -                                                                             -
 -                           R E F E R E N C E S                               -
 -                                                                             -
 -------------------------------------------------------------------------------
 
 CP2K version 2023.1 (Development Version), the CP2K developers group (2023).
 CP2K is freely available from https://www.cp2k.org/ .

 Kuehne,Thomas D.; Iannuzzi,Marcella; Del Ben,Mauro;
 Rybkin,Vladimir V.; Seewald,Patrick; Stein,Frederick; Laino,Teodoro;
 Khaliullin,Rustam Z.; Schuett,Ole; Schiffmann,Florian; Golze,Dorothea;
 Wilhelm,Jan; Chulkov,Sergey; Bani-Hashemian,Mohammad Hossein;
 Weber,Valery; Borstnik,Urban; Taillefumier,Mathieu;
 Jakobovits,Alice Shoshana; Lazzaro,Alfio; Pabst,Hans; Mueller,Tiziano;
 Schade,Robert; Guidon,Manuel; Andermatt,Samuel; Holmberg,Nico;
 Schenter,Gregory K.; Hehn,Anna; Bussy,Augustin; Belleflamme,Fabian;
 Tabacchi,Gloria; Gloess,Andreas; Lass,Michael; Bethune,Iain;
 Mundy,Christopher J.; Plessl,Christian; Watkins,Matt;
 VandeVondele,Joost; Krack,Matthias; Hutter,Juerg. 
 The Journal of Chemical Physics, 152 (19), (2020). 
 CP2K: An electronic structure and molecular dynamics software package -
 Quickstep: Efficient and accurate electronic structure calculations.
 https://doi.org/10.1063/5.0007045

 Schuett, O; VandeVondele, J. 
 Journal of Chemical Theory and Computation, 14, (2018). 
 Machine Learning Adaptive Basis Sets for Efficient Large Scale
 Density Functional Theory Simulation.
 https://doi.org/10.1021/acs.jctc.8b00378

 Schuett, Ole; Messmer, Peter; Hutter, Juerg; VandeVondele, Joost. 
 Electronic Structure Calculations on Graphics Processing Units, John
 Wiley & Sons, Ltd, 173-190 (2016). 
 GPU-Accelerated Sparse Matrix-Matrix Multiplication for
 Linear Scaling Density Functional Theory.
 https://doi.org/10.1002/9781118670712.ch8

 Heinecke, A; Henry, G; Hutchinson, M; Pabst, H. 
 Proceedings of Intl. Supercomputing Conference, 981-991 (2016). 
 LIBXSMM: Accelerating Small Matrix Multiplications
 by Runtime Code Generation.
 https://doi.org/10.1109/SC.2016.83

 Borstnik, U; VandeVondele, J; Weber, V; Hutter, J. 
 PARALLEL COMPUTING, 40 (5-6), 47-58 (2014). 
 Sparse matrix multiplication: The distributed block-compressed sparse
 row library.
 https://doi.org/10.1016/j.parco.2014.03.012

 Hutter, J; Iannuzzi, M; Schiffmann, F; VandeVondele, J. 
 WIREs Comput Mol Sci., 4 (1), 15-25 (2014). 
 CP2K: atomistic simulations of condensed matter systems.
 https://doi.org/10.1002/wcms.1159

 VandeVondele, J; Borstnik, U; Hutter, J. 
 JOURNAL OF CHEMICAL THEORY AND COMPUTATION, 8 (10), 3565-3573 (2012). 
 Linear Scaling Self-Consistent Field Calculations with Millions of Atoms
 in the Condensed Phase.
 https://doi.org/10.1021/ct200897x

 VandeVondele, J; Hutter, J. 
 JOURNAL OF CHEMICAL PHYSICS, 127 (11), 114105 (2007). 
 Gaussian basis sets for accurate calculations on molecular systems in
 gas and condensed phases.
 https://doi.org/10.1063/1.2770708

 Krack, M. 
 THEORETICAL CHEMISTRY ACCOUNTS, 114 (1-3), 145-152 (2005). 
 Pseudopotentials for H to Kr optimized for gradient-corrected
 exchange-correlation functionals.
 https://doi.org/10.1007/s00214-005-0655-y

 VandeVondele, J; Krack, M; Mohamed, F; Parrinello, M; Chassaing, T;
 Hutter, J. COMPUTER PHYSICS COMMUNICATIONS, 167 (2), 103-128 (2005). 
 QUICKSTEP: Fast and accurate density functional calculations using a
 mixed Gaussian and plane waves approach.
 https://doi.org/10.1016/j.cpc.2004.12.014

 Frigo, M; Johnson, SG. 
 PROCEEDINGS OF THE IEEE, 93 (2), 216-231 (2005). 
 The design and implementation of FFTW3.
 https://doi.org/10.1109/JPROC.2004.840301

 Niklasson, AMN; Tymczak, CJ; Challacombe, M. 
 JOURNAL OF CHEMICAL PHYSICS, 118 (19), 8611-8620 (2003). 
 Trace resetting density matrix purification in O(N)
 self-consistent-field theory.
 https://doi.org/10.1063/1.1559913

 Hartwigsen, C; Goedecker, S; Hutter, J. 
 PHYSICAL REVIEW B, 58 (7), 3641-3662 (1998). 
 Relativistic separable dual-space Gaussian pseudopotentials from H to Rn.
 https://doi.org/10.1103/PhysRevB.58.3641

 Lippert, G; Hutter, J; Parrinello, M. 
 MOLECULAR PHYSICS, 92 (3), 477-487 (1997). 
 A hybrid Gaussian and plane wave density functional scheme.
 https://doi.org/10.1080/002689797170220

 Perdew, JP; Burke, K; Ernzerhof, M. 
 PHYSICAL REVIEW LETTERS, 77 (18), 3865-3868 (1996). 
 Generalized gradient approximation made simple.
 https://doi.org/10.1103/PhysRevLett.77.3865

 Goedecker, S; Teter, M; Hutter, J. 
 PHYSICAL REVIEW B, 54 (3), 1703-1710 (1996). 
 Separable dual-space Gaussian pseudopotentials.
 https://doi.org/10.1103/PhysRevB.54.1703


 -------------------------------------------------------------------------------
 -                                                                             -
 -                                T I M I N G                                  -
 -                                                                             -
 -------------------------------------------------------------------------------
 SUBROUTINE                       CALLS  ASD         SELF TIME        TOTAL TIME
                                MAXIMUM       AVERAGE  MAXIMUM  AVERAGE  MAXIMUM
 CP2K                                 1  1.0    0.035    0.035   37.656   37.656
 qs_energies                          1  2.0    0.000    0.000   37.047   37.047
 ls_scf                               1  3.0    0.000    0.000   36.835   36.835
 ls_scf_main                          4  4.0    0.001    0.001   25.218   25.218
 ls_scf_dm_to_ks                      9  5.0    0.000    0.000   25.122   25.122
 qs_ks_update_qs_env                 10  6.0    0.000    0.000   21.018   21.018
 rebuild_ks_matrix                   10  7.0    0.000    0.000   21.017   21.017
 qs_ks_build_kohn_sham_matrix        10  8.0    0.003    0.003   21.017   21.017
 qs_vxc_create                       10  9.0    0.000    0.000   13.118   13.118
 xc_vxc_pw_create                    10 10.0    0.242    0.242   13.118   13.118
 pw_transfer                        191 11.1    0.031    0.031   11.274   11.274
 fft_wrap_pw1pw2                    171 12.3    0.004    0.004   10.996   10.996
 fft_wrap_pw1pw2_200                111 13.7    1.095    1.095   10.526   10.526
 pao_update                           4  4.0    0.008    0.008    8.128    8.128
 xc_rho_set_and_dset_create          10 11.0    0.306    0.306    7.640    7.640
 xc_pw_derive                        60 12.0    0.001    0.001    7.612    7.612
 qs_rho_update_rho_low               10  6.0    0.000    0.000    7.531    7.531
 calculate_rho_elec                  10  7.0    0.044    0.044    7.531    7.531
 pao_calc_energy                    417  5.0    0.003    0.003    7.370    7.370
 sum_up_and_integrate                10  9.0    0.204    0.204    6.043    6.043
 dbcsr_multiply_generic           22708  8.4    0.366    0.366    5.851    5.851
 integrate_v_rspace                  10 10.0    0.001    0.001    5.839    5.839
 xc_pw_divergence                    10 11.0    0.001    0.001    5.040    5.040
 grid_collocate_task_list            10  8.0    4.914    4.914    4.914    4.914
 fft3d_s                            172 14.2    4.694    4.694    4.737    4.737
 grid_integrate_task_list            10 11.0    4.534    4.534    4.534    4.534
 pao_dm_trs4                        417  6.0    0.002    0.002    3.846    3.846
 density_matrix_trs4                426  7.0    0.121    0.121    3.712    3.712
 ls_scf_init_matrix_S               421  7.0    0.003    0.003    3.505    3.505
 pao_rebuild_S                      417  6.0    0.001    0.001    3.472    3.472
 pao_guess_initial_P                  1  4.0    0.000    0.000    3.433    3.433
 pao_read_preopt_dm                   1  5.0    0.000    0.000    3.433    3.433
 matrix_sqrt_Newton_Schulz          421  8.0    0.081    0.081    3.170    3.170
 xc_functional_eval                  10 12.0    0.000    0.000    3.130    3.130
 pbe_lda_eval                        10 13.0    3.129    3.129    3.129    3.129
 pw_scatter_s                        90 14.7    2.610    2.610    2.610    2.610
 density_rs2pw                       10  8.0    0.001    0.001    2.573    2.573
 pw_gather_s                         81 13.8    2.508    2.508    2.508    2.508
 make_m2s                         45416  9.4    0.141    0.141    2.199    2.199
 multiply_cannon                  22708  9.4    0.899    0.899    2.188    2.188
 make_images                      45416 10.4    0.542    0.542    1.948    1.948
 pw_derive                           60 13.0    1.498    1.498    1.498    1.498
 potential_pw2rs                     10 11.0    0.003    0.003    1.304    1.304
 arnoldi_extremal                   847  8.5    0.003    0.003    1.156    1.156
 arnoldi_normal_ev                  847  9.5    0.009    0.009    1.153    1.153
 pw_copy                            120 11.8    1.026    1.026    1.026    1.026
 build_subspace                     847 10.5    0.047    0.047    0.905    0.905
 dbcsr_matrix_vector_mult         20282 11.5    0.095    0.095    0.839    0.839
 pao_calc_AB                        548  5.8    0.001    0.001    0.753    0.753
 -------------------------------------------------------------------------------

 The number of warnings for this run is : 0
 
 -------------------------------------------------------------------------------
  **** **** ******  **  PROGRAM ENDED AT                 2023-02-01 10:44:32.868
 ***** ** ***  *** **   PROGRAM RAN ON                                    moritz
 **    ****   ******    PROGRAM RAN BY                                       ole
 ***** **    ** ** **   PROGRAM PROCESS ID                                148497
  **** **  *******  **  PROGRAM STOPPED IN /home/ole/git/pao_ml_equivar/2H2O_rot
                                           ations/rand_04
