 DBCSR| CPU Multiplication driver                                           XSMM (U)
 DBCSR| Multrec recursion limit                                              512 (U)
 DBCSR| Multiplication stack size                                           1000 (D)
 DBCSR| Maximum elements for images                                    UNLIMITED (U)
 DBCSR| Multiplicative factor virtual images                                   1 (U)
 DBCSR| Use multiplication densification                                       T (D)
 DBCSR| Multiplication size stacks                                             3 (U)
 DBCSR| Use memory pool for CPU allocation                                     F (U)
 DBCSR| Number of 3D layers                                               SINGLE (U)
 DBCSR| Use MPI memory allocation                                              F (U)
 DBCSR| Use RMA algorithm                                                      F (U)
 DBCSR| Use Communication thread                                               T (U)
 DBCSR| Communication thread load                                             87 (D)
 DBCSR| MPI: My process id                                                     0
 DBCSR| MPI: Number of processes                                              32
 DBCSR| OMP: Current number of threads                                         1
 DBCSR| OMP: Max number of threads                                             1
 DBCSR| Split modifier for TAS multiplication algorithm                  1.0E+00 (U)


  **** **** ******  **  PROGRAM STARTED AT               2024-09-24 04:22:28.902
 ***** ** ***  *** **   PROGRAM STARTED ON                                moritz
 **    ****   ******    PROGRAM STARTED BY                                   ole
 ***** **    ** ** **   PROGRAM PROCESS ID                                168533
  **** **  *******  **  PROGRAM STARTED IN /home/ole/git/pao_ml_equivar/64H2O_MD
                                           /Frame4900

 CP2K| version string:                 CP2K version 2024.3 (Development Version)
 CP2K| source code revision number:                                  git:3f890bb
 CP2K| cp2kflags: omp libint fftw3 libxc libgrpp pexsi elpa parallel scalapack c
 CP2K|            osma quip deepmd xsmm plumed2 spglib libdftd4 sirius libvori l
 CP2K|            libbqb libvdwxc hdf5
 CP2K| is freely available from                            https://www.cp2k.org/
 CP2K| Program compiled at                          Mo 23 Sep 2024 17:17:04 CEST
 CP2K| Program compiled on                                                moritz
 CP2K| Program compiled for                                                local
 CP2K| Data directory path                               /home/ole/git/cp2k/data
 CP2K| Input file name                                           64H2O_pao44.inp

 GLOBAL| Force Environment number                                              1
 GLOBAL| Basis set file name                                        BASIS_MOLOPT
 GLOBAL| Potential file name                                      GTH_POTENTIALS
 GLOBAL| MM Potential file name                                     MM_POTENTIAL
 GLOBAL| Coordinate file name                                         coords.xyz
 GLOBAL| Method name                                                        CP2K
 GLOBAL| Project name                                                64H2O_pao44
 GLOBAL| Run type                                                         ENERGY
 GLOBAL| FFT library                                                       FFTW3
 GLOBAL| Diagonalization library                                            ELPA
 GLOBAL| DGEMM library                                                      BLAS
 GLOBAL| Minimum number of eigenvectors for ELPA usage                        16
 GLOBAL| Orthonormality check for eigenvectors                          DISABLED
 GLOBAL| Matrix multiplication library                                     COSMA
 GLOBAL| All-to-all communication in single precision                          F
 GLOBAL| FFTs using library dependent lengths                                  F
 GLOBAL| Grid backend                                                       AUTO
 GLOBAL| Global print level                                                  LOW
 GLOBAL| MPI I/O enabled                                                       T
 GLOBAL| Total number of message passing processes                            32
 GLOBAL| Number of threads for this process                                    1
 GLOBAL| This output is from process                                           0
 GLOBAL| Stack size for threads created by OpenMP (OMP_STACKSIZE)        default
 GLOBAL| CPU model name           AMD Ryzen Threadripper 3970X 32-Core Processor
 GLOBAL| CPUID                                                              1002

 MEMORY| system memory details [Kb]
 MEMORY|                        rank 0           min           max       average
 MEMORY| MemTotal            131752136     131752136     131752136     131752136
 MEMORY| MemFree             114311000     114311000     114311000     114311000
 MEMORY| Buffers               2018032       2018032       2018032       2018032
 MEMORY| Cached                8693724       8693724       8693724       8693724
 MEMORY| Slab                  1642700       1642700       1642700       1642700
 MEMORY| SReclaimable          1145416       1145416       1145416       1145416
 MEMORY| MemLikelyFree       126168172     126168172     126168172     126168172


 GENERATE|  Preliminary Number of Bonds generated:                             0
 GENERATE|  Achieved consistency in connectivity generation.

 *******************************************************************************
 *******************************************************************************
 **                                                                           **
 **     #####                         ##              ##                      **
 **    ##   ##            ##          ##              ##                      **
 **   ##     ##                       ##            ######                    **
 **   ##     ##  ##   ##  ##   #####  ##  ##   ####   ##    #####    #####    **
 **   ##     ##  ##   ##  ##  ##      ## ##   ##      ##   ##   ##  ##   ##   **
 **   ##  ## ##  ##   ##  ##  ##      ####     ###    ##   ######   ######    **
 **    ##  ###   ##   ##  ##  ##      ## ##      ##   ##   ##       ##        **
 **     #######   #####   ##   #####  ##  ##  ####    ##    #####   ##        **
 **           ##                                                    ##        **
 **                                                                           **
 **                                                ... make the atoms dance   **
 **                                                                           **
 **            Copyright (C) by CP2K developers group (2000-2024)             **
 **                      J. Chem. Phys. 152, 194103 (2020)                    **
 **                                                                           **
 *******************************************************************************


 TOTAL NUMBERS AND MAXIMUM NUMBERS

  Total number of            - Atomic kinds:                                   2
                             - Atoms:                                        192
                             - Shell sets:                                   192
                             - Shells:                                       704
                             - Primitive Cartesian functions:               1344
                             - Cartesian basis functions:                   1536
                             - Spherical basis functions:                   1472

  Maximum angular momentum of- Orbital basis functions:                        2
                             - Local part of the GTH pseudopotential:          2
                             - Non-local part of the GTH pseudopotential:      0

 ------------------------------ Linear scaling SCF -----------------------------
 eps_scf:                                                              0.100E-07
 eps_filter:                                                           0.100E-11
 mixing_fraction:                                                      0.450E+00
 max_scf:                                                                     25
 fixed chemical potential (mu)                                                 F
 has unit metric:                                                              F
 Computing inv(S):                                                             T
 Computing sqrt(S):                                                            T
 Computing S preconditioner                                                    F
 S sqrt method:                                                     NEWTONSCHULZ
 S sqrt order:                                                                 3
 Extrapolation order:                                                          1
 S preconditioner type                                                      NONE
 Polarized Atomic Orbitals (PAO)                                               T
 Purification method                                   Trace resetting 4th order
 Cluster type                                                             ATOMIC
 Computing Chebyshev                                                       FALSE
 Using PAO                                                                     T
 -------------------------------------------------------------------------------

 
 PAO|                                  EPS_PAO                           0.5E-06
 PAO|                                  MIXING                            0.5E+00
 PAO|                                  MAX_PAO                              1500
 PAO|                                  MAX_CYCLES                           1000
 PAO|                                  PARAMETERIZATION              EQUIVARIANT
 PAO|                                  PRECONDITION                            F
 PAO|                                  REGULARIZATION                    0.0E+00
 PAO|                                  EPS_PGF                           0.1E-09
 PAO|                                  PENALTY_DISTANCE                  0.1E+00
 PAO|                                  PENALTY_STRENGTH                  0.5E-02
 PAO|                                  LINPOT_PRECONDITION_DELTA         0.0E+00
 PAO|                                  LINPOT_INITGUESS_DELT             0.0E+00
 PAO|                                  LINPOT_REGULARIZATION_DELTA       0.0E+00
 PAO|                                  LINPOT_REGULARIZATION_STRENGTH    0.0E+00
 PAO|                                  OPTIMIZER                              CG
 PAO|                                  CG_INIT_STEPS                           2
 PAO|                                  CG_RESET_LIMIT                    0.1E+00
 PAO|                                  CHECK_UNITARY_TOL                -0.1E+01
 PAO|                                  CHECK_GRADIENT_TOL               -0.1E+01
 PAO|                                  NUM_GRADIENT_ORDER                      2
 PAO|                                  NUM_GRADIENT_EPS                  0.1E-07
 PAO|                                  PRINT%RESTART%WRITE_CYCLES            100
 PAO|                                  RESTART_FILE 
 PAO|                                  PREOPT_DM_FILE 64H2O_ref_LS_DM_SPIN_1_RESTART.dm
 PAO|                                  MACHINE_LEARNING%METHOD       GAUSSIAN_PR
 PAO|                                  MACHINE_LEARNING%PRIOR               ZERO
 PAO|                                  MACHINE_LEARNING%DESCRIPTOR     POTENTIAL
 PAO|                                  MACHINE_LEARNING%TOLERANCE        0.1E-01
 PAO|                                  MACHINE_LEARNING%GP_NOISE_VAR     0.1E+00
 PAO|                                  MACHINE_LEARNING%GP_SCALE         0.5E-01
 

 Calculating atomic Fock matrix for atomic kind: O

 Electronic structure
    Total number of core electrons                                          2.00
    Total number of valence electrons                                       6.00
    Total number of electrons                                               8.00
    Multiplicity                                                   not specified
    S   [  2.00] 2.00
    P      4.00


 *******************************************************************************
                  Iteration          Convergence                     Energy [au]
 *******************************************************************************
                          1        0.708315                     -15.576645311500
                          2        0.608879                     -15.587933561584
                          3        0.102828E-01                 -15.656849565404
                          4        0.113889E-02                 -15.656866888140
                          5        0.434197E-03                 -15.656867072159
                          6        0.263771E-03                 -15.656867091904
                          7        0.478536E-06                 -15.656867103452

 Energy components [Hartree]           Total Energy ::          -15.656867103452
                                        Band Energy ::           -3.000198112285
                                     Kinetic Energy ::           11.759971203220
                                   Potential Energy ::          -27.416838306672
                                      Virial (-V/T) ::            2.331369510426
                                        Core Energy ::          -26.140716385623
                                          XC Energy ::           -3.154051012914
                                     Coulomb Energy ::           13.637900295084
                       Total Pseudopotential Energy ::          -37.935781716540
                       Local Pseudopotential Energy ::          -39.218907440693
                    Nonlocal Pseudopotential Energy ::            1.283125724153
                                        Confinement ::            0.350941276976

 Orbital energies  State     L     Occupation   Energy[a.u.]          Energy[eV]

                       1     0          2.000      -0.864471          -23.523463

                       1     1          4.000      -0.317814           -8.648154


 Total Electron Density at R=0:                                         0.000068

 Calculating atomic Fock matrix for atomic kind: H

 Electronic structure
    Total number of core electrons                                          0.00
    Total number of valence electrons                                       1.00
    Total number of electrons                                               1.00
    Multiplicity                                                   not specified
    S      1.00


 *******************************************************************************
                  Iteration          Convergence                     Energy [au]
 *******************************************************************************
                          1        0.437545E-02                  -0.424159432110
                          2        0.531356E-03                  -0.424178438213
                          3        0.259176E-06                  -0.424178722480

 Energy components [Hartree]           Total Energy ::           -0.424178722480
                                        Band Energy ::           -0.199015229016
                                     Kinetic Energy ::            0.464007633961
                                   Potential Energy ::           -0.888186356441
                                      Virial (-V/T) ::            1.914163240935
                                        Core Energy ::           -0.479160803564
                                          XC Energy ::           -0.244352904054
                                     Coulomb Energy ::            0.299334985138
                       Total Pseudopotential Energy ::           -0.962295316385
                       Local Pseudopotential Energy ::           -0.962295316385
                    Nonlocal Pseudopotential Energy ::            0.000000000000
                                        Confinement ::            0.191268788606

 Orbital energies  State     L     Occupation   Energy[a.u.]          Energy[eV]

                       1     0          1.000      -0.199015           -5.415480


 Total Electron Density at R=0:                                         0.242907
 PAO| Made initial guess for matrix_X with norm:   27.712812921102035     

     Lanczos converged:  F threshold:   0.100E-02
     Est. extremal eigenvalues:    0.603E+01   0.910E-01
     Est. condition number :    0.663E+02

 Order=           3
     NS sqrt iter    1 1.00000000   0.147E+01       0.021     2708.061
     NS sqrt iter    2 1.00000000   0.805E+00       0.033     3388.695
     NS sqrt iter    3 1.00000000   0.324E+00       0.034     3370.664
     NS sqrt iter    4 1.00000000   0.885E-01       0.034     3367.705
     NS sqrt iter    5 1.00000000   0.296E-02       0.033     3386.275
     NS sqrt iter    6 1.00000000   0.218E-06       0.029     2935.088
     Symmetrizing Results
     Final NS sqrt iter    6 1.00000000   0.127E-12

 PAO| Read restart DM 64H2O_ref_LS_DM_SPIN_1_RESTART.dm with checksum:    6168.1121949040989     
 PAO| Quickstep energy from restart density:  -1103.1222756532266     
 PAO| ======================= Iteration:         1 =============================

     Lanczos converged:  F threshold:   0.100E-02
     Est. extremal eigenvalues:    0.603E+01   0.910E-01
     Est. condition number :    0.663E+02

 Order=           3
     NS sqrt iter    1 1.00000000   0.147E+01       0.021     2705.910
     NS sqrt iter    2 1.00000000   0.805E+00       0.033     3405.483
     NS sqrt iter    3 1.00000000   0.324E+00       0.033     3400.285
     NS sqrt iter    4 1.00000000   0.885E-01       0.033     3406.359
     NS sqrt iter    5 1.00000000   0.296E-02       0.033     3388.145
     NS sqrt iter    6 1.00000000   0.218E-06       0.029     2944.686
     Symmetrizing Results
     Final NS sqrt iter    6 1.00000000   0.127E-12

     Est. extremal eigenvalues     -0.81788     2.61232  converged:  T
     TRS4 it   1 1.00000000   0.272E+02       0.007     2109.412   0.100E-11
     TRS4 it   2 1.00000000   0.236E+02       0.013     2176.951   0.100E-11
     TRS4 it   3 1.00000000   0.160E+02       0.013     2196.203   0.100E-11
     TRS4 it   4 1.00000000   0.995E+01       0.013     2203.359   0.100E-11
     TRS4 it   5 1.00000000   0.479E+01       0.013     2170.686   0.100E-11
     TRS4 it   6 1.00000000   0.159E+01       0.013     2163.205   0.100E-11
     TRS4 it   7 1.00000000   0.311E+00       0.013     2186.544   0.100E-11
     TRS4 it   8 1.00000000   0.214E-01       0.013     2175.927   0.100E-11
     TRS4 it   9 1.00000000   0.187E-03       0.013     2175.601   0.100E-11
     TRS4 it  10 1.00000000   0.239E-07       0.013     2213.623   0.100E-11
     TRS4 it  11 1.00000000   0.711E-14       0.013     2189.059   0.100E-11
     Final TRS4 iteration   11 1.00000000   0.711E-14
     Chemical potential (mu):       0.01297
 
 PAO| energy:  -186.09021026483265      penalty:   1.3780413938079550E-031
 PAO|CG| warming up with steepest descent
 PAO|CG| beta:    0.0000000000000000     
 PAO| norm of gradient:   3.9680462810068589     
 PAO|LS| adapt:  T F F
 PAO|LS| adapt: scan_steps:    0.0000000000000000        0.0000000000000000        0.0000000000000000     
 PAO|LS| adapt: energies:   -186.09021026483265        0.0000000000000000        0.0000000000000000     
 PAO| ======================= Iteration:         2 =============================

     Lanczos converged:  F threshold:   0.100E-02
     Est. extremal eigenvalues:    0.583E+01   0.983E-01
     Est. condition number :    0.592E+02

 Order=           3
     NS sqrt iter    1 1.00000000   0.143E+01       0.021     2719.112
     NS sqrt iter    2 1.00000000   0.776E+00       0.033     3389.821
     NS sqrt iter    3 1.00000000   0.303E+00       0.034     3370.457
     NS sqrt iter    4 1.00000000   0.742E-01       0.033     3397.382
     NS sqrt iter    5 1.00000000   0.183E-02       0.033     3418.751
     NS sqrt iter    6 1.00000000   0.612E-07       0.029     2939.104
     Symmetrizing Results
     Final NS sqrt iter    6 1.00000000   0.122E-13

     Est. extremal eigenvalues     -0.82125     2.60689  converged:  T
     TRS4 it   1 1.00000000   0.275E+02       0.007     2154.368   0.100E-11
     TRS4 it   2 1.00000000   0.235E+02       0.013     2192.379   0.100E-11
     TRS4 it   3 1.00000000   0.159E+02       0.013     2201.547   0.100E-11
     TRS4 it   4 1.00000000   0.975E+01       0.013     2196.440   0.100E-11
     TRS4 it   5 1.00000000   0.458E+01       0.013     2206.470   0.100E-11
     TRS4 it   6 1.00000000   0.146E+01       0.013     2194.540   0.100E-11
     TRS4 it   7 1.00000000   0.266E+00       0.013     2199.266   0.100E-11
     TRS4 it   8 1.00000000   0.153E-01       0.013     2204.335   0.100E-11
     TRS4 it   9 1.00000000   0.876E-04       0.013     2202.916   0.100E-11
     TRS4 it  10 1.00000000   0.608E-08       0.013     2201.643   0.100E-11
     TRS4 it  11 1.00000000   0.266E-13       0.013     2218.474   0.100E-11
     Final TRS4 iteration   11 1.00000000   0.266E-13
     Chemical potential (mu):       0.01896
 
 PAO| energy:  -187.53658558875389      penalty:   4.6632695902661875E-007
 PAO|LS| adapt:  T T F
 PAO|LS| adapt: scan_steps:    0.0000000000000000       0.10000000000000001        0.0000000000000000     
 PAO|LS| adapt: energies:   -186.09021026483265       -187.53658558875389        0.0000000000000000     
 PAO| ======================= Iteration:         3 =============================

     Lanczos converged:  F threshold:   0.100E-02
     Est. extremal eigenvalues:    0.562E+01   0.105E+00
     Est. condition number :    0.536E+02

 Order=           3
     NS sqrt iter    1 1.00000000   0.139E+01       0.021     2686.489
     NS sqrt iter    2 1.00000000   0.748E+00       0.033     3383.006
     NS sqrt iter    3 1.00000000   0.283E+00       0.033     3396.643
     NS sqrt iter    4 1.00000000   0.620E-01       0.033     3382.730
     NS sqrt iter    5 1.00000000   0.115E-02       0.033     3391.708
     NS sqrt iter    6 1.00000000   0.181E-07       0.029     2953.189
     Symmetrizing Results
     Final NS sqrt iter    6 1.00000000   0.414E-14

     Est. extremal eigenvalues     -0.82444     2.60783  converged:  T
     TRS4 it   1 1.00000000   0.277E+02       0.007     2098.809   0.100E-11
     TRS4 it   2 1.00000000   0.235E+02       0.013     2185.926   0.100E-11
     TRS4 it   3 1.00000000   0.158E+02       0.013     2212.030   0.100E-11
     TRS4 it   4 1.00000000   0.957E+01       0.013     2194.590   0.100E-11
     TRS4 it   5 1.00000000   0.438E+01       0.013     2180.786   0.100E-11
     TRS4 it   6 1.00000000   0.134E+01       0.013     2209.173   0.100E-11
     TRS4 it   7 1.00000000   0.226E+00       0.013     2201.864   0.100E-11
     TRS4 it   8 1.00000000   0.106E-01       0.013     2192.567   0.100E-11
     TRS4 it   9 1.00000000   0.384E-04       0.013     2179.044   0.100E-11
     TRS4 it  10 1.00000000   0.137E-08       0.013     2224.939   0.100E-11
     TRS4 it  11 1.00000000   0.107E-13       0.013     2186.591   0.100E-11
     Final TRS4 iteration   11 1.00000000   0.107E-13
     Chemical potential (mu):       0.02583
 
 PAO| energy:  -188.71040777297503      penalty:   7.4612313444540613E-006
 PAO|LS| adapt:  T T F
 PAO|LS| adapt: scan_steps:    0.0000000000000000       0.20000000000000001        0.0000000000000000     
 PAO|LS| adapt: energies:   -186.09021026483265       -188.71040777297503        0.0000000000000000     
 PAO| ======================= Iteration:         4 =============================

     Lanczos converged:  F threshold:   0.100E-02
     Est. extremal eigenvalues:    0.522E+01   0.115E+00
     Est. condition number :    0.454E+02

 Order=           3
     NS sqrt iter    1 1.00000000   0.131E+01       0.021     2728.192
     NS sqrt iter    2 1.00000000   0.693E+00       0.033     3392.691
     NS sqrt iter    3 1.00000000   0.246E+00       0.033     3383.149
     NS sqrt iter    4 1.00000000   0.433E-01       0.033     3399.412
     NS sqrt iter    5 1.00000000   0.469E-03       0.033     3394.462
     NS sqrt iter    6 1.00000000   0.165E-08       0.029     2862.891
     Symmetrizing Results
     Final NS sqrt iter    6 1.00000000   0.185E-13

     Est. extremal eigenvalues     -0.82966     2.61602  converged:  T
     TRS4 it   1 1.00000000   0.281E+02       0.007     2165.093   0.100E-11
     TRS4 it   2 1.00000000   0.236E+02       0.013     2184.544   0.100E-11
     TRS4 it   3 1.00000000   0.156E+02       0.013     2201.905   0.100E-11
     TRS4 it   4 1.00000000   0.925E+01       0.013     2203.453   0.100E-11
     TRS4 it   5 1.00000000   0.403E+01       0.013     2218.434   0.100E-11
     TRS4 it   6 1.00000000   0.113E+01       0.013     2183.860   0.100E-11
     TRS4 it   7 1.00000000   0.160E+00       0.013     2212.616   0.100E-11
     TRS4 it   8 1.00000000   0.494E-02       0.013     2207.096   0.100E-11
     TRS4 it   9 1.00000000   0.700E-05       0.013     2205.271   0.100E-11
     TRS4 it  10 1.00000000   0.553E-10       0.013     2210.808   0.100E-11
     Final TRS4 iteration   10 1.00000000   0.553E-10
     Chemical potential (mu):       0.04358
 
 PAO| energy:  -190.19860474086263      penalty:   1.1937970151148742E-004
 PAO|LS| Need extra step
 PAO|LS| adapt:  T T F
 PAO|LS| adapt: scan_steps:    0.0000000000000000       0.40000000000000002        0.0000000000000000     
 PAO|LS| adapt: energies:   -186.09021026483265       -190.19860474086263        0.0000000000000000     
 PAO| ======================= Iteration:         5 =============================

     Lanczos converged:  F threshold:   0.100E-02
     Est. extremal eigenvalues:    0.460E+01   0.130E+00
     Est. condition number :    0.355E+02

 Order=           3
     NS sqrt iter    1 1.00000000   0.119E+01       0.021     2697.111
     NS sqrt iter    2 1.00000000   0.607E+00       0.033     3395.486
     NS sqrt iter    3 1.00000000   0.191E+00       0.033     3407.166
     NS sqrt iter    4 1.00000000   0.227E-01       0.033     3387.517
     NS sqrt iter    5 1.00000000   0.907E-04       0.034     3374.863
     NS sqrt iter    6 1.00000000   0.171E-10       0.017     2187.990
     Symmetrizing Results
     Final NS sqrt iter    6 1.00000000   0.193E-11

     Est. extremal eigenvalues     -0.83301     2.61682  converged:  T
     TRS4 it   1 1.00000000   0.287E+02       0.007     2126.417   0.100E-11
     TRS4 it   2 1.00000000   0.236E+02       0.013     2217.267   0.100E-11
     TRS4 it   3 1.00000000   0.154E+02       0.013     2197.283   0.100E-11
     TRS4 it   4 1.00000000   0.876E+01       0.013     2208.453   0.100E-11
     TRS4 it   5 1.00000000   0.352E+01       0.013     2181.107   0.100E-11
     TRS4 it   6 1.00000000   0.840E+00       0.013     2201.244   0.100E-11
     TRS4 it   7 1.00000000   0.878E-01       0.013     2200.700   0.100E-11
     TRS4 it   8 1.00000000   0.138E-02       0.013     2220.466   0.100E-11
     TRS4 it   9 1.00000000   0.523E-06       0.013     2181.864   0.100E-11
     TRS4 it  10 1.00000000   0.290E-12       0.013     2191.781   0.100E-11
     Final TRS4 iteration   10 1.00000000   0.290E-12
     Chemical potential (mu):       0.06637
 
 PAO| energy:  -189.86289902424969      penalty:   1.9100752241855770E-003
 PAO|LS| Need extra step
 PAO|LS| adapt:  T T T
 PAO|LS| adapt: scan_steps:    0.0000000000000000       0.40000000000000002       0.80000000000000004     
 PAO|LS| adapt: energies:   -186.09021026483265       -190.19860474086263       -189.86289902424969     
 PAO|LS| adapt: suggested step_size:   0.56978414508577480     
 PAO|LS| adapt: predicted energy  -190.59894395067033     
 PAO| ======================= Iteration:         6 =============================

     Lanczos converged:  F threshold:   0.100E-02
     Est. extremal eigenvalues:    0.493E+01   0.122E+00
     Est. condition number :    0.405E+02

 Order=           3
     NS sqrt iter    1 1.00000000   0.125E+01       0.021     2696.427
     NS sqrt iter    2 1.00000000   0.652E+00       0.033     3406.059
     NS sqrt iter    3 1.00000000   0.219E+00       0.033     3393.543
     NS sqrt iter    4 1.00000000   0.324E-01       0.034     3377.930
     NS sqrt iter    5 1.00000000   0.226E-03       0.033     3393.695
     NS sqrt iter    6 1.00000000   0.222E-09       0.027     2624.882
     Symmetrizing Results
     Final NS sqrt iter    6 1.00000000   0.800E-12

     Est. extremal eigenvalues     -0.83237     2.61871  converged:  T
     TRS4 it   1 1.00000000   0.284E+02       0.007     2118.885   0.100E-11
     TRS4 it   2 1.00000000   0.236E+02       0.013     2193.417   0.100E-11
     TRS4 it   3 1.00000000   0.155E+02       0.013     2196.103   0.100E-11
     TRS4 it   4 1.00000000   0.902E+01       0.013     2195.874   0.100E-11
     TRS4 it   5 1.00000000   0.378E+01       0.013     2203.240   0.100E-11
     TRS4 it   6 1.00000000   0.984E+00       0.013     2188.293   0.100E-11
     TRS4 it   7 1.00000000   0.121E+00       0.013     2176.483   0.100E-11
     TRS4 it   8 1.00000000   0.270E-02       0.013     2181.655   0.100E-11
     TRS4 it   9 1.00000000   0.198E-05       0.013     2189.426   0.100E-11
     TRS4 it  10 1.00000000   0.452E-11       0.013     2217.119   0.100E-11
     Final TRS4 iteration   10 1.00000000   0.452E-11
     Chemical potential (mu):       0.05462
 
 PAO| energy:  -190.57226580294179      penalty:   4.9150955460402763E-004
 PAO|CG| warming up with steepest descent
 PAO|CG| beta:    0.0000000000000000     
 PAO| norm of gradient:   2.0907999622420674     
 PAO| energy improvement:  -4.4820555381091367     
 PAO| step      6                 -190.572265803  0.408E-02  0.570E+00     2.434
 PAO|LS| adapt:  T F F
 PAO|LS| adapt: scan_steps:    0.0000000000000000        0.0000000000000000        0.0000000000000000     
 PAO|LS| adapt: energies:   -190.57226580294179        0.0000000000000000        0.0000000000000000     
 PAO| ======================= Iteration:         7 =============================

     Lanczos converged:  F threshold:   0.100E-02
     Est. extremal eigenvalues:    0.479E+01   0.129E+00
     Est. condition number :    0.370E+02

 Order=           3
     NS sqrt iter    1 1.00000000   0.123E+01       0.021     2722.380
     NS sqrt iter    2 1.00000000   0.630E+00       0.033     3389.783
     NS sqrt iter    3 1.00000000   0.204E+00       0.034     3363.829
     NS sqrt iter    4 1.00000000   0.264E-01       0.034     3370.458
     NS sqrt iter    5 1.00000000   0.128E-03       0.033     3387.819
     NS sqrt iter    6 1.00000000   0.423E-10       0.021     2297.885
     Symmetrizing Results
     Final NS sqrt iter    6 1.00000000   0.227E-11

     Est. extremal eigenvalues     -0.83288     2.61129  converged:  T
     TRS4 it   1 1.00000000   0.285E+02       0.007     2145.701   0.100E-11
     TRS4 it   2 1.00000000   0.236E+02       0.013     2186.561   0.100E-11
     TRS4 it   3 1.00000000   0.156E+02       0.013     2202.759   0.100E-11
     TRS4 it   4 1.00000000   0.915E+01       0.013     2186.654   0.100E-11
     TRS4 it   5 1.00000000   0.388E+01       0.013     2209.775   0.100E-11
     TRS4 it   6 1.00000000   0.101E+01       0.013     2209.144   0.100E-11
     TRS4 it   7 1.00000000   0.124E+00       0.013     2206.514   0.100E-11
     TRS4 it   8 1.00000000   0.274E-02       0.013     2223.052   0.100E-11
     TRS4 it   9 1.00000000   0.204E-05       0.013     2207.862   0.100E-11
     TRS4 it  10 1.00000000   0.494E-11       0.013     2190.317   0.100E-11
     Final TRS4 iteration   10 1.00000000   0.494E-11
     Chemical potential (mu):       0.05697
 
 PAO| energy:  -189.65380815982766      penalty:   6.8272853530935431E-004
 PAO|LS| adapt:  T F T
 PAO|LS| adapt: scan_steps:    0.0000000000000000        0.0000000000000000       0.56978414508577480     
 PAO|LS| adapt: energies:   -190.57226580294179        0.0000000000000000       -189.65380815982766     
 PAO| ======================= Iteration:         8 =============================

     Lanczos converged:  F threshold:   0.100E-02
     Est. extremal eigenvalues:    0.486E+01   0.125E+00
     Est. condition number :    0.387E+02

 Order=           3
     NS sqrt iter    1 1.00000000   0.124E+01       0.021     2711.299
     NS sqrt iter    2 1.00000000   0.641E+00       0.033     3390.905
     NS sqrt iter    3 1.00000000   0.211E+00       0.033     3387.414
     NS sqrt iter    4 1.00000000   0.293E-01       0.033     3383.313
     NS sqrt iter    5 1.00000000   0.171E-03       0.034     3377.685
     NS sqrt iter    6 1.00000000   0.982E-10       0.025     2475.692
     Symmetrizing Results
     Final NS sqrt iter    6 1.00000000   0.172E-11

     Est. extremal eigenvalues     -0.83350     2.61528  converged:  T
     TRS4 it   1 1.00000000   0.285E+02       0.007     2122.076   0.100E-11
     TRS4 it   2 1.00000000   0.236E+02       0.013     2176.653   0.100E-11
     TRS4 it   3 1.00000000   0.155E+02       0.013     2199.706   0.100E-11
     TRS4 it   4 1.00000000   0.905E+01       0.013     2193.865   0.100E-11
     TRS4 it   5 1.00000000   0.380E+01       0.013     2164.260   0.100E-11
     TRS4 it   6 1.00000000   0.987E+00       0.013     2194.971   0.100E-11
     TRS4 it   7 1.00000000   0.121E+00       0.013     2189.850   0.100E-11
     TRS4 it   8 1.00000000   0.268E-02       0.013     2204.352   0.100E-11
     TRS4 it   9 1.00000000   0.199E-05       0.013     2186.852   0.100E-11
     TRS4 it  10 1.00000000   0.452E-11       0.013     2203.622   0.100E-11
     Final TRS4 iteration   10 1.00000000   0.452E-11
     Chemical potential (mu):       0.05474
 
 PAO| energy:  -190.95174960499676      penalty:   5.1952042927651753E-004
 PAO|LS| adapt:  T T T
 PAO|LS| adapt: scan_steps:    0.0000000000000000       0.28489207254288740       0.56978414508577480     
 PAO|LS| adapt: energies:   -190.57226580294179       -190.95174960499676       -189.65380815982766     
 PAO|LS| adapt: suggested step_size:   0.20689715088463356     
 PAO|LS| adapt: predicted energy  -191.01461115751530     
 PAO| ======================= Iteration:         9 =============================

     Lanczos converged:  F threshold:   0.100E-02
     Est. extremal eigenvalues:    0.488E+01   0.124E+00
     Est. condition number :    0.392E+02

 Order=           3
     NS sqrt iter    1 1.00000000   0.124E+01       0.021     2716.966
     NS sqrt iter    2 1.00000000   0.644E+00       0.033     3384.370
     NS sqrt iter    3 1.00000000   0.214E+00       0.034     3376.479
     NS sqrt iter    4 1.00000000   0.301E-01       0.034     3353.025
     NS sqrt iter    5 1.00000000   0.185E-03       0.033     3392.152
     NS sqrt iter    6 1.00000000   0.123E-09       0.026     2524.503
     Symmetrizing Results
     Final NS sqrt iter    6 1.00000000   0.149E-11

     Est. extremal eigenvalues     -0.83337     2.61629  converged:  T
     TRS4 it   1 1.00000000   0.285E+02       0.007     2119.627   0.100E-11
     TRS4 it   2 1.00000000   0.236E+02       0.013     2197.410   0.100E-11
     TRS4 it   3 1.00000000   0.155E+02       0.013     2203.224   0.100E-11
     TRS4 it   4 1.00000000   0.903E+01       0.013     2219.815   0.100E-11
     TRS4 it   5 1.00000000   0.379E+01       0.013     2200.160   0.100E-11
     TRS4 it   6 1.00000000   0.984E+00       0.013     2203.702   0.100E-11
     TRS4 it   7 1.00000000   0.121E+00       0.013     2184.832   0.100E-11
     TRS4 it   8 1.00000000   0.268E-02       0.013     2193.253   0.100E-11
     TRS4 it   9 1.00000000   0.198E-05       0.013     2187.082   0.100E-11
     TRS4 it  10 1.00000000   0.448E-11       0.013     2194.342   0.100E-11
     Final TRS4 iteration   10 1.00000000   0.448E-11
     Chemical potential (mu):       0.05450
 
 PAO| energy:  -191.01894954515265      penalty:   5.0286107158525157E-004
 PAO|CG| trace_G_new   0.71435878392981456     
 PAO|CG| trace_G_prev    4.3714444821114302     
 PAO|CG| trace_G_mix   -4.2456143080480790E-002
 PAO|CG| trace_D    4.3714444821114302     
 PAO|CG| trace_D_Gnew   4.2456143080480790E-002
 PAO|CG| beta:   0.17312696755209614     
 PAO| norm of gradient:  0.84519748220745106     
 PAO| energy improvement: -0.44668374221086538     
 PAO| step      9                 -191.018949545  0.165E-02  0.207E+00     1.498
 PAO|LS| adapt:  T F F
 PAO|LS| adapt: scan_steps:    0.0000000000000000        0.0000000000000000        0.0000000000000000     
 PAO|LS| adapt: energies:   -191.01894954515265        0.0000000000000000        0.0000000000000000     
 PAO| ======================= Iteration:        10 =============================

     Lanczos converged:  F threshold:   0.100E-02
     Est. extremal eigenvalues:    0.483E+01   0.128E+00
     Est. condition number :    0.378E+02

 Order=           3
     NS sqrt iter    1 1.00000000   0.123E+01       0.021     2702.041
     NS sqrt iter    2 1.00000000   0.636E+00       0.034     3367.035
     NS sqrt iter    3 1.00000000   0.208E+00       0.033     3390.750
     NS sqrt iter    4 1.00000000   0.280E-01       0.033     3398.727
     NS sqrt iter    5 1.00000000   0.149E-03       0.033     3393.955
     NS sqrt iter    6 1.00000000   0.640E-10       0.023     2388.621
     Symmetrizing Results
     Final NS sqrt iter    6 1.00000000   0.210E-11

     Est. extremal eigenvalues     -0.83387     2.60286  converged:  T
     TRS4 it   1 1.00000000   0.284E+02       0.007     2126.046   0.100E-11
     TRS4 it   2 1.00000000   0.235E+02       0.013     2202.895   0.100E-11
     TRS4 it   3 1.00000000   0.155E+02       0.013     2218.816   0.100E-11
     TRS4 it   4 1.00000000   0.901E+01       0.013     2186.983   0.100E-11
     TRS4 it   5 1.00000000   0.377E+01       0.013     2209.948   0.100E-11
     TRS4 it   6 1.00000000   0.972E+00       0.013     2217.096   0.100E-11
     TRS4 it   7 1.00000000   0.118E+00       0.013     2216.485   0.100E-11
     TRS4 it   8 1.00000000   0.253E-02       0.013     2211.712   0.100E-11
     TRS4 it   9 1.00000000   0.178E-05       0.013     2218.750   0.100E-11
     TRS4 it  10 1.00000000   0.361E-11       0.013     2218.380   0.100E-11
     Final TRS4 iteration   10 1.00000000   0.361E-11
     Chemical potential (mu):       0.05533
 
 PAO| energy:  -191.11662302620604      penalty:   5.0471016273350377E-004
 PAO|LS| adapt:  T T F
 PAO|LS| adapt: scan_steps:    0.0000000000000000       0.20689715088463356        0.0000000000000000     
 PAO|LS| adapt: energies:   -191.01894954515265       -191.11662302620604        0.0000000000000000     
 PAO| ======================= Iteration:        11 =============================

     Lanczos converged:  F threshold:   0.100E-02
     Est. extremal eigenvalues:    0.478E+01   0.131E+00
     Est. condition number :    0.365E+02

 Order=           3
     NS sqrt iter    1 1.00000000   0.122E+01       0.021     2718.373
     NS sqrt iter    2 1.00000000   0.628E+00       0.033     3380.501
     NS sqrt iter    3 1.00000000   0.203E+00       0.033     3385.448
     NS sqrt iter    4 1.00000000   0.261E-01       0.033     3381.381
     NS sqrt iter    5 1.00000000   0.120E-03       0.033     3395.713
     NS sqrt iter    6 1.00000000   0.328E-10       0.019     2236.296
     Symmetrizing Results
     Final NS sqrt iter    6 1.00000000   0.225E-11

     Est. extremal eigenvalues     -0.83393     2.58956  converged:  T
     TRS4 it   1 1.00000000   0.284E+02       0.007     2105.071   0.100E-11
     TRS4 it   2 1.00000000   0.235E+02       0.013     2183.397   0.100E-11
     TRS4 it   3 1.00000000   0.155E+02       0.013     2187.617   0.100E-11
     TRS4 it   4 1.00000000   0.899E+01       0.013     2232.197   0.100E-11
     TRS4 it   5 1.00000000   0.374E+01       0.013     2188.490   0.100E-11
     TRS4 it   6 1.00000000   0.958E+00       0.013     2200.848   0.100E-11
     TRS4 it   7 1.00000000   0.114E+00       0.013     2188.737   0.100E-11
     TRS4 it   8 1.00000000   0.238E-02       0.013     2201.685   0.100E-11
     TRS4 it   9 1.00000000   0.158E-05       0.013     2196.050   0.100E-11
     TRS4 it  10 1.00000000   0.281E-11       0.013     2190.848   0.100E-11
     Final TRS4 iteration   10 1.00000000   0.281E-11
     Chemical potential (mu):       0.05624
 
 PAO| energy:  -191.11977388353102      penalty:   5.1626776962090709E-004
 PAO|LS| adapt:  T T F
 PAO|LS| adapt: scan_steps:    0.0000000000000000       0.41379430176926713        0.0000000000000000     
 PAO|LS| adapt: energies:   -191.01894954515265       -191.11977388353102        0.0000000000000000     
 PAO| ======================= Iteration:        12 =============================

     Lanczos converged:  F threshold:   0.100E-02
     Est. extremal eigenvalues:    0.469E+01   0.138E+00
     Est. condition number :    0.341E+02

 Order=           3
     NS sqrt iter    1 1.00000000   0.121E+01       0.021     2720.691
     NS sqrt iter    2 1.00000000   0.613E+00       0.033     3386.447
     NS sqrt iter    3 1.00000000   0.193E+00       0.033     3387.229
     NS sqrt iter    4 1.00000000   0.226E-01       0.034     3378.032
     NS sqrt iter    5 1.00000000   0.772E-04       0.033     3392.070
     NS sqrt iter    6 1.00000000   0.828E-11       0.014     2150.068
     Symmetrizing Results
     Final NS sqrt iter    6 1.00000000   0.148E-11

     Est. extremal eigenvalues     -0.83283     2.56444  converged:  T
     TRS4 it   1 1.00000000   0.284E+02       0.007     2155.291   0.100E-11
     TRS4 it   2 1.00000000   0.233E+02       0.013     2200.114   0.100E-11
     TRS4 it   3 1.00000000   0.154E+02       0.013     2195.733   0.100E-11
     TRS4 it   4 1.00000000   0.892E+01       0.013     2198.410   0.100E-11
     TRS4 it   5 1.00000000   0.368E+01       0.013     2198.313   0.100E-11
     TRS4 it   6 1.00000000   0.924E+00       0.013     2201.588   0.100E-11
     TRS4 it   7 1.00000000   0.106E+00       0.013     2183.394   0.100E-11
     TRS4 it   8 1.00000000   0.205E-02       0.013     2185.119   0.100E-11
     TRS4 it   9 1.00000000   0.119E-05       0.013     2204.153   0.100E-11
     TRS4 it  10 1.00000000   0.163E-11       0.013     2200.489   0.100E-11
     Final TRS4 iteration   10 1.00000000   0.163E-11
     Chemical potential (mu):       0.05834
 
 PAO| energy:  -190.85953107655982      penalty:   5.7544660243882796E-004
 PAO|LS| Need extra step
 PAO|LS| adapt:  T T T
 PAO|LS| adapt: scan_steps:    0.0000000000000000       0.41379430176926713       0.82758860353853425     
 PAO|LS| adapt: energies:   -191.01894954515265       -191.11977388353102       -190.85953107655982     
 PAO|LS| adapt: suggested step_size:   0.32244501293182765     
 PAO|LS| adapt: predicted energy  -191.12857219447395     
 PAO| ======================= Iteration:        13 =============================

     Lanczos converged:  F threshold:   0.100E-02
     Est. extremal eigenvalues:    0.480E+01   0.130E+00
     Est. condition number :    0.371E+02

 Order=           3
     NS sqrt iter    1 1.00000000   0.123E+01       0.021     2721.621
     NS sqrt iter    2 1.00000000   0.632E+00       0.034     3360.848
     NS sqrt iter    3 1.00000000   0.205E+00       0.033     3384.038
     NS sqrt iter    4 1.00000000   0.269E-01       0.034     3373.851
     NS sqrt iter    5 1.00000000   0.132E-03       0.033     3383.368
     NS sqrt iter    6 1.00000000   0.441E-10       0.021     2305.134
     Symmetrizing Results
     Final NS sqrt iter    6 1.00000000   0.231E-11

     Est. extremal eigenvalues     -0.83396     2.59540  converged:  T
     TRS4 it   1 1.00000000   0.284E+02       0.007     2127.527   0.100E-11
     TRS4 it   2 1.00000000   0.235E+02       0.013     2196.888   0.100E-11
     TRS4 it   3 1.00000000   0.155E+02       0.013     2208.909   0.100E-11
     TRS4 it   4 1.00000000   0.900E+01       0.013     2201.539   0.100E-11
     TRS4 it   5 1.00000000   0.376E+01       0.013     2192.200   0.100E-11
     TRS4 it   6 1.00000000   0.964E+00       0.013     2203.989   0.100E-11
     TRS4 it   7 1.00000000   0.116E+00       0.013     2228.956   0.100E-11
     TRS4 it   8 1.00000000   0.245E-02       0.013     2183.952   0.100E-11
     TRS4 it   9 1.00000000   0.167E-05       0.013     2184.225   0.100E-11
     TRS4 it  10 1.00000000   0.320E-11       0.013     2202.493   0.100E-11
     Final TRS4 iteration   10 1.00000000   0.320E-11
     Chemical potential (mu):       0.05582
 
 PAO| energy:  -191.12977143404996      penalty:   5.0988891650633286E-004
 PAO|CG| trace_G_new   0.27583176828875694     
 PAO|CG| trace_G_prev   0.71435878392981456     
 PAO|CG| trace_G_mix   -1.2104830539577463E-002
 PAO|CG| trace_D   0.83068325063030479     
 PAO|CG| trace_D_Gnew   1.1720901783339031E-002
 PAO|CG| beta:   0.40307000530509896     
 PAO| norm of gradient:  0.52519688526185770     
 PAO| energy improvement: -0.11082188889730560     
 PAO| step     13                 -191.129771434  0.103E-02  0.322E+00     1.924
 PAO|LS| adapt:  T F F
 PAO|LS| adapt: scan_steps:    0.0000000000000000        0.0000000000000000        0.0000000000000000     
 PAO|LS| adapt: energies:   -191.12977143404996        0.0000000000000000        0.0000000000000000     
 PAO| ======================= Iteration:        14 =============================

     Lanczos converged:  F threshold:   0.100E-02
     Est. extremal eigenvalues:    0.474E+01   0.132E+00
     Est. condition number :    0.358E+02

 Order=           3
     NS sqrt iter    1 1.00000000   0.122E+01       0.021     2678.866
     NS sqrt iter    2 1.00000000   0.622E+00       0.033     3414.039
     NS sqrt iter    3 1.00000000   0.199E+00       0.034     3367.778
     NS sqrt iter    4 1.00000000   0.249E-01       0.034     3370.187
     NS sqrt iter    5 1.00000000   0.106E-03       0.033     3398.850
     NS sqrt iter    6 1.00000000   0.231E-10       0.018     2182.199
     Symmetrizing Results
     Final NS sqrt iter    6 1.00000000   0.213E-11

     Est. extremal eigenvalues     -0.83426     2.58794  converged:  T
     TRS4 it   1 1.00000000   0.285E+02       0.007     2143.690   0.100E-11
     TRS4 it   2 1.00000000   0.234E+02       0.013     2199.924   0.100E-11
     TRS4 it   3 1.00000000   0.154E+02       0.013     2188.261   0.100E-11
     TRS4 it   4 1.00000000   0.894E+01       0.013     2213.637   0.100E-11
     TRS4 it   5 1.00000000   0.370E+01       0.013     2197.429   0.100E-11
     TRS4 it   6 1.00000000   0.935E+00       0.013     2222.512   0.100E-11
     TRS4 it   7 1.00000000   0.109E+00       0.013     2193.178   0.100E-11
     TRS4 it   8 1.00000000   0.217E-02       0.013     2209.445   0.100E-11
     TRS4 it   9 1.00000000   0.131E-05       0.013     2217.234   0.100E-11
     TRS4 it  10 1.00000000   0.198E-11       0.013     2186.800   0.100E-11
     Final TRS4 iteration   10 1.00000000   0.198E-11
     Chemical potential (mu):       0.05769
 
 PAO| energy:  -191.18139539072433      penalty:   5.1092768819368162E-004
 PAO|LS| adapt:  T T F
 PAO|LS| adapt: scan_steps:    0.0000000000000000       0.32244501293182765        0.0000000000000000     
 PAO|LS| adapt: energies:   -191.12977143404996       -191.18139539072433        0.0000000000000000     
 PAO| ======================= Iteration:        15 =============================

     Lanczos converged:  F threshold:   0.100E-02
     Est. extremal eigenvalues:    0.468E+01   0.135E+00
     Est. condition number :    0.345E+02

 Order=           3
     NS sqrt iter    1 1.00000000   0.120E+01       0.021     2728.384
     NS sqrt iter    2 1.00000000   0.612E+00       0.033     3396.324
     NS sqrt iter    3 1.00000000   0.194E+00       0.034     3366.133
     NS sqrt iter    4 1.00000000   0.231E-01       0.034     3380.480
     NS sqrt iter    5 1.00000000   0.855E-04       0.034     3363.354
     NS sqrt iter    6 1.00000000   0.121E-10       0.015     2160.876
     Symmetrizing Results
     Final NS sqrt iter    6 1.00000000   0.176E-11

     Est. extremal eigenvalues     -0.83424     2.58049  converged:  T
     TRS4 it   1 1.00000000   0.285E+02       0.007     2153.875   0.100E-11
     TRS4 it   2 1.00000000   0.234E+02       0.013     2207.762   0.100E-11
     TRS4 it   3 1.00000000   0.154E+02       0.013     2183.593   0.100E-11
     TRS4 it   4 1.00000000   0.888E+01       0.013     2206.251   0.100E-11
     TRS4 it   5 1.00000000   0.364E+01       0.013     2205.415   0.100E-11
     TRS4 it   6 1.00000000   0.907E+00       0.013     2201.885   0.100E-11
     TRS4 it   7 1.00000000   0.102E+00       0.013     2191.179   0.100E-11
     TRS4 it   8 1.00000000   0.192E-02       0.013     2204.878   0.100E-11
     TRS4 it   9 1.00000000   0.103E-05       0.013     2194.932   0.100E-11
     TRS4 it  10 1.00000000   0.121E-11       0.013     2196.093   0.100E-11
     Final TRS4 iteration   10 1.00000000   0.121E-11
     Chemical potential (mu):       0.05944
 
 PAO| energy:  -191.16244565243119      penalty:   5.2643195484436541E-004
 PAO|LS| adapt:  T T T
 PAO|LS| adapt: scan_steps:    0.0000000000000000       0.32244501293182765       0.64489002586365529     
 PAO|LS| adapt: energies:   -191.12977143404996       -191.18139539072433       -191.16244565243119     
 PAO|LS| adapt: suggested step_size:   0.39708782973008455     
 PAO|LS| adapt: predicted energy  -191.18328632995338     
 PAO| ======================= Iteration:        16 =============================

     Lanczos converged:  F threshold:   0.100E-02
     Est. extremal eigenvalues:    0.472E+01   0.133E+00
     Est. condition number :    0.355E+02

 Order=           3
     NS sqrt iter    1 1.00000000   0.121E+01       0.021     2715.997
     NS sqrt iter    2 1.00000000   0.620E+00       0.033     3392.229
     NS sqrt iter    3 1.00000000   0.198E+00       0.033     3393.388
     NS sqrt iter    4 1.00000000   0.245E-01       0.033     3389.793
     NS sqrt iter    5 1.00000000   0.101E-03       0.033     3395.764
     NS sqrt iter    6 1.00000000   0.199E-10       0.017     2184.774
     Symmetrizing Results
     Final NS sqrt iter    6 1.00000000   0.203E-11

     Est. extremal eigenvalues     -0.83428     2.58620  converged:  T
     TRS4 it   1 1.00000000   0.285E+02       0.007     2138.468   0.100E-11
     TRS4 it   2 1.00000000   0.234E+02       0.013     2196.318   0.100E-11
     TRS4 it   3 1.00000000   0.154E+02       0.013     2235.989   0.100E-11
     TRS4 it   4 1.00000000   0.893E+01       0.013     2207.142   0.100E-11
     TRS4 it   5 1.00000000   0.369E+01       0.013     2190.934   0.100E-11
     TRS4 it   6 1.00000000   0.928E+00       0.013     2187.442   0.100E-11
     TRS4 it   7 1.00000000   0.107E+00       0.013     2216.198   0.100E-11
     TRS4 it   8 1.00000000   0.211E-02       0.013     2186.254   0.100E-11
     TRS4 it   9 1.00000000   0.124E-05       0.013     2200.872   0.100E-11
     TRS4 it  10 1.00000000   0.175E-11       0.013     2198.466   0.100E-11
     Final TRS4 iteration   10 1.00000000   0.175E-11
     Chemical potential (mu):       0.05810
 
 PAO| energy:  -191.18322987500855      penalty:   5.1318116767098455E-004
 PAO|CG| trace_G_new   0.10599966052160131     
 PAO|CG| trace_G_prev   0.27583176828875694     
 PAO|CG| trace_G_mix    4.4683006276521609E-003
 PAO|CG| trace_D   0.40134039122428411     
 PAO|CG| trace_D_Gnew   6.7312419928740243E-004
 PAO|CG| beta:   0.36809161078088781     
 PAO| norm of gradient:  0.32557589057177022     
 PAO| energy improvement:  -5.3458440958593201E-002
 PAO| step     16                 -191.183229875  0.636E-03  0.397E+00     1.475
 PAO|LS| adapt:  T F F
 PAO|LS| adapt: scan_steps:    0.0000000000000000        0.0000000000000000        0.0000000000000000     
 PAO|LS| adapt: energies:   -191.18322987500855        0.0000000000000000        0.0000000000000000     
 PAO| ======================= Iteration:        17 =============================

     Lanczos converged:  F threshold:   0.100E-02
     Est. extremal eigenvalues:    0.469E+01   0.134E+00
     Est. condition number :    0.350E+02

 Order=           3
     NS sqrt iter    1 1.00000000   0.120E+01       0.021     2722.053
     NS sqrt iter    2 1.00000000   0.615E+00       0.034     3365.086
     NS sqrt iter    3 1.00000000   0.195E+00       0.034     3371.129
     NS sqrt iter    4 1.00000000   0.237E-01       0.033     3388.262
     NS sqrt iter    5 1.00000000   0.920E-04       0.034     3369.757
     NS sqrt iter    6 1.00000000   0.152E-10       0.016     2171.137
     Symmetrizing Results
     Final NS sqrt iter    6 1.00000000   0.188E-11

     Est. extremal eigenvalues     -0.83432     2.58305  converged:  T
     TRS4 it   1 1.00000000   0.285E+02       0.007     2121.216   0.100E-11
     TRS4 it   2 1.00000000   0.234E+02       0.013     2182.212   0.100E-11
     TRS4 it   3 1.00000000   0.154E+02       0.013     2195.525   0.100E-11
     TRS4 it   4 1.00000000   0.888E+01       0.013     2207.416   0.100E-11
     TRS4 it   5 1.00000000   0.364E+01       0.013     2203.114   0.100E-11
     TRS4 it   6 1.00000000   0.908E+00       0.013     2193.280   0.100E-11
     TRS4 it   7 1.00000000   0.103E+00       0.013     2199.247   0.100E-11
     TRS4 it   8 1.00000000   0.194E-02       0.013     2192.307   0.100E-11
     TRS4 it   9 1.00000000   0.105E-05       0.013     2198.279   0.100E-11
     TRS4 it  10 1.00000000   0.128E-11       0.013     2190.516   0.100E-11
     Final TRS4 iteration   10 1.00000000   0.128E-11
     Chemical potential (mu):       0.05925
 
 PAO| energy:  -191.18818073309166      penalty:   5.0556263875830632E-004
 PAO|LS| adapt:  T T F
 PAO|LS| adapt: scan_steps:    0.0000000000000000       0.39708782973008455        0.0000000000000000     
 PAO|LS| adapt: energies:   -191.18322987500855       -191.18818073309166        0.0000000000000000     
 PAO| ======================= Iteration:        18 =============================

     Lanczos converged:  F threshold:   0.100E-02
     Est. extremal eigenvalues:    0.465E+01   0.135E+00
     Est. condition number :    0.345E+02

 Order=           3
     NS sqrt iter    1 1.00000000   0.120E+01       0.021     2708.906
     NS sqrt iter    2 1.00000000   0.610E+00       0.034     3348.502
     NS sqrt iter    3 1.00000000   0.193E+00       0.034     3371.415
     NS sqrt iter    4 1.00000000   0.229E-01       0.034     3361.215
     NS sqrt iter    5 1.00000000   0.842E-04       0.034     3375.272
     NS sqrt iter    6 1.00000000   0.118E-10       0.015     2132.786
     Symmetrizing Results
     Final NS sqrt iter    6 1.00000000   0.172E-11

     Est. extremal eigenvalues     -0.83413     2.57993  converged:  T
     TRS4 it   1 1.00000000   0.285E+02       0.007     2126.656   0.100E-11
     TRS4 it   2 1.00000000   0.234E+02       0.013     2184.561   0.100E-11
     TRS4 it   3 1.00000000   0.154E+02       0.013     2210.710   0.100E-11
     TRS4 it   4 1.00000000   0.883E+01       0.013     2195.599   0.100E-11
     TRS4 it   5 1.00000000   0.360E+01       0.013     2178.360   0.100E-11
     TRS4 it   6 1.00000000   0.889E+00       0.013     2217.077   0.100E-11
     TRS4 it   7 1.00000000   0.990E-01       0.013     2187.432   0.100E-11
     TRS4 it   8 1.00000000   0.179E-02       0.013     2211.767   0.100E-11
     TRS4 it   9 1.00000000   0.895E-06       0.013     2189.064   0.100E-11
     TRS4 it  10 1.00000000   0.918E-12       0.013     2203.127   0.100E-11
     Final TRS4 iteration   10 1.00000000   0.918E-12
     Chemical potential (mu):       0.06043
 
 PAO| energy:  -191.11892749597482      penalty:   5.0581152375367422E-004
 PAO|LS| adapt:  T T T
 PAO|LS| adapt: scan_steps:    0.0000000000000000       0.39708782973008455       0.79417565946016910     
 PAO|LS| adapt: energies:   -191.18322987500855       -191.18818073309166       -191.11892749597482     
 PAO|LS| adapt: suggested step_size:   0.22503740536883340     
 PAO|LS| adapt: predicted energy  -191.19514597526975     
 PAO| ======================= Iteration:        19 =============================

     Lanczos converged:  F threshold:   0.100E-02
     Est. extremal eigenvalues:    0.470E+01   0.134E+00
     Est. condition number :    0.352E+02

 Order=           3
     NS sqrt iter    1 1.00000000   0.121E+01       0.021     2699.888
     NS sqrt iter    2 1.00000000   0.617E+00       0.033     3387.097
     NS sqrt iter    3 1.00000000   0.196E+00       0.034     3345.861
     NS sqrt iter    4 1.00000000   0.240E-01       0.033     3397.309
     NS sqrt iter    5 1.00000000   0.957E-04       0.034     3375.467
     NS sqrt iter    6 1.00000000   0.171E-10       0.016     2175.230
     Symmetrizing Results
     Final NS sqrt iter    6 1.00000000   0.198E-11

     Est. extremal eigenvalues     -0.83433     2.58442  converged:  T
     TRS4 it   1 1.00000000   0.285E+02       0.007     2146.118   0.100E-11
     TRS4 it   2 1.00000000   0.234E+02       0.013     2181.272   0.100E-11
     TRS4 it   3 1.00000000   0.154E+02       0.013     2211.726   0.100E-11
     TRS4 it   4 1.00000000   0.890E+01       0.013     2202.950   0.100E-11
     TRS4 it   5 1.00000000   0.366E+01       0.013     2189.487   0.100E-11
     TRS4 it   6 1.00000000   0.917E+00       0.013     2192.844   0.100E-11
     TRS4 it   7 1.00000000   0.105E+00       0.013     2201.318   0.100E-11
     TRS4 it   8 1.00000000   0.201E-02       0.013     2200.807   0.100E-11
     TRS4 it   9 1.00000000   0.113E-05       0.013     2210.566   0.100E-11
     TRS4 it  10 1.00000000   0.148E-11       0.013     2195.235   0.100E-11
     Final TRS4 iteration   10 1.00000000   0.148E-11
     Chemical potential (mu):       0.05875
 
 PAO| energy:  -191.19513691335982      penalty:   5.0791317310072378E-004
 PAO|CG| trace_G_new    2.2116520609905561E-002
 PAO|CG| trace_G_prev   0.10599966052160131     
 PAO|CG| trace_G_mix   -4.3148882857463029E-004
 PAO|CG| trace_D   0.15988230287996794     
 PAO|CG| trace_D_Gnew  -3.5077358633104174E-005
 PAO|CG| beta:   0.21271775142982846     
 PAO| norm of gradient:  0.14871624191696603     
 PAO| energy improvement:  -1.1907038351267829E-002
 PAO| step     19                 -191.195136913  0.290E-03  0.225E+00     1.485
 PAO|LS| adapt:  T F F
 PAO|LS| adapt: scan_steps:    0.0000000000000000        0.0000000000000000        0.0000000000000000     
 PAO|LS| adapt: energies:   -191.19513691335982        0.0000000000000000        0.0000000000000000     
 PAO| ======================= Iteration:        20 =============================

     Lanczos converged:  F threshold:   0.100E-02
     Est. extremal eigenvalues:    0.470E+01   0.134E+00
     Est. condition number :    0.352E+02

 Order=           3
     NS sqrt iter    1 1.00000000   0.121E+01       0.021     2698.408
     NS sqrt iter    2 1.00000000   0.616E+00       0.033     3400.395
     NS sqrt iter    3 1.00000000   0.196E+00       0.034     3369.770
     NS sqrt iter    4 1.00000000   0.240E-01       0.033     3381.796
     NS sqrt iter    5 1.00000000   0.955E-04       0.033     3383.120
     NS sqrt iter    6 1.00000000   0.169E-10       0.016     2165.825
     Symmetrizing Results
     Final NS sqrt iter    6 1.00000000   0.197E-11

     Est. extremal eigenvalues     -0.83433     2.58291  converged:  T
     TRS4 it   1 1.00000000   0.285E+02       0.007     2119.166   0.100E-11
     TRS4 it   2 1.00000000   0.234E+02       0.013     2219.868   0.100E-11
     TRS4 it   3 1.00000000   0.154E+02       0.013     2202.309   0.100E-11
     TRS4 it   4 1.00000000   0.889E+01       0.013     2203.535   0.100E-11
     TRS4 it   5 1.00000000   0.365E+01       0.013     2187.926   0.100E-11
     TRS4 it   6 1.00000000   0.913E+00       0.013     2199.195   0.100E-11
     TRS4 it   7 1.00000000   0.104E+00       0.013     2201.753   0.100E-11
     TRS4 it   8 1.00000000   0.198E-02       0.013     2175.131   0.100E-11
     TRS4 it   9 1.00000000   0.109E-05       0.013     2195.772   0.100E-11
     TRS4 it  10 1.00000000   0.135E-11       0.013     2211.112   0.100E-11
     Final TRS4 iteration   10 1.00000000   0.135E-11
     Chemical potential (mu):       0.05896
 
 PAO| energy:  -191.19915312695034      penalty:   4.9795169915464038E-004
 PAO|LS| adapt:  T T F
 PAO|LS| adapt: scan_steps:    0.0000000000000000       0.22503740536883340        0.0000000000000000     
 PAO|LS| adapt: energies:   -191.19513691335982       -191.19915312695034        0.0000000000000000     
 PAO| ======================= Iteration:        21 =============================

     Lanczos converged:  F threshold:   0.100E-02
     Est. extremal eigenvalues:    0.469E+01   0.134E+00
     Est. condition number :    0.351E+02

 Order=           3
     NS sqrt iter    1 1.00000000   0.121E+01       0.021     2717.627
     NS sqrt iter    2 1.00000000   0.616E+00       0.033     3401.618
     NS sqrt iter    3 1.00000000   0.196E+00       0.034     3371.778
     NS sqrt iter    4 1.00000000   0.240E-01       0.034     3373.029
     NS sqrt iter    5 1.00000000   0.954E-04       0.033     3387.929
     NS sqrt iter    6 1.00000000   0.168E-10       0.016     2155.845
     Symmetrizing Results
     Final NS sqrt iter    6 1.00000000   0.195E-11

     Est. extremal eigenvalues     -0.83433     2.58139  converged:  T
     TRS4 it   1 1.00000000   0.285E+02       0.007     2120.426   0.100E-11
     TRS4 it   2 1.00000000   0.234E+02       0.013     2188.781   0.100E-11
     TRS4 it   3 1.00000000   0.154E+02       0.013     2200.157   0.100E-11
     TRS4 it   4 1.00000000   0.887E+01       0.013     2204.684   0.100E-11
     TRS4 it   5 1.00000000   0.364E+01       0.013     2190.521   0.100E-11
     TRS4 it   6 1.00000000   0.908E+00       0.013     2184.480   0.100E-11
     TRS4 it   7 1.00000000   0.103E+00       0.013     2193.829   0.100E-11
     TRS4 it   8 1.00000000   0.194E-02       0.013     2192.954   0.100E-11
     TRS4 it   9 1.00000000   0.106E-05       0.013     2182.097   0.100E-11
     TRS4 it  10 1.00000000   0.129E-11       0.013     2197.181   0.100E-11
     Final TRS4 iteration   10 1.00000000   0.129E-11
     Chemical potential (mu):       0.05917
 
 PAO| energy:  -191.20122968456212      penalty:   4.8845667152827121E-004
 PAO|LS| adapt:  T T F
 PAO|LS| adapt: scan_steps:    0.0000000000000000       0.45007481073766681        0.0000000000000000     
 PAO|LS| adapt: energies:   -191.19513691335982       -191.20122968456212        0.0000000000000000     
 PAO| ======================= Iteration:        22 =============================

     Lanczos converged:  F threshold:   0.100E-02
     Est. extremal eigenvalues:    0.468E+01   0.134E+00
     Est. condition number :    0.351E+02

 Order=           3
     NS sqrt iter    1 1.00000000   0.120E+01       0.021     2701.482
     NS sqrt iter    2 1.00000000   0.615E+00       0.034     3366.650
     NS sqrt iter    3 1.00000000   0.196E+00       0.033     3397.534
     NS sqrt iter    4 1.00000000   0.240E-01       0.034     3376.276
     NS sqrt iter    5 1.00000000   0.951E-04       0.033     3394.165
     NS sqrt iter    6 1.00000000   0.167E-10       0.016     2191.649
     Symmetrizing Results
     Final NS sqrt iter    6 1.00000000   0.194E-11

     Est. extremal eigenvalues     -0.83432     2.57829  converged:  T
     TRS4 it   1 1.00000000   0.285E+02       0.007     2130.021   0.100E-11
     TRS4 it   2 1.00000000   0.234E+02       0.013     2187.432   0.100E-11
     TRS4 it   3 1.00000000   0.154E+02       0.013     2200.099   0.100E-11
     TRS4 it   4 1.00000000   0.885E+01       0.013     2214.520   0.100E-11
     TRS4 it   5 1.00000000   0.362E+01       0.013     2199.577   0.100E-11
     TRS4 it   6 1.00000000   0.899E+00       0.013     2198.826   0.100E-11
     TRS4 it   7 1.00000000   0.101E+00       0.013     2204.947   0.100E-11
     TRS4 it   8 1.00000000   0.188E-02       0.013     2204.933   0.100E-11
     TRS4 it   9 1.00000000   0.990E-06       0.013     2207.582   0.100E-11
     TRS4 it  10 1.00000000   0.112E-11       0.013     2206.499   0.100E-11
     Final TRS4 iteration   10 1.00000000   0.112E-11
     Chemical potential (mu):       0.05960
 
 PAO| energy:  -191.19947521488794      penalty:   4.7083559373082103E-004
 PAO|LS| Need extra step
 PAO|LS| adapt:  T T T
 PAO|LS| adapt: scan_steps:    0.0000000000000000       0.45007481073766681       0.90014962147533362     
 PAO|LS| adapt: energies:   -191.19513691335982       -191.20122968456212       -191.19947521488794     
 PAO|LS| adapt: suggested step_size:   0.57448543288660192     
 PAO|LS| adapt: predicted energy  -191.20152948516156     
 PAO| ======================= Iteration:        23 =============================

     Lanczos converged:  F threshold:   0.100E-02
     Est. extremal eigenvalues:    0.469E+01   0.134E+00
     Est. condition number :    0.351E+02

 Order=           3
     NS sqrt iter    1 1.00000000   0.120E+01       0.021     2717.853
     NS sqrt iter    2 1.00000000   0.616E+00       0.033     3404.807
     NS sqrt iter    3 1.00000000   0.196E+00       0.034     3375.488
     NS sqrt iter    4 1.00000000   0.240E-01       0.034     3372.228
     NS sqrt iter    5 1.00000000   0.953E-04       0.033     3387.625
     NS sqrt iter    6 1.00000000   0.168E-10       0.016     2157.698
     Symmetrizing Results
     Final NS sqrt iter    6 1.00000000   0.194E-11

     Est. extremal eigenvalues     -0.83433     2.58054  converged:  T
     TRS4 it   1 1.00000000   0.285E+02       0.007     2120.167   0.100E-11
     TRS4 it   2 1.00000000   0.234E+02       0.013     2206.841   0.100E-11
     TRS4 it   3 1.00000000   0.154E+02       0.013     2196.043   0.100E-11
     TRS4 it   4 1.00000000   0.887E+01       0.013     2186.474   0.100E-11
     TRS4 it   5 1.00000000   0.364E+01       0.013     2203.905   0.100E-11
     TRS4 it   6 1.00000000   0.906E+00       0.013     2208.845   0.100E-11
     TRS4 it   7 1.00000000   0.103E+00       0.013     2180.500   0.100E-11
     TRS4 it   8 1.00000000   0.192E-02       0.013     2191.240   0.100E-11
     TRS4 it   9 1.00000000   0.104E-05       0.013     2181.475   0.100E-11
     TRS4 it  10 1.00000000   0.124E-11       0.013     2192.437   0.100E-11
     Final TRS4 iteration   10 1.00000000   0.124E-11
     Chemical potential (mu):       0.05929
 
 PAO| energy:  -191.20153705222594      penalty:   4.8340461903997813E-004
 PAO|CG| trace_G_new    1.7316163743167346E-002
 PAO|CG| trace_G_prev    2.2116520609905561E-002
 PAO|CG| trace_G_mix    1.2381664211553404E-004
 PAO|CG| trace_D    2.9365932788991078E-002
 PAO|CG| trace_D_Gnew  -5.0831794431678849E-005
 PAO|CG| beta:   0.77735315623523960     
 PAO| norm of gradient:  0.13159089536577881     
 PAO| energy improvement:  -6.4001388661267811E-003
 PAO| step     23                 -191.201537052  0.257E-03  0.574E+00     1.912
 PAO|LS| adapt:  T F F
 PAO|LS| adapt: scan_steps:    0.0000000000000000        0.0000000000000000        0.0000000000000000     
 PAO|LS| adapt: energies:   -191.20153705222594        0.0000000000000000        0.0000000000000000     
 PAO| ======================= Iteration:        24 =============================

     Lanczos converged:  F threshold:   0.100E-02
     Est. extremal eigenvalues:    0.468E+01   0.133E+00
     Est. condition number :    0.351E+02

 Order=           3
     NS sqrt iter    1 1.00000000   0.120E+01       0.021     2698.640
     NS sqrt iter    2 1.00000000   0.615E+00       0.034     3379.118
     NS sqrt iter    3 1.00000000   0.196E+00       0.033     3383.299
     NS sqrt iter    4 1.00000000   0.240E-01       0.034     3360.179
     NS sqrt iter    5 1.00000000   0.956E-04       0.033     3387.546
     NS sqrt iter    6 1.00000000   0.169E-10       0.016     2158.086
     Symmetrizing Results
     Final NS sqrt iter    6 1.00000000   0.195E-11

     Est. extremal eigenvalues     -0.83433     2.57673  converged:  T
     TRS4 it   1 1.00000000   0.285E+02       0.007     2146.332   0.100E-11
     TRS4 it   2 1.00000000   0.234E+02       0.013     2201.175   0.100E-11
     TRS4 it   3 1.00000000   0.154E+02       0.013     2219.508   0.100E-11
     TRS4 it   4 1.00000000   0.884E+01       0.013     2194.601   0.100E-11
     TRS4 it   5 1.00000000   0.361E+01       0.013     2215.845   0.100E-11
     TRS4 it   6 1.00000000   0.896E+00       0.013     2217.589   0.100E-11
     TRS4 it   7 1.00000000   0.101E+00       0.013     2190.380   0.100E-11
     TRS4 it   8 1.00000000   0.185E-02       0.013     2209.627   0.100E-11
     TRS4 it   9 1.00000000   0.965E-06       0.013     2222.509   0.100E-11
     TRS4 it  10 1.00000000   0.107E-11       0.013     2183.007   0.100E-11
     Final TRS4 iteration   10 1.00000000   0.107E-11
     Chemical potential (mu):       0.05976
 
 PAO| energy:  -191.20491941148143      penalty:   4.4510388695106053E-004
 PAO|LS| adapt:  T T F
 PAO|LS| adapt: scan_steps:    0.0000000000000000       0.57448543288660192        0.0000000000000000     
 PAO|LS| adapt: energies:   -191.20153705222594       -191.20491941148143        0.0000000000000000     
 PAO| ======================= Iteration:        25 =============================

     Lanczos converged:  F threshold:   0.100E-02
     Est. extremal eigenvalues:    0.467E+01   0.133E+00
     Est. condition number :    0.351E+02

 Order=           3
     NS sqrt iter    1 1.00000000   0.120E+01       0.021     2708.309
     NS sqrt iter    2 1.00000000   0.614E+00       0.033     3396.346
     NS sqrt iter    3 1.00000000   0.196E+00       0.034     3373.098
     NS sqrt iter    4 1.00000000   0.240E-01       0.033     3394.216
     NS sqrt iter    5 1.00000000   0.961E-04       0.033     3402.276
     NS sqrt iter    6 1.00000000   0.172E-10       0.016     2162.273
     Symmetrizing Results
     Final NS sqrt iter    6 1.00000000   0.197E-11

     Est. extremal eigenvalues     -0.83432     2.57287  converged:  T
     TRS4 it   1 1.00000000   0.285E+02       0.007     2137.093   0.100E-11
     TRS4 it   2 1.00000000   0.233E+02       0.013     2182.120   0.100E-11
     TRS4 it   3 1.00000000   0.153E+02       0.013     2196.898   0.100E-11
     TRS4 it   4 1.00000000   0.881E+01       0.013     2198.271   0.100E-11
     TRS4 it   5 1.00000000   0.359E+01       0.013     2226.189   0.100E-11
     TRS4 it   6 1.00000000   0.887E+00       0.013     2214.009   0.100E-11
     TRS4 it   7 1.00000000   0.988E-01       0.013     2203.211   0.100E-11
     TRS4 it   8 1.00000000   0.179E-02       0.013     2201.437   0.100E-11
     TRS4 it   9 1.00000000   0.898E-06       0.013     2184.002   0.100E-11
     TRS4 it  10 1.00000000   0.913E-12       0.013     2205.220   0.100E-11
     Final TRS4 iteration   10 1.00000000   0.913E-12
     Chemical potential (mu):       0.06023
 
 PAO| energy:  -191.19489024178549      penalty:   4.1118004029895241E-004
 PAO|LS| adapt:  T T T
 PAO|LS| adapt: scan_steps:    0.0000000000000000       0.57448543288660192        1.1489708657732038     
 PAO|LS| adapt: energies:   -191.20153705222594       -191.20491941148143       -191.19489024178549     
 PAO|LS| adapt: suggested step_size:   0.43212672840807559     
 PAO|LS| adapt: predicted energy  -191.20533118490033     
 PAO| ======================= Iteration:        26 =============================

     Lanczos converged:  F threshold:   0.100E-02
     Est. extremal eigenvalues:    0.468E+01   0.133E+00
     Est. condition number :    0.351E+02

 Order=           3
     NS sqrt iter    1 1.00000000   0.120E+01       0.021     2710.592
     NS sqrt iter    2 1.00000000   0.615E+00       0.034     3358.294
     NS sqrt iter    3 1.00000000   0.196E+00       0.033     3381.821
     NS sqrt iter    4 1.00000000   0.240E-01       0.034     3347.971
     NS sqrt iter    5 1.00000000   0.955E-04       0.033     3413.352
     NS sqrt iter    6 1.00000000   0.169E-10       0.016     2154.408
     Symmetrizing Results
     Final NS sqrt iter    6 1.00000000   0.195E-11

     Est. extremal eigenvalues     -0.83433     2.57769  converged:  T
     TRS4 it   1 1.00000000   0.285E+02       0.007     2146.047   0.100E-11
     TRS4 it   2 1.00000000   0.234E+02       0.013     2198.408   0.100E-11
     TRS4 it   3 1.00000000   0.154E+02       0.013     2185.406   0.100E-11
     TRS4 it   4 1.00000000   0.885E+01       0.013     2177.839   0.100E-11
     TRS4 it   5 1.00000000   0.362E+01       0.013     2178.986   0.100E-11
     TRS4 it   6 1.00000000   0.899E+00       0.013     2198.736   0.100E-11
     TRS4 it   7 1.00000000   0.101E+00       0.013     2191.491   0.100E-11
     TRS4 it   8 1.00000000   0.187E-02       0.013     2203.639   0.100E-11
     TRS4 it   9 1.00000000   0.983E-06       0.013     2180.218   0.100E-11
     TRS4 it  10 1.00000000   0.111E-11       0.013     2179.301   0.100E-11
     Final TRS4 iteration   10 1.00000000   0.111E-11
     Chemical potential (mu):       0.05965
 
 PAO| energy:  -191.20531739294270      penalty:   4.5417874941138263E-004
 PAO|CG| trace_G_new    1.4139516914668627E-002
 PAO|CG| trace_G_prev    1.7316163743167346E-002
 PAO|CG| trace_G_mix    2.6326585740007785E-004
 PAO|CG| trace_D    3.5140377318673199E-002
 PAO|CG| trace_D_Gnew  -8.3924750272726411E-005
 PAO|CG| beta:   0.80134672223481795     
 PAO| norm of gradient:  0.11890970067521248     
 PAO| energy improvement:  -3.7803407167587011E-003
 PAO| step     26                 -191.205317393  0.232E-03  0.432E+00     1.505
 PAO|LS| adapt:  T F F
 PAO|LS| adapt: scan_steps:    0.0000000000000000        0.0000000000000000        0.0000000000000000     
 PAO|LS| adapt: energies:   -191.20531739294270        0.0000000000000000        0.0000000000000000     
 PAO| ======================= Iteration:        27 =============================

     Lanczos converged:  F threshold:   0.100E-02
     Est. extremal eigenvalues:    0.467E+01   0.133E+00
     Est. condition number :    0.351E+02

 Order=           3
     NS sqrt iter    1 1.00000000   0.120E+01       0.021     2719.694
     NS sqrt iter    2 1.00000000   0.614E+00       0.034     3378.169
     NS sqrt iter    3 1.00000000   0.196E+00       0.034     3376.451
     NS sqrt iter    4 1.00000000   0.239E-01       0.033     3390.270
     NS sqrt iter    5 1.00000000   0.958E-04       0.033     3393.552
     NS sqrt iter    6 1.00000000   0.171E-10       0.017     2146.413
     Symmetrizing Results
     Final NS sqrt iter    6 1.00000000   0.195E-11

     Est. extremal eigenvalues     -0.83434     2.57548  converged:  T
     TRS4 it   1 1.00000000   0.285E+02       0.007     2155.765   0.100E-11
     TRS4 it   2 1.00000000   0.233E+02       0.013     2188.564   0.100E-11
     TRS4 it   3 1.00000000   0.154E+02       0.013     2211.372   0.100E-11
     TRS4 it   4 1.00000000   0.883E+01       0.013     2209.312   0.100E-11
     TRS4 it   5 1.00000000   0.360E+01       0.013     2192.604   0.100E-11
     TRS4 it   6 1.00000000   0.890E+00       0.013     2222.019   0.100E-11
     TRS4 it   7 1.00000000   0.994E-01       0.013     2205.451   0.100E-11
     TRS4 it   8 1.00000000   0.181E-02       0.013     2204.697   0.100E-11
     TRS4 it   9 1.00000000   0.920E-06       0.013     2217.295   0.100E-11
     TRS4 it  10 1.00000000   0.991E-12       0.013     2182.502   0.100E-11
     Final TRS4 iteration   10 1.00000000   0.991E-12
     Chemical potential (mu):       0.06009
 
 PAO| energy:  -191.20815230202234      penalty:   4.1749868837237135E-004
 PAO|LS| adapt:  T T F
 PAO|LS| adapt: scan_steps:    0.0000000000000000       0.43212672840807559        0.0000000000000000     
 PAO|LS| adapt: energies:   -191.20531739294270       -191.20815230202234        0.0000000000000000     
 PAO| ======================= Iteration:        28 =============================

     Lanczos converged:  F threshold:   0.100E-02
     Est. extremal eigenvalues:    0.466E+01   0.132E+00
     Est. condition number :    0.352E+02

 Order=           3
     NS sqrt iter    1 1.00000000   0.120E+01       0.021     2703.816
     NS sqrt iter    2 1.00000000   0.612E+00       0.034     3377.948
     NS sqrt iter    3 1.00000000   0.195E+00       0.033     3399.099
     NS sqrt iter    4 1.00000000   0.239E-01       0.034     3369.317
     NS sqrt iter    5 1.00000000   0.962E-04       0.033     3382.929
     NS sqrt iter    6 1.00000000   0.175E-10       0.017     2174.765
     Symmetrizing Results
     Final NS sqrt iter    6 1.00000000   0.199E-11

     Est. extremal eigenvalues     -0.83434     2.57335  converged:  T
     TRS4 it   1 1.00000000   0.285E+02       0.007     2129.246   0.100E-11
     TRS4 it   2 1.00000000   0.233E+02       0.013     2198.639   0.100E-11
     TRS4 it   3 1.00000000   0.153E+02       0.013     2217.490   0.100E-11
     TRS4 it   4 1.00000000   0.880E+01       0.013     2200.660   0.100E-11
     TRS4 it   5 1.00000000   0.358E+01       0.013     2210.515   0.100E-11
     TRS4 it   6 1.00000000   0.882E+00       0.013     2180.268   0.100E-11
     TRS4 it   7 1.00000000   0.977E-01       0.013     2222.647   0.100E-11
     TRS4 it   8 1.00000000   0.175E-02       0.013     2194.604   0.100E-11
     TRS4 it   9 1.00000000   0.863E-06       0.013     2206.470   0.100E-11
     TRS4 it  10 1.00000000   0.844E-12       0.013     2199.558   0.100E-11
     Final TRS4 iteration   10 1.00000000   0.844E-12
     Chemical potential (mu):       0.06054
 
 PAO| energy:  -191.20431575721184      penalty:   3.8417476559751782E-004
 PAO|LS| adapt:  T T T
 PAO|LS| adapt: scan_steps:    0.0000000000000000       0.43212672840807559       0.86425345681615118     
 PAO|LS| adapt: energies:   -191.20531739294270       -191.20815230202234       -191.20431575721184     
 PAO|LS| adapt: suggested step_size:   0.39968750462264258     
 PAO|LS| adapt: predicted energy  -191.20817109991395     
 PAO| ======================= Iteration:        29 =============================

     Lanczos converged:  F threshold:   0.100E-02
     Est. extremal eigenvalues:    0.467E+01   0.133E+00
     Est. condition number :    0.351E+02

 Order=           3
     NS sqrt iter    1 1.00000000   0.120E+01       0.021     2707.448
     NS sqrt iter    2 1.00000000   0.614E+00       0.034     3378.700
     NS sqrt iter    3 1.00000000   0.196E+00       0.034     3379.444
     NS sqrt iter    4 1.00000000   0.239E-01       0.034     3369.095
     NS sqrt iter    5 1.00000000   0.958E-04       0.033     3392.667
     NS sqrt iter    6 1.00000000   0.171E-10       0.016     2164.575
     Symmetrizing Results
     Final NS sqrt iter    6 1.00000000   0.195E-11

     Est. extremal eigenvalues     -0.83434     2.57565  converged:  T
     TRS4 it   1 1.00000000   0.285E+02       0.007     2117.652   0.100E-11
     TRS4 it   2 1.00000000   0.233E+02       0.013     2174.796   0.100E-11
     TRS4 it   3 1.00000000   0.154E+02       0.013     2199.919   0.100E-11
     TRS4 it   4 1.00000000   0.883E+01       0.013     2222.436   0.100E-11
     TRS4 it   5 1.00000000   0.360E+01       0.013     2203.723   0.100E-11
     TRS4 it   6 1.00000000   0.891E+00       0.013     2202.684   0.100E-11
     TRS4 it   7 1.00000000   0.995E-01       0.013     2205.800   0.100E-11
     TRS4 it   8 1.00000000   0.181E-02       0.013     2217.362   0.100E-11
     TRS4 it   9 1.00000000   0.925E-06       0.013     2201.188   0.100E-11
[...]
     TRS4 it   5 1.00000000   0.411E+01       0.013     2201.714   0.100E-11
     TRS4 it   6 1.00000000   0.128E+01       0.013     2209.960   0.100E-11
     TRS4 it   7 1.00000000   0.225E+00       0.013     2204.363   0.100E-11
     TRS4 it   8 1.00000000   0.106E-01       0.013     2211.098   0.100E-11
     TRS4 it   9 1.00000000   0.335E-04       0.013     2211.994   0.100E-11
     TRS4 it  10 1.00000000   0.104E-08       0.013     2198.447   0.100E-11
     TRS4 it  11 1.00000000   0.391E-13       0.013     2182.671   0.100E-11
     Final TRS4 iteration   11 1.00000000   0.391E-13
     Chemical potential (mu):       0.02932
 
 PAO| energy:  -190.79559013496663      penalty:   1.5841769381996612E-008
 PAO| Writing restart file.
     Est. extremal eigenvalues     -0.83408     2.57355  converged:  T
     TRS4 it   1 1.00000000   0.288E+02       0.007     2146.811   0.100E-11
     TRS4 it   2 1.00000000   0.236E+02       0.013     2208.946   0.100E-11
     TRS4 it   3 1.00000000   0.155E+02       0.013     2214.436   0.100E-11
     TRS4 it   4 1.00000000   0.917E+01       0.013     2210.257   0.100E-11
     TRS4 it   5 1.00000000   0.411E+01       0.013     2205.793   0.100E-11
     TRS4 it   6 1.00000000   0.128E+01       0.013     2188.369   0.100E-11
     TRS4 it   7 1.00000000   0.225E+00       0.013     2206.419   0.100E-11
     TRS4 it   8 1.00000000   0.106E-01       0.013     2197.834   0.100E-11
     TRS4 it   9 1.00000000   0.335E-04       0.013     2219.223   0.100E-11
     TRS4 it  10 1.00000000   0.104E-08       0.013     2195.103   0.100E-11
     TRS4 it  11 1.00000000   0.391E-13       0.013     2188.165   0.100E-11
     Final TRS4 iteration   11 1.00000000   0.391E-13
     Chemical potential (mu):       0.02932

 SCF     1     -1103.027534295     -1103.027534295    1.765777

*********************************************************
 Using MIXING_FRACTION=0.450 to mix KS matrix:  iscf=  2
 KS_nw=0.450*KS + 0.550*KS_old
*********************************************************
     Est. extremal eigenvalues     -0.83408     2.57355  converged:  T
     TRS4 it   1 1.00000000   0.288E+02       0.007     2136.859   0.100E-11
     TRS4 it   2 1.00000000   0.236E+02       0.013     2208.285   0.100E-11
     TRS4 it   3 1.00000000   0.155E+02       0.013     2187.719   0.100E-11
     TRS4 it   4 1.00000000   0.917E+01       0.013     2195.823   0.100E-11
     TRS4 it   5 1.00000000   0.411E+01       0.013     2185.770   0.100E-11
     TRS4 it   6 1.00000000   0.128E+01       0.013     2209.958   0.100E-11
     TRS4 it   7 1.00000000   0.225E+00       0.013     2198.459   0.100E-11
     TRS4 it   8 1.00000000   0.106E-01       0.013     2174.036   0.100E-11
     TRS4 it   9 1.00000000   0.335E-04       0.013     2191.785   0.100E-11
     TRS4 it  10 1.00000000   0.104E-08       0.013     2215.282   0.100E-11
     TRS4 it  11 1.00000000   0.284E-13       0.013     2195.654   0.100E-11
     Final TRS4 iteration   11 1.00000000   0.284E-13
     Chemical potential (mu):       0.02932

 SCF     2     -1103.027534295        -0.000000000    1.756343


 SCF run converged in     2 steps.

 PAO| Storing density matrix for ASPC guess in slot:           1

 ENERGY| Total FORCE_EVAL ( QS ) energy [a.u.]:            -1103.027534294772067

 -------------------------------------------------------------------------------
 -                                                                             -
 -                                DBCSR STATISTICS                             -
 -                                                                             -
 -------------------------------------------------------------------------------
 COUNTER                                    TOTAL       BLAS       SMM       ACC
 flops     5 x     5 x     4             26419200       0.0%    100.0%      0.0%     
 flops    13 x     5 x     4             34078720       0.0%    100.0%      0.0%     
 flops     5 x    13 x     4             34078720       0.0%    100.0%      0.0%     
 flops    13 x    13 x     4             44994560       0.0%    100.0%      0.0%     
 flops     4 x     4 x     5           6503792640       0.0%    100.0%      0.0%     
 flops     5 x     4 x     5           8044544000       0.0%    100.0%      0.0%     
 flops     4 x     4 x    13           8454930432       0.0%    100.0%      0.0%     
 flops    13 x     4 x     5          10457907200       0.0%    100.0%      0.0%     
 flops     5 x     4 x    13          10457907200       0.0%    100.0%      0.0%     
 flops    13 x     4 x    13          13595279360       0.0%    100.0%      0.0%     
 flops     5 x     4 x     4         407182885120       0.0%    100.0%      0.0%     
 flops    13 x     4 x     4         537390536384       0.0%    100.0%      0.0%     
 flops     4 x     4 x     4       29710723658880       0.0%    100.0%      0.0%     
 flops inhomo. stacks                           0       0.0%      0.0%      0.0%
 flops total                        30.712951E+12       0.0%    100.0%      0.0%
 flops max/rank                    970.471884E+09       0.0%    100.0%      0.0%
 matmuls inhomo. stacks                         0       0.0%      0.0%      0.0%
 matmuls total                       236103496415       0.0%    100.0%      0.0%
 number of processed stacks             241223091       0.0%    100.0%      0.0%
 average stack size                                     0.0     978.8       0.0
 marketing flops                    53.547815E+12
 -------------------------------------------------------------------------------
 # multiplications                          50232
 max memory usage/rank             620.081152E+06
 # max total images/rank                        2
 # max 3D layers                                1
 # MPI messages exchanged                20896512
 MPI messages size (bytes):
  total size                         2.467691E+12
  min size                           0.000000E+00
  max size                         541.696000E+03
  average size                     118.091047E+03
 MPI breakdown and total messages size (bytes):
             size <=      128              893337                     2688
       128 < size <=     8192              339894               1369424384
      8192 < size <=    32768               92109               1985132288
     32768 < size <=   131072             8925678             655404795008
    131072 < size <=  4194304            10645494            1809321181952
   4194304 < size <= 16777216                   0                        0
  16777216 < size                               0                        0
 -------------------------------------------------------------------------------

 *** WARNING in dbcsr_mm.F:301 :: Using a non-square number of MPI ranks ***
 *** might lead to poor performance. Used ranks: 32 Suggested: 36 64     ***

 -------------------------------------------------------------------------------
 -                                                                             -
 -                      DBCSR MESSAGE PASSING PERFORMANCE                      -
 -                                                                             -
 -------------------------------------------------------------------------------
 ROUTINE             CALLS      AVE VOLUME [Bytes]
 MP_Bcast               14                     12.
 MP_Allreduce       302313                     37.
 MP_Alltoall        129669                  14560.
 MP_ISend          1681150                  54989.
 MP_IRecv          1644286                  56291.
 -------------------------------------------------------------------------------

 -------------------------------------------------------------------------------
 -                                                                             -
 -                                DBM STATISTICS                               -
 -                                                                             -
 -------------------------------------------------------------------------------
    M  x    N  x    K                                          COUNT     PERCENT
 -------------------------------------------------------------------------------

 -------------------------------------------------------------------------------
 -                                                                             -
 -                                GRID STATISTICS                              -
 -                                                                             -
 -------------------------------------------------------------------------------
 LP    KERNEL             BACKEND                              COUNT     PERCENT
 2     collocate ortho    CPU                               13114336      28.84%
 2     integrate ortho    CPU                               13114336      28.84%
 3     collocate ortho    CPU                                8425136      18.53%
 3     integrate ortho    CPU                                8425136      18.53%
 4     collocate ortho    CPU                                1196064       2.63%
 4     integrate ortho    CPU                                1196064       2.63%
 0     collocate general  CPU                                   6144       0.01%
 -------------------------------------------------------------------------------

 MEMORY| Estimated peak process memory [MiB]                                 592

 -------------------------------------------------------------------------------
 -                                                                             -
 -                         MESSAGE PASSING PERFORMANCE                         -
 -                                                                             -
 -------------------------------------------------------------------------------

 ROUTINE             CALLS      AVE VOLUME [Bytes]
 MP_Group                5
 MP_Bcast           357327                   1976.
 MP_Allreduce       888307                    514.
 MP_Sync                 5
 MP_Alltoall           419                4187279.
 MP_SendRecv          1488                  18832.
 MP_ISendRecv         1488                  18832.
 MP_Wait              4218
 MP_ISend             2470                 108139.
 MP_IRecv             2470                 108153.
 -------------------------------------------------------------------------------


 -------------------------------------------------------------------------------
 -                                                                             -
 -                           R E F E R E N C E S                               -
 -                                                                             -
 -------------------------------------------------------------------------------
 
 CP2K version 2024.3 (Development Version), the CP2K developers group (2024).
 CP2K is freely available from https://www.cp2k.org/ .
 
 T. D. Kuehne, M. Iannuzzi, M. Del Ben, V. V. Rybkin, P. Seewald, F. Stein, T. 
 Laino, R. Z. Khaliullin, O. Schuett, F. Schiffmann, D. Golze, J. Wilhelm, S. 
 Chulkov, M. H. Bani-Hashemian, V. Weber, U. Borstnik, M. Taillefumier, A. S. 
 Jakobovits, A. Lazzaro, H. Pabst, T. Mueller, R. Schade, M. Guidon, S. 
 Andermatt, N. Holmberg, G. K. Schenter, A. Hehn, A. Bussy, F. Belleflamme, G. 
 Tabacchi, A. Gloess, M. Lass, I. Bethune, C. J. Mundy, C. Plessl, M. Watkins, 
 J. VandeVondele, M. Krack, J. Hutter.
 J. Chem. Phys. 152, 194103 (2020).
 CP2K: An electronic structure and molecular dynamics software package - 
 Quickstep: Efficient and accurate electronic structure calculations.
 https://doi.org/10.1063/5.0007045

 O. Schuett, J. VandeVondele.
 J. Chem. Theory Comput. 14, 4168-4175 (2018).
 Machine Learning Adaptive Basis Sets for Efficient Large Scale Density 
 Functional Theory Simulation.
 https://doi.org/10.1021/acs.jctc.8b00378

 O. Schuett, P. Messmer, J. Hutter, J. VandeVondele.
 Electronic Structure Calculations on Graphics Processing Units, 173-190 (2016).
 GPU-Accelerated Sparse Matrix-Matrix Multiplication for Linear Scaling Density 
 Functional Theory.
 https://doi.org/10.1002/9781118670712.ch8

 A. Heinecke, G. Henry, M. Hutchinson, H. Pabst.
 Proceedings of Intl. Supercomputing Conference, 981-991 (2016).
 LIBXSMM: Accelerating Small Matrix Multiplications by Runtime Code Generation.
 https://doi.org/10.1109/SC.2016.83

 J. Hutter, M. Iannuzzi, F. Schiffmann, J. VandeVondele.
 WIREs Comput Mol Sci. 4, 15-25 (2014).
 CP2K: atomistic simulations of condensed matter systems.
 https://doi.org/10.1002/wcms.1159

 U. Borstnik, J. VandeVondele, V. Weber, J. Hutter.
 Parallel Comput. 40, 47-58 (2014).
 Sparse matrix multiplication: The distributed block-compressed sparse row 
 library.
 https://doi.org/10.1016/j.parco.2014.03.012

 A. Marek, V. Blum, R. Johanni, V. Havu, B. Lang, T. Auckenthaler, A. Heinecke, 
 H. Bungartz, H. Lederer.
 J. Phys. Condens. Matter 26, 213201 (2014).
 The ELPA library: scalable parallel eigenvalue solutions for electronic 
 structure theory and computational science.
 https://doi.org/10.1088/0953-8984/26/21/213201

 J. VandeVondele, U. Borstnik, J. Hutter.
 J. Chem. Theory Comput. 8, 3565-3573 (2012).
 Linear Scaling Self-Consistent Field Calculations with Millions of Atoms in the 
 Condensed Phase.
 https://doi.org/10.1021/ct200897x

 J. VandeVondele, J. Hutter.
 J. Chem. Phys. 127, 114105 (2007).
 Gaussian basis sets for accurate calculations on molecular systems in gas and 
 condensed phases.
 https://doi.org/10.1063/1.2770708

 J. VandeVondele, M. Krack, F. Mohamed, M. Parrinello, T. Chassaing, J. Hutter.
 Comput. Phys. Commun. 167, 103-128 (2005).
 QUICKSTEP: Fast and accurate density functional calculations using a mixed 
 Gaussian and plane waves approach.
 https://doi.org/10.1016/j.cpc.2004.12.014

 M. Krack.
 Theor. Chem. Acc. 114, 145-152 (2005).
 Pseudopotentials for H to Kr optimized for gradient-corrected 
 exchange-correlation functionals.
 https://doi.org/10.1007/s00214-005-0655-y

 M. Frigo, S. G. Johnson.
 Proc. IEEE 93, 216-231 (2005).
 The design and implementation of FFTW3.
 https://doi.org/10.1109/JPROC.2004.840301

 A. M. N. Niklasson, C. J. Tymczak, M. Challacombe.
 J. Chem. Phys. 118, 8611-8620 (2003).
 Trace resetting density matrix purification in O(N) self-consistent-field 
 theory.
 https://doi.org/10.1063/1.1559913

 C. Hartwigsen, S. Goedecker, J. Hutter.
 Phys. Rev. B 58, 3641-3662 (1998).
 Relativistic separable dual-space Gaussian pseudopotentials from H to Rn.
 https://doi.org/10.1103/PhysRevB.58.3641

 G. Lippert, J. Hutter, M. Parrinello.
 Mol. Phys. 92, 477-487 (1997).
 A hybrid Gaussian and plane wave density functional scheme.
 https://doi.org/10.1080/002689797170220

 S. Goedecker, M. Teter, J. Hutter.
 Phys. Rev. B 54, 1703-1710 (1996).
 Separable dual-space Gaussian pseudopotentials.
 https://doi.org/10.1103/PhysRevB.54.1703

 J. P. Perdew, K. Burke, M. Ernzerhof.
 Phys. Rev. Lett. 77, 3865-3868 (1996).
 Generalized gradient approximation made simple.
 https://doi.org/10.1103/PhysRevLett.77.3865


 -------------------------------------------------------------------------------
 -                                                                             -
 -                                T I M I N G                                  -
 -                                                                             -
 -------------------------------------------------------------------------------
 SUBROUTINE                       CALLS  ASD         SELF TIME        TOTAL TIME
                                MAXIMUM       AVERAGE  MAXIMUM  AVERAGE  MAXIMUM
 CP2K                                 1  1.0    0.013    0.017  443.196  443.202
 qs_energies                          1  2.0    0.000    0.000  443.036  443.042
 ls_scf                               1  3.0    0.000    0.000  441.989  441.995
 pao_update                           7  4.0    0.006    0.026  412.069  412.075
 pao_calc_energy                    816  5.0    0.003    0.020  368.939  368.944
 dbcsr_multiply_generic           50232  8.4    1.424    1.578  345.785  346.181
 multiply_cannon                  50232  9.4    2.608    3.335  278.292  283.326
 multiply_cannon_loop             50232 10.4    1.837    2.035  267.418  272.924
 ls_scf_init_matrix_S               823  7.0    0.008    0.010  210.262  210.358
 pao_rebuild_S                      816  6.0    0.003    0.003  208.457  208.553
 matrix_sqrt_Newton_Schulz          823  8.0    0.168    0.286  195.047  195.098
 multiply_cannon_multrec         401856 11.4  177.063  179.538  177.891  180.357
 pao_dm_trs4                        816  6.0    0.006    0.007  160.079  160.113
 density_matrix_trs4                831  7.0    0.220    0.376  154.241  154.347
 mp_waitall_1                   3216596 12.6   86.168   94.268   86.168   94.268
 multiply_cannon_metrocomm3      401856 11.4    0.692    0.741   68.723   74.341
 arnoldi_extremal                  1654  8.5    0.013    0.014   58.860   58.915
 arnoldi_normal_ev                 1654  9.5    0.036    0.060   58.844   58.898
 make_m2s                        100464  9.4    0.546    0.702   50.747   52.062
 build_subspace                    5762 10.7    0.351    0.375   51.776   51.813
 make_images                     100464 10.4    7.358    7.574   49.382   50.755
 dbcsr_matrix_vector_mult        176168 11.7    0.754    1.140   48.704   49.225
 pao_calc_AB                       1084  5.8    0.002    0.002   42.671   42.674
 pao_calc_AB_equi                  1084  6.8    0.040    0.101   42.669   42.672
 dbcsr_matrix_vector_mult_local  176168 12.7   41.555   42.147   41.751   42.344
 pao_calc_grad_lnv_wrt_AB           267  7.0    0.020    0.027   42.230   42.292
 ls_scf_main                          7  4.0    0.000    0.001   26.402   26.403
 make_images_data                100464 11.4    0.860    1.050   21.321   23.873
 mp_sum_l                        205235  9.5    9.163   23.865    9.163   23.865
 ls_scf_dm_to_ks                     15  5.0    0.000    0.000   23.424   23.431
 hybrid_alltoall_any             102105 12.3    0.907    1.847   16.705   20.784
 matrix_qs_to_ls                   1654  7.5    0.016    0.025   17.216   17.497
 dbcsr_multiply_generic_mpsum_f   36849  9.5    0.027    0.035    5.483   16.708
 qs_ks_update_qs_env                 16  6.0    0.000    0.000   13.943   13.946
 rebuild_ks_matrix                   16  7.0    0.000    0.000   13.932   13.934
 qs_ks_build_kohn_sham_matrix        16  8.0    0.003    0.003   13.932   13.934
 calculate_norms                 750272 11.4   11.534   12.089   11.534   12.089
 make_images_pack                100464 11.4   11.124   11.423   11.261   11.558
 qs_rho_update_rho_low               16  6.0    0.000    0.000   10.945   10.950
 calculate_rho_elec                  16  7.0    0.005    0.006   10.945   10.950
 sum_up_and_integrate                16  9.0    0.000    0.001   10.548   10.551
 integrate_v_rspace                  16 10.0    0.000    0.001   10.533   10.535
 grid_collocate_task_list            16  8.0    9.720    9.855    9.720    9.855
 grid_integrate_task_list            16 11.0    9.279    9.423    9.279    9.423
 -------------------------------------------------------------------------------

 The number of warnings for this run is : 1
 
 -------------------------------------------------------------------------------
  **** **** ******  **  PROGRAM ENDED AT                 2024-09-24 04:29:52.758
 ***** ** ***  *** **   PROGRAM RAN ON                                    moritz
 **    ****   ******    PROGRAM RAN BY                                       ole
 ***** **    ** ** **   PROGRAM PROCESS ID                                168533
  **** **  *******  **  PROGRAM STOPPED IN /home/ole/git/pao_ml_equivar/64H2O_MD
                                           /Frame4900
