 DBCSR| CPU Multiplication driver                                           XSMM (U)
 DBCSR| Multrec recursion limit                                              512 (U)
 DBCSR| Multiplication stack size                                           1000 (D)
 DBCSR| Maximum elements for images                                    UNLIMITED (U)
 DBCSR| Multiplicative factor virtual images                                   1 (U)
 DBCSR| Use multiplication densification                                       T (D)
 DBCSR| Multiplication size stacks                                             3 (U)
 DBCSR| Use memory pool for CPU allocation                                     F (U)
 DBCSR| Number of 3D layers                                               SINGLE (U)
 DBCSR| Use MPI memory allocation                                              F (U)
 DBCSR| Use RMA algorithm                                                      F (U)
 DBCSR| Use Communication thread                                               T (U)
 DBCSR| Communication thread load                                             87 (D)
 DBCSR| MPI: My process id                                                     0
 DBCSR| MPI: Number of processes                                              32
 DBCSR| OMP: Current number of threads                                         1
 DBCSR| OMP: Max number of threads                                             1
 DBCSR| Split modifier for TAS multiplication algorithm                  1.0E+00 (U)


  **** **** ******  **  PROGRAM STARTED AT               2024-09-23 17:30:09.702
 ***** ** ***  *** **   PROGRAM STARTED ON                                moritz
 **    ****   ******    PROGRAM STARTED BY                                   ole
 ***** **    ** ** **   PROGRAM PROCESS ID                                154947
  **** **  *******  **  PROGRAM STARTED IN /home/ole/git/pao_ml_equivar/64H2O_MD
                                           /Frame0300

 CP2K| version string:                 CP2K version 2024.3 (Development Version)
 CP2K| source code revision number:                                  git:3f890bb
 CP2K| cp2kflags: omp libint fftw3 libxc libgrpp pexsi elpa parallel scalapack c
 CP2K|            osma quip deepmd xsmm plumed2 spglib libdftd4 sirius libvori l
 CP2K|            libbqb libvdwxc hdf5
 CP2K| is freely available from                            https://www.cp2k.org/
 CP2K| Program compiled at                          Mo 23 Sep 2024 17:17:04 CEST
 CP2K| Program compiled on                                                moritz
 CP2K| Program compiled for                                                local
 CP2K| Data directory path                               /home/ole/git/cp2k/data
 CP2K| Input file name                                             64H2O_ref.inp

 GLOBAL| Force Environment number                                              1
 GLOBAL| Basis set file name                                        BASIS_MOLOPT
 GLOBAL| Potential file name                                      GTH_POTENTIALS
 GLOBAL| MM Potential file name                                     MM_POTENTIAL
 GLOBAL| Coordinate file name                                         coords.xyz
 GLOBAL| Method name                                                        CP2K
 GLOBAL| Project name                                                  64H2O_ref
 GLOBAL| Run type                                                         ENERGY
 GLOBAL| FFT library                                                       FFTW3
 GLOBAL| Diagonalization library                                            ELPA
 GLOBAL| DGEMM library                                                      BLAS
 GLOBAL| Minimum number of eigenvectors for ELPA usage                        16
 GLOBAL| Orthonormality check for eigenvectors                          DISABLED
 GLOBAL| Matrix multiplication library                                     COSMA
 GLOBAL| All-to-all communication in single precision                          F
 GLOBAL| FFTs using library dependent lengths                                  F
 GLOBAL| Grid backend                                                       AUTO
 GLOBAL| Global print level                                                  LOW
 GLOBAL| MPI I/O enabled                                                       T
 GLOBAL| Total number of message passing processes                            32
 GLOBAL| Number of threads for this process                                    1
 GLOBAL| This output is from process                                           0
 GLOBAL| Stack size for threads created by OpenMP (OMP_STACKSIZE)        default
 GLOBAL| CPU model name           AMD Ryzen Threadripper 3970X 32-Core Processor
 GLOBAL| CPUID                                                              1002

 MEMORY| system memory details [Kb]
 MEMORY|                        rank 0           min           max       average
 MEMORY| MemTotal            131752136     131752136     131752136     131752136
 MEMORY| MemFree             118717912     118717912     118717912     118717912
 MEMORY| Buffers                259148        259148        259148        259148
 MEMORY| Cached                6753000       6753000       6753000       6753000
 MEMORY| Slab                   684900        684900        684900        684900
 MEMORY| SReclaimable           258680        258680        258680        258680
 MEMORY| MemLikelyFree       125988740     125988740     125988740     125988740


 GENERATE|  Preliminary Number of Bonds generated:                             0
 GENERATE|  Achieved consistency in connectivity generation.

 *******************************************************************************
 *******************************************************************************
 **                                                                           **
 **     #####                         ##              ##                      **
 **    ##   ##            ##          ##              ##                      **
 **   ##     ##                       ##            ######                    **
 **   ##     ##  ##   ##  ##   #####  ##  ##   ####   ##    #####    #####    **
 **   ##     ##  ##   ##  ##  ##      ## ##   ##      ##   ##   ##  ##   ##   **
 **   ##  ## ##  ##   ##  ##  ##      ####     ###    ##   ######   ######    **
 **    ##  ###   ##   ##  ##  ##      ## ##      ##   ##   ##       ##        **
 **     #######   #####   ##   #####  ##  ##  ####    ##    #####   ##        **
 **           ##                                                    ##        **
 **                                                                           **
 **                                                ... make the atoms dance   **
 **                                                                           **
 **            Copyright (C) by CP2K developers group (2000-2024)             **
 **                      J. Chem. Phys. 152, 194103 (2020)                    **
 **                                                                           **
 *******************************************************************************


 TOTAL NUMBERS AND MAXIMUM NUMBERS

  Total number of            - Atomic kinds:                                   2
                             - Atoms:                                        192
                             - Shell sets:                                   192
                             - Shells:                                       704
                             - Primitive Cartesian functions:               1344
                             - Cartesian basis functions:                   1536
                             - Spherical basis functions:                   1472

  Maximum angular momentum of- Orbital basis functions:                        2
                             - Local part of the GTH pseudopotential:          2
                             - Non-local part of the GTH pseudopotential:      0

 ------------------------------ Linear scaling SCF -----------------------------
 eps_scf:                                                              0.100E-07
 eps_filter:                                                           0.100E-11
 mixing_fraction:                                                      0.450E+00
 max_scf:                                                                     25
 fixed chemical potential (mu)                                                 F
 has unit metric:                                                              F
 Computing inv(S):                                                             T
 Computing sqrt(S):                                                            T
 Computing S preconditioner                                                    F
 S sqrt method:                                                     NEWTONSCHULZ
 S sqrt order:                                                                 3
 Extrapolation order:                                                          1
 S preconditioner type                                                      NONE
 Polarized Atomic Orbitals (PAO)                                               F
 Purification method                                   Trace resetting 4th order
 Cluster type                                                             ATOMIC
 Computing Chebyshev                                                       FALSE
 Using PAO                                                                     F
 -------------------------------------------------------------------------------


     Lanczos converged:  F threshold:   0.100E-02
     Est. extremal eigenvalues:    0.855E+01   0.553E-02
     Est. condition number :    0.155E+04

 Order=           3
     NS sqrt iter    1 1.00000000   0.221E+01       0.065     6211.162
     NS sqrt iter    2 1.00000000   0.116E+01       0.099     8073.195
     NS sqrt iter    3 1.00000000   0.575E+00       0.099     8093.700
     NS sqrt iter    4 1.00000000   0.332E+00       0.099     8080.341
     NS sqrt iter    5 1.00000000   0.225E+00       0.100     7977.884
     NS sqrt iter    6 1.00000000   0.105E+00       0.098     8097.516
     NS sqrt iter    7 1.00000000   0.131E-01       0.098     8119.998
     NS sqrt iter    8 1.00000000   0.684E-04       0.099     8026.185
     NS sqrt iter    9 1.00000000   0.409E-10       0.062     5798.013
     Symmetrizing Results
     Final NS sqrt iter    9 1.00000000   0.739E-11



 Guess for atomic kind: O

 Electronic structure
    Total number of core electrons                                          2.00
    Total number of valence electrons                                       6.00
    Total number of electrons                                               8.00
    Multiplicity                                                   not specified
    S   [  2.00] 2.00
    P      4.00


 *******************************************************************************
                  Iteration          Convergence                     Energy [au]
 *******************************************************************************
                          1        0.708315                     -15.576645311500
                          2        0.608879                     -15.587933561584
                          3        0.102828E-01                 -15.656849565404
                          4        0.113889E-02                 -15.656866888140
                          5        0.434197E-03                 -15.656867072159
                          6        0.263771E-03                 -15.656867091904
                          7        0.478536E-06                 -15.656867103452

 Energy components [Hartree]           Total Energy ::          -15.656867103452
                                        Band Energy ::           -3.000198112285
                                     Kinetic Energy ::           11.759971203220
                                   Potential Energy ::          -27.416838306672
                                      Virial (-V/T) ::            2.331369510426
                                        Core Energy ::          -26.140716385623
                                          XC Energy ::           -3.154051012914
                                     Coulomb Energy ::           13.637900295084
                       Total Pseudopotential Energy ::          -37.935781716540
                       Local Pseudopotential Energy ::          -39.218907440693
                    Nonlocal Pseudopotential Energy ::            1.283125724153
                                        Confinement ::            0.350941276976

 Orbital energies  State     L     Occupation   Energy[a.u.]          Energy[eV]

                       1     0          2.000      -0.864471          -23.523463

                       1     1          4.000      -0.317814           -8.648154


 Total Electron Density at R=0:                                         0.000068

 Guess for atomic kind: H

 Electronic structure
    Total number of core electrons                                          0.00
    Total number of valence electrons                                       1.00
    Total number of electrons                                               1.00
    Multiplicity                                                   not specified
    S      1.00


 *******************************************************************************
                  Iteration          Convergence                     Energy [au]
 *******************************************************************************
                          1        0.437545E-02                  -0.424159432110
                          2        0.531356E-03                  -0.424178438213
                          3        0.259176E-06                  -0.424178722480

 Energy components [Hartree]           Total Energy ::           -0.424178722480
                                        Band Energy ::           -0.199015229016
                                     Kinetic Energy ::            0.464007633961
                                   Potential Energy ::           -0.888186356441
                                      Virial (-V/T) ::            1.914163240935
                                        Core Energy ::           -0.479160803564
                                          XC Energy ::           -0.244352904054
                                     Coulomb Energy ::            0.299334985138
                       Total Pseudopotential Energy ::           -0.962295316385
                       Local Pseudopotential Energy ::           -0.962295316385
                    Nonlocal Pseudopotential Energy ::            0.000000000000
                                        Confinement ::            0.191268788606

 Orbital energies  State     L     Occupation   Energy[a.u.]          Energy[eV]

                       1     0          1.000      -0.199015           -5.415480


 Total Electron Density at R=0:                                         0.242907
 Re-scaling the density matrix to get the right number of electrons
                  # Electrons              Trace(P)               Scaling factor
                          512               512.001                        1.000
 Energy with the initial guess:     -1095.599067239

     Est. extremal eigenvalues     -0.95483     5.20636  converged:  T
     TRS4 it   1 1.00000000   0.567E+02       0.019     5390.282   0.100E-11
     TRS4 it   2 1.00000000   0.539E+02       0.019     5286.896   0.100E-11
     TRS4 it   3 1.00000000   0.336E+02       0.036     5573.975   0.100E-11
     TRS4 it   4 1.00000000   0.179E+02       0.036     5630.307   0.100E-11
     TRS4 it   5 1.00000000   0.109E+02       0.036     5614.876   0.100E-11
     TRS4 it   6 1.00000000   0.499E+01       0.036     5570.740   0.100E-11
     TRS4 it   7 1.00000000   0.151E+01       0.036     5598.913   0.100E-11
     TRS4 it   8 1.00000000   0.236E+00       0.035     5691.086   0.100E-11
     TRS4 it   9 1.00000000   0.108E-01       0.036     5611.788   0.100E-11
     TRS4 it  10 1.00000000   0.354E-04       0.036     5542.963   0.100E-11
     TRS4 it  11 1.00000000   0.150E-09       0.035     5668.036   0.100E-11
     Final TRS4 iteration   11 1.00000000   0.150E-09
     Chemical potential (mu):      -0.10649

 SCF     1     -1097.823887394     -1097.823887394    2.037825

*********************************************************
 Using MIXING_FRACTION=0.450 to mix KS matrix:  iscf=  2
 KS_nw=0.450*KS + 0.550*KS_old
*********************************************************
     Est. extremal eigenvalues     -0.82910     5.29072  converged:  F
     TRS4 it   1 1.00000000   0.558E+02       0.019     5227.019   0.100E-11
     TRS4 it   2 1.00000000   0.540E+02       0.019     5319.352   0.100E-11
     TRS4 it   3 1.00000000   0.349E+02       0.036     5517.465   0.100E-11
     TRS4 it   4 1.00000000   0.183E+02       0.036     5514.042   0.100E-11
     TRS4 it   5 1.00000000   0.118E+02       0.036     5564.192   0.100E-11
     TRS4 it   6 1.00000000   0.620E+01       0.036     5629.475   0.100E-11
     TRS4 it   7 1.00000000   0.249E+01       0.036     5566.489   0.100E-11
     TRS4 it   8 1.00000000   0.688E+00       0.035     5671.944   0.100E-11
     TRS4 it   9 1.00000000   0.102E+00       0.036     5510.957   0.100E-11
     TRS4 it  10 1.00000000   0.547E-02       0.036     5606.546   0.100E-11
     TRS4 it  11 1.00000000   0.122E-04       0.036     5620.451   0.100E-11
     TRS4 it  12 1.00000000   0.118E-09       0.036     5522.105   0.100E-11
     Final TRS4 iteration   12 1.00000000   0.118E-09
     Chemical potential (mu):      -0.01684

 SCF     2     -1102.919488813        -5.095601419    2.104936

*********************************************************
 Using MIXING_FRACTION=0.450 to mix KS matrix:  iscf=  3
 KS_nw=0.450*KS + 0.550*KS_old
*********************************************************
     Est. extremal eigenvalues     -0.83728     5.28281  converged:  F
     TRS4 it   1 1.00000000   0.558E+02       0.019     5394.450   0.100E-11
     TRS4 it   2 1.00000000   0.539E+02       0.018     5437.250   0.100E-11
     TRS4 it   3 1.00000000   0.348E+02       0.036     5501.589   0.100E-11
     TRS4 it   4 1.00000000   0.182E+02       0.036     5568.121   0.100E-11
     TRS4 it   5 1.00000000   0.116E+02       0.035     5678.563   0.100E-11
     TRS4 it   6 1.00000000   0.597E+01       0.036     5588.692   0.100E-11
     TRS4 it   7 1.00000000   0.230E+01       0.035     5685.926   0.100E-11
     TRS4 it   8 1.00000000   0.594E+00       0.036     5626.007   0.100E-11
     TRS4 it   9 1.00000000   0.761E-01       0.036     5588.762   0.100E-11
     TRS4 it  10 1.00000000   0.284E-02       0.036     5535.085   0.100E-11
     TRS4 it  11 1.00000000   0.277E-05       0.036     5526.240   0.100E-11
     TRS4 it  12 1.00000000   0.574E-11       0.035     5677.918   0.100E-11
     Final TRS4 iteration   12 1.00000000   0.574E-11
     Chemical potential (mu):      -0.02638

 SCF     3     -1103.084556966        -0.165068153    2.084394

*********************************************************
 Using MIXING_FRACTION=0.450 to mix KS matrix:  iscf=  4
 KS_nw=0.450*KS + 0.550*KS_old
*********************************************************
     Est. extremal eigenvalues     -0.83187     5.28804  converged:  F
     TRS4 it   1 1.00000000   0.558E+02       0.019     5279.595   0.100E-11
     TRS4 it   2 1.00000000   0.539E+02       0.019     5402.898   0.100E-11
     TRS4 it   3 1.00000000   0.348E+02       0.037     5492.138   0.100E-11
     TRS4 it   4 1.00000000   0.183E+02       0.035     5682.807   0.100E-11
     TRS4 it   5 1.00000000   0.117E+02       0.036     5546.182   0.100E-11
     TRS4 it   6 1.00000000   0.604E+01       0.035     5675.379   0.100E-11
     TRS4 it   7 1.00000000   0.237E+01       0.037     5494.991   0.100E-11
     TRS4 it   8 1.00000000   0.629E+00       0.036     5569.319   0.100E-11
     TRS4 it   9 1.00000000   0.865E-01       0.036     5523.366   0.100E-11
     TRS4 it  10 1.00000000   0.391E-02       0.036     5528.594   0.100E-11
     TRS4 it  11 1.00000000   0.726E-05       0.036     5555.158   0.100E-11
     TRS4 it  12 1.00000000   0.548E-10       0.036     5545.667   0.100E-11
     Final TRS4 iteration   12 1.00000000   0.548E-10
     Chemical potential (mu):      -0.01931

 SCF     4     -1103.093230080        -0.008673114    2.088983

*********************************************************
 Using MIXING_FRACTION=0.450 to mix KS matrix:  iscf=  5
 KS_nw=0.450*KS + 0.550*KS_old
*********************************************************
     Est. extremal eigenvalues     -0.83056     5.28872  converged:  F
     TRS4 it   1 1.00000000   0.558E+02       0.019     5308.687   0.100E-11
     TRS4 it   2 1.00000000   0.539E+02       0.019     5381.584   0.100E-11
     TRS4 it   3 1.00000000   0.348E+02       0.036     5499.627   0.100E-11
     TRS4 it   4 1.00000000   0.183E+02       0.036     5593.376   0.100E-11
     TRS4 it   5 1.00000000   0.117E+02       0.035     5657.750   0.100E-11
     TRS4 it   6 1.00000000   0.603E+01       0.036     5610.771   0.100E-11
     TRS4 it   7 1.00000000   0.236E+01       0.037     5484.849   0.100E-11
     TRS4 it   8 1.00000000   0.627E+00       0.036     5548.103   0.100E-11
     TRS4 it   9 1.00000000   0.860E-01       0.036     5584.770   0.100E-11
     TRS4 it  10 1.00000000   0.385E-02       0.035     5689.133   0.100E-11
     TRS4 it  11 1.00000000   0.705E-05       0.036     5612.254   0.100E-11
     TRS4 it  12 1.00000000   0.522E-10       0.036     5546.178   0.100E-11
     Final TRS4 iteration   12 1.00000000   0.522E-10
     Chemical potential (mu):      -0.01860

 SCF     5     -1103.093936556        -0.000706475    2.086227

*********************************************************
 Using MIXING_FRACTION=0.450 to mix KS matrix:  iscf=  6
 KS_nw=0.450*KS + 0.550*KS_old
*********************************************************
     Est. extremal eigenvalues     -0.82977     5.28948  converged:  F
     TRS4 it   1 1.00000000   0.558E+02       0.018     5426.768   0.100E-11
     TRS4 it   2 1.00000000   0.539E+02       0.019     5303.952   0.100E-11
     TRS4 it   3 1.00000000   0.348E+02       0.036     5528.000   0.100E-11
     TRS4 it   4 1.00000000   0.183E+02       0.036     5605.327   0.100E-11
     TRS4 it   5 1.00000000   0.117E+02       0.036     5606.748   0.100E-11
     TRS4 it   6 1.00000000   0.604E+01       0.036     5524.892   0.100E-11
     TRS4 it   7 1.00000000   0.237E+01       0.036     5542.727   0.100E-11
     TRS4 it   8 1.00000000   0.631E+00       0.036     5614.368   0.100E-11
     TRS4 it   9 1.00000000   0.874E-01       0.036     5603.898   0.100E-11
     TRS4 it  10 1.00000000   0.402E-02       0.036     5588.902   0.100E-11
     TRS4 it  11 1.00000000   0.813E-05       0.036     5549.352   0.100E-11
     TRS4 it  12 1.00000000   0.729E-10       0.036     5625.633   0.100E-11
     Final TRS4 iteration   12 1.00000000   0.729E-10
     Chemical potential (mu):      -0.01747

 SCF     6     -1103.094039789        -0.000103234    2.091960

*********************************************************
 Using MIXING_FRACTION=0.450 to mix KS matrix:  iscf=  7
 KS_nw=0.450*KS + 0.550*KS_old
*********************************************************
     Est. extremal eigenvalues     -0.82932     5.28978  converged:  F
     TRS4 it   1 1.00000000   0.558E+02       0.019     5341.446   0.100E-11
     TRS4 it   2 1.00000000   0.539E+02       0.019     5349.441   0.100E-11
     TRS4 it   3 1.00000000   0.348E+02       0.036     5525.330   0.100E-11
     TRS4 it   4 1.00000000   0.183E+02       0.036     5599.192   0.100E-11
     TRS4 it   5 1.00000000   0.117E+02       0.036     5611.295   0.100E-11
     TRS4 it   6 1.00000000   0.604E+01       0.035     5659.752   0.100E-11
     TRS4 it   7 1.00000000   0.237E+01       0.036     5515.438   0.100E-11
     TRS4 it   8 1.00000000   0.632E+00       0.036     5636.724   0.100E-11
     TRS4 it   9 1.00000000   0.876E-01       0.036     5600.513   0.100E-11
     TRS4 it  10 1.00000000   0.405E-02       0.036     5633.882   0.100E-11
     TRS4 it  11 1.00000000   0.829E-05       0.036     5612.567   0.100E-11
     TRS4 it  12 1.00000000   0.765E-10       0.036     5576.399   0.100E-11
     Final TRS4 iteration   12 1.00000000   0.765E-10
     Chemical potential (mu):      -0.01710

 SCF     7     -1103.094061081        -0.000021292    2.086940

*********************************************************
 Using MIXING_FRACTION=0.450 to mix KS matrix:  iscf=  8
 KS_nw=0.450*KS + 0.550*KS_old
*********************************************************
     Est. extremal eigenvalues     -0.82910     5.28995  converged:  F
     TRS4 it   1 1.00000000   0.558E+02       0.019     5292.846   0.100E-11
     TRS4 it   2 1.00000000   0.539E+02       0.019     5343.999   0.100E-11
     TRS4 it   3 1.00000000   0.348E+02       0.036     5568.454   0.100E-11
     TRS4 it   4 1.00000000   0.183E+02       0.036     5572.790   0.100E-11
     TRS4 it   5 1.00000000   0.117E+02       0.036     5601.190   0.100E-11
     TRS4 it   6 1.00000000   0.604E+01       0.035     5663.499   0.100E-11
     TRS4 it   7 1.00000000   0.237E+01       0.036     5564.881   0.100E-11
     TRS4 it   8 1.00000000   0.632E+00       0.036     5573.047   0.100E-11
     TRS4 it   9 1.00000000   0.879E-01       0.036     5516.294   0.100E-11
     TRS4 it  10 1.00000000   0.408E-02       0.036     5650.471   0.100E-11
     TRS4 it  11 1.00000000   0.853E-05       0.036     5572.625   0.100E-11
     TRS4 it  12 1.00000000   0.817E-10       0.036     5562.327   0.100E-11
     Final TRS4 iteration   12 1.00000000   0.817E-10
     Chemical potential (mu):      -0.01683

 SCF     8     -1103.094066145        -0.000005064    2.084994


 SCF run converged in     8 steps.

 Writing restart DM 64H2O_ref_LS_DM_SPIN_1_RESTART.dm with checksum:       0.61796691E+04

 ENERGY| Total FORCE_EVAL ( QS ) energy [a.u.]:            -1103.094066145405122

 -------------------------------------------------------------------------------
 -                                                                             -
 -                                DBCSR STATISTICS                             -
 -                                                                             -
 -------------------------------------------------------------------------------
 COUNTER                                    TOTAL       BLAS       SMM       ACC
 flops     5 x     5 x     5          79310371000       0.0%    100.0%      0.0%     
 flops     5 x    13 x     5         102701417650       0.0%    100.0%      0.0%     
 flops    13 x     5 x     5         102704768400       0.0%    100.0%      0.0%     
 flops     5 x     5 x    13         103216607000       0.0%    100.0%      0.0%     
 flops    13 x     5 x    13         133693113190       0.0%    100.0%      0.0%     
 flops     5 x    13 x    13         133701279270       0.0%    100.0%      0.0%     
 flops    13 x    13 x     5         134845427860       0.0%    100.0%      0.0%     
 flops    13 x    13 x    13         175582737252       0.0%    100.0%      0.0%     
 flops inhomo. stacks                           0       0.0%      0.0%      0.0%
 flops total                       965.755722E+09       0.0%    100.0%      0.0%
 flops max/rank                     30.986185E+09       0.0%    100.0%      0.0%
 matmuls inhomo. stacks                         0       0.0%      0.0%      0.0%
 matmuls total                         1070017167       0.0%    100.0%      0.0%
 number of processed stacks               1515049       0.0%    100.0%      0.0%
 average stack size                                     0.0     706.3       0.0
 marketing flops                     1.569237E+12
 -------------------------------------------------------------------------------
 # multiplications                            246
 max memory usage/rank             621.375488E+06
 # max total images/rank                        2
 # max 3D layers                                1
 # MPI messages exchanged                  102336
 MPI messages size (bytes):
  total size                        42.333766E+09
  min size                           0.000000E+00
  max size                         541.696000E+03
  average size                     413.674219E+03
 MPI breakdown and total messages size (bytes):
             size <=      128                 312                        0
       128 < size <=     8192                  42                   279312
      8192 < size <=    32768                  62                   841968
     32768 < size <=   131072                   0                        0
    131072 < size <=  4194304              101920              42332642560
   4194304 < size <= 16777216                   0                        0
  16777216 < size                               0                        0
 -------------------------------------------------------------------------------

 *** WARNING in dbcsr_mm.F:301 :: Using a non-square number of MPI ranks ***
 *** might lead to poor performance. Used ranks: 32 Suggested: 36 64     ***

 -------------------------------------------------------------------------------
 -                                                                             -
 -                      DBCSR MESSAGE PASSING PERFORMANCE                      -
 -                                                                             -
 -------------------------------------------------------------------------------
 ROUTINE             CALLS      AVE VOLUME [Bytes]
 MP_Bcast                9                     12.
 MP_Allreduce         1762                     34.
 MP_Alltoall           546                  34827.
 MP_ISend             8604                 170644.
 MP_IRecv             8238                 178850.
 -------------------------------------------------------------------------------

 -------------------------------------------------------------------------------
 -                                                                             -
 -                                DBM STATISTICS                               -
 -                                                                             -
 -------------------------------------------------------------------------------
    M  x    N  x    K                                          COUNT     PERCENT
 -------------------------------------------------------------------------------

 -------------------------------------------------------------------------------
 -                                                                             -
 -                                GRID STATISTICS                              -
 -                                                                             -
 -------------------------------------------------------------------------------
 LP    KERNEL             BACKEND                              COUNT     PERCENT
 2     collocate ortho    CPU                                7376013      28.82%
 2     integrate ortho    CPU                                7376013      28.82%
 3     collocate ortho    CPU                                4741650      18.53%
 3     integrate ortho    CPU                                4741650      18.53%
 4     collocate ortho    CPU                                 673857       2.63%
 4     integrate ortho    CPU                                 673857       2.63%
 0     collocate general  CPU                                   6144       0.02%
 -------------------------------------------------------------------------------

 MEMORY| Estimated peak process memory [MiB]                                 594

 -------------------------------------------------------------------------------
 -                                                                             -
 -                         MESSAGE PASSING PERFORMANCE                         -
 -                                                                             -
 -------------------------------------------------------------------------------

 ROUTINE             CALLS      AVE VOLUME [Bytes]
 MP_Group                5
 MP_Bcast             2784                 140270.
 MP_Allreduce         7388                    939.
 MP_Sync                 5
 MP_Alltoall           244                9443787.
 MP_SendRecv           837                  18832.
 MP_ISendRecv          837                  18832.
 MP_Wait              2391
 MP_ISend             1406                 108579.
 MP_IRecv             1406                 108603.
 -------------------------------------------------------------------------------


 -------------------------------------------------------------------------------
 -                                                                             -
 -                           R E F E R E N C E S                               -
 -                                                                             -
 -------------------------------------------------------------------------------
 
 CP2K version 2024.3 (Development Version), the CP2K developers group (2024).
 CP2K is freely available from https://www.cp2k.org/ .
 
 T. D. Kuehne, M. Iannuzzi, M. Del Ben, V. V. Rybkin, P. Seewald, F. Stein, T. 
 Laino, R. Z. Khaliullin, O. Schuett, F. Schiffmann, D. Golze, J. Wilhelm, S. 
 Chulkov, M. H. Bani-Hashemian, V. Weber, U. Borstnik, M. Taillefumier, A. S. 
 Jakobovits, A. Lazzaro, H. Pabst, T. Mueller, R. Schade, M. Guidon, S. 
 Andermatt, N. Holmberg, G. K. Schenter, A. Hehn, A. Bussy, F. Belleflamme, G. 
 Tabacchi, A. Gloess, M. Lass, I. Bethune, C. J. Mundy, C. Plessl, M. Watkins, 
 J. VandeVondele, M. Krack, J. Hutter.
 J. Chem. Phys. 152, 194103 (2020).
 CP2K: An electronic structure and molecular dynamics software package - 
 Quickstep: Efficient and accurate electronic structure calculations.
 https://doi.org/10.1063/5.0007045

 O. Schuett, P. Messmer, J. Hutter, J. VandeVondele.
 Electronic Structure Calculations on Graphics Processing Units, 173-190 (2016).
 GPU-Accelerated Sparse Matrix-Matrix Multiplication for Linear Scaling Density 
 Functional Theory.
 https://doi.org/10.1002/9781118670712.ch8

 A. Heinecke, G. Henry, M. Hutchinson, H. Pabst.
 Proceedings of Intl. Supercomputing Conference, 981-991 (2016).
 LIBXSMM: Accelerating Small Matrix Multiplications by Runtime Code Generation.
 https://doi.org/10.1109/SC.2016.83

 J. Hutter, M. Iannuzzi, F. Schiffmann, J. VandeVondele.
 WIREs Comput Mol Sci. 4, 15-25 (2014).
 CP2K: atomistic simulations of condensed matter systems.
 https://doi.org/10.1002/wcms.1159

 U. Borstnik, J. VandeVondele, V. Weber, J. Hutter.
 Parallel Comput. 40, 47-58 (2014).
 Sparse matrix multiplication: The distributed block-compressed sparse row 
 library.
 https://doi.org/10.1016/j.parco.2014.03.012

 A. Marek, V. Blum, R. Johanni, V. Havu, B. Lang, T. Auckenthaler, A. Heinecke, 
 H. Bungartz, H. Lederer.
 J. Phys. Condens. Matter 26, 213201 (2014).
 The ELPA library: scalable parallel eigenvalue solutions for electronic 
 structure theory and computational science.
 https://doi.org/10.1088/0953-8984/26/21/213201

 J. VandeVondele, U. Borstnik, J. Hutter.
 J. Chem. Theory Comput. 8, 3565-3573 (2012).
 Linear Scaling Self-Consistent Field Calculations with Millions of Atoms in the 
 Condensed Phase.
 https://doi.org/10.1021/ct200897x

 J. VandeVondele, J. Hutter.
 J. Chem. Phys. 127, 114105 (2007).
 Gaussian basis sets for accurate calculations on molecular systems in gas and 
 condensed phases.
 https://doi.org/10.1063/1.2770708

 J. VandeVondele, M. Krack, F. Mohamed, M. Parrinello, T. Chassaing, J. Hutter.
 Comput. Phys. Commun. 167, 103-128 (2005).
 QUICKSTEP: Fast and accurate density functional calculations using a mixed 
 Gaussian and plane waves approach.
 https://doi.org/10.1016/j.cpc.2004.12.014

 M. Krack.
 Theor. Chem. Acc. 114, 145-152 (2005).
 Pseudopotentials for H to Kr optimized for gradient-corrected 
 exchange-correlation functionals.
 https://doi.org/10.1007/s00214-005-0655-y

 M. Frigo, S. G. Johnson.
 Proc. IEEE 93, 216-231 (2005).
 The design and implementation of FFTW3.
 https://doi.org/10.1109/JPROC.2004.840301

 A. M. N. Niklasson, C. J. Tymczak, M. Challacombe.
 J. Chem. Phys. 118, 8611-8620 (2003).
 Trace resetting density matrix purification in O(N) self-consistent-field 
 theory.
 https://doi.org/10.1063/1.1559913

 C. Hartwigsen, S. Goedecker, J. Hutter.
 Phys. Rev. B 58, 3641-3662 (1998).
 Relativistic separable dual-space Gaussian pseudopotentials from H to Rn.
 https://doi.org/10.1103/PhysRevB.58.3641

 G. Lippert, J. Hutter, M. Parrinello.
 Mol. Phys. 92, 477-487 (1997).
 A hybrid Gaussian and plane wave density functional scheme.
 https://doi.org/10.1080/002689797170220

 S. Goedecker, M. Teter, J. Hutter.
 Phys. Rev. B 54, 1703-1710 (1996).
 Separable dual-space Gaussian pseudopotentials.
 https://doi.org/10.1103/PhysRevB.54.1703

 J. P. Perdew, K. Burke, M. Ernzerhof.
 Phys. Rev. Lett. 77, 3865-3868 (1996).
 Generalized gradient approximation made simple.
 https://doi.org/10.1103/PhysRevLett.77.3865


 -------------------------------------------------------------------------------
 -                                                                             -
 -                                T I M I N G                                  -
 -                                                                             -
 -------------------------------------------------------------------------------
 SUBROUTINE                       CALLS  ASD         SELF TIME        TOTAL TIME
                                MAXIMUM       AVERAGE  MAXIMUM  AVERAGE  MAXIMUM
 CP2K                                 1  1.0    0.012    0.015   20.353   20.353
 qs_energies                          1  2.0    0.000    0.000   20.203   20.203
 ls_scf                               1  3.0    0.000    0.000   19.200   19.201
 ls_scf_main                          1  4.0    0.000    0.000   16.667   16.667
 ls_scf_dm_to_ks                      8  5.0    0.000    0.000   12.352   12.354
 qs_ks_update_qs_env                  9  6.1    0.000    0.000    7.778    7.780
 rebuild_ks_matrix                    9  7.1    0.000    0.000    7.772    7.773
 qs_ks_build_kohn_sham_matrix         9  8.1    0.002    0.002    7.771    7.773
 qs_rho_update_rho_low                9  6.1    0.000    0.000    6.121    6.123
 calculate_rho_elec                   9  7.1    0.003    0.003    6.120    6.123
 sum_up_and_integrate                 9  9.1    0.000    0.000    5.884    5.886
 integrate_v_rspace                   9 10.1    0.000    0.000    5.876    5.879
 grid_collocate_task_list             9  8.1    5.414    5.501    5.414    5.501
 grid_integrate_task_list             9 11.1    5.177    5.273    5.177    5.273
 dbcsr_multiply_generic             246  6.2    0.012    0.013    4.626    4.632
 density_matrix_trs4                  8  5.0    0.004    0.006    4.309    4.312
 multiply_cannon                    246  7.2    0.018    0.024    3.755    3.809
 multiply_cannon_loop               246  8.2    0.019    0.021    3.680    3.748
 ls_scf_init_scf                      1  4.0    0.000    0.000    2.472    2.472
 multiply_cannon_multrec           1968  9.2    2.092    2.155    2.099    2.162
 mp_waitall_1                     16729 10.5    1.723    1.828    1.723    1.828
 fft_wrap_pw1pw2                    172 11.3    0.003    0.004    1.758    1.778
 fft_wrap_pw1pw2_200                100 12.8    0.102    0.109    1.687    1.715
 qs_vxc_create                        9  9.1    0.000    0.000    1.544    1.572
 xc_vxc_pw_create                     9 10.1    0.013    0.020    1.543    1.572
 ls_scf_initial_guess                 1  5.0    0.000    0.000    1.551    1.552
 ls_scf_qs_atomic_guess               1  6.0    0.000    0.000    1.551    1.552
 multiply_cannon_metrocomm3        1968  9.2    0.005    0.006    1.345    1.453
 fft3d_ps                           172 13.3    0.713    0.787    1.322    1.359
 xc_pw_derive                        54 12.1    0.001    0.001    1.096    1.177
 qs_energies_init_hamiltonians        1  3.0    0.000    0.000    1.002    1.002
 ls_scf_init_matrix_S                 1  5.0    0.000    0.000    0.921    0.922
 matrix_sqrt_Newton_Schulz            1  6.0    0.001    0.001    0.897    0.898
 build_core_hamiltonian_matrix        1  4.0    0.000    0.000    0.694    0.814
 xc_rho_set_and_dset_create           9 11.1    0.019    0.024    0.776    0.796
 xc_pw_divergence                     9 11.1    0.000    0.000    0.735    0.782
 density_rs2pw                        9  8.1    0.000    0.000    0.673    0.781
 make_m2s                           492  7.2    0.005    0.006    0.678    0.690
 make_images                        492  8.2    0.039    0.040    0.668    0.680
 mp_waitany                        1406 12.5    0.501    0.640    0.501    0.640
 mp_alltoall_z22v                   172 15.3    0.433    0.635    0.433    0.635
 potential_pw2rs                      9 11.1    0.001    0.001    0.596    0.598
 transfer_rs2pw                      46  9.0    0.001    0.001    0.431    0.572
 build_core_ppl                       1  5.0    0.473    0.565    0.473    0.565
 arnoldi_extremal                     9  6.1    0.000    0.000    0.493    0.494
 arnoldi_normal_ev                    9  7.1    0.000    0.001    0.492    0.493
 transfer_rs2pw_200                  10  9.8    0.029    0.038    0.327    0.465
 build_subspace                      44  8.1    0.003    0.004    0.435    0.436
 yz_to_x                             64 14.2    0.059    0.075    0.283    0.416
 -------------------------------------------------------------------------------

 The number of warnings for this run is : 1
 
 -------------------------------------------------------------------------------
  **** **** ******  **  PROGRAM ENDED AT                 2024-09-23 17:30:30.683
 ***** ** ***  *** **   PROGRAM RAN ON                                    moritz
 **    ****   ******    PROGRAM RAN BY                                       ole
 ***** **    ** ** **   PROGRAM PROCESS ID                                154947
  **** **  *******  **  PROGRAM STOPPED IN /home/ole/git/pao_ml_equivar/64H2O_MD
                                           /Frame0300
