     192
 i =      300, time =      450.000, E =     -1100.0326826476
  O         5.2719425614       -5.3285076886        4.8623348209
  H         6.0774779800       -5.8243047119        4.7398848083
  H         5.1123186619       -4.9931046890        5.7436020560
  O        -3.6240944783        2.7875903067        4.7763043983
  H        -4.0443534823        1.9176584299        4.6027583765
  H        -4.3164624269        3.2313716073        5.2768500875
  O         4.9992158446        3.2786573796        4.9371413095
  H         4.0846705403        3.2926610522        5.1442671509
  H         5.0650467402        2.8939107754        4.0507527178
  O        -2.6561105208       -0.3567159478       -3.9201612143
  H        -2.0596099582        0.1471413977       -3.3262674827
  H        -2.0473578493       -0.7805784082       -4.5402897851
  O        -5.3823725133        4.7854425871        5.8775413110
  H        -6.2360299266        4.4682682428        5.5388356482
  H        -4.9363077712        5.1721145268        5.1213563037
  O         6.5853699104        0.9065200066        2.7274669124
  H         7.2072676315        0.1903862676        2.8535547503
  H         7.2151656267        1.5058220189        2.2826099205
  O         3.8111122213       -4.8875479304       -0.5891825218
  H         3.5320539019       -4.2956317342        0.1468465377
  H         3.6340262745       -4.4480662149       -1.3970141271
  O        -2.6118273020       -3.6973659747       -1.7289095089
  H        -3.4682556743       -3.5420401934       -2.1756867864
  H        -2.1229501919       -2.8587214596       -1.6293975507
  O         6.2427765280       -3.5257179811        2.6251206413
  H         6.1235716498       -4.0032856256        3.4501632904
  H         5.3891904828       -3.5425423336        2.2212058814
  O         2.3833211398        3.7726836084        5.5245562640
  H         1.7108475740        3.2171432762        5.2143870840
  H         2.1271736150        4.2495597796        6.3017385365
  O         3.9488245368       -2.9974324334       -2.8596902576
  H         4.2557761812       -3.4000289379       -3.7554930012
  H         4.4363701453       -2.2363170071       -2.8177600265
  O         3.3130734394       -2.7380022951        1.0369110025
  H         2.8154674173       -2.7016578389        1.8663264274
  H         2.8849721202       -2.1671686798        0.3549201840
  O         1.6113783757       -5.1074714756       -5.4325400652
  H         1.5809703586       -6.0626675108       -5.2197255217
  H         1.1717110701       -4.8531255788       -6.3057764441
  O         3.5679662469        4.3148199344       -3.4451941232
  H         4.0111696242        3.3776026416       -3.4517876294
  H         3.5234748762        4.5316007173       -2.4911502770
  O         3.2641517106       -0.8882535309        4.8951147231
  H         4.1573574941       -1.1506976693        5.2548177614
  H         3.5089256881       -0.0831780758        4.3961703498
  O         0.3436578978        1.8869681648        5.4132871032
  H         0.6350365536        0.9781289364        5.6028339196
  H        -0.0871264373        1.8564724201        4.5542389847
  O         1.9170369078       -2.5839468428        3.4609012393
  H         2.3787892540       -2.0085500425        4.1029580566
  H         1.6271241233       -3.3971632332        3.9167281747
  O        -2.0535550410        3.4676329343        2.6036568064
  H        -1.4879115901        2.6195617280        2.4286273278
  H        -2.6632736593        3.1150292662        3.3023967806
  O         1.1409878124       -0.5485270067       -5.5996119940
  H         1.9697036837       -0.6599214854       -6.0712576086
  H         1.3275509797       -0.3020785118       -4.6517411852
  O        -0.7605681411       -1.6463114920       -0.4841919923
  H        -0.9305276183       -0.6815973298       -0.6941866397
  H        -0.5047559292       -1.7253596488        0.4760393922
  O        -3.6574310453        3.4260980770       -2.0958562542
  H        -3.7652508891        4.3842365499       -2.0481680533
  H        -2.7568221586        3.3969098362       -1.9382866746
  O         5.2709215245        5.3097389821        1.3185245021
  H         4.9110255240        4.4142017041        1.1366569136
  H         4.7384160802        5.5886892589        2.0630643070
  O         4.3807226427        1.5823408743       -3.5849063548
  H         4.8022754756        1.2456309820       -4.3910141894
  H         4.8160661957        1.0216744162       -2.9347393070
  O        -3.8178917054        6.0849394724       -2.2718413452
  H        -4.1280110214        6.5960809303       -1.4850137590
  H        -4.5585468913        6.1266968998       -2.8734775796
  O         5.1779763139       -0.3042931847        0.6296609755
  H         5.8065373628        0.1794889849        1.2128299672
  H         4.9698132459       -1.0796407316        1.0835473868
  O         2.1851004206        0.8764632390        0.2096578650
  H         3.0749215016        1.1962342949        0.1536971447
  H         2.0552784883        0.0983100775       -0.3583062955
  O        -5.6466425469       -4.7219152359       -0.9428218524
  H        -6.6159988036       -4.6818141301       -1.0853084724
  H        -5.5467907779       -4.4737990475        0.0284027667
  O        -4.5596228698        5.5411692374        1.3131555113
  H        -5.5563663622        5.5469508016        1.4383529352
  H        -4.3293587365        4.5859386132        1.4803649170
  O         6.0303170665        1.4305613741       -5.6325769674
  H         6.9910435703        1.4972183071       -5.4863298096
  H         5.7131033452        2.0383659171       -6.3550036143
  O         1.9315155133       -1.6959671014       -1.2268838925
  H         2.3105057186       -2.4733502483       -1.6624486901
  H         0.9861814145       -1.9643788371       -1.1097514385
  O         4.2359810919        2.6166538622        0.2642575331
  H         5.0904482080        2.4766381248       -0.1406030972
  H         3.6565325594        3.1592611095       -0.3137491513
  O        -0.3887445129       -1.5186469069        2.4156121230
  H         0.3885917271       -2.0836547827        2.7250218154
  H        -1.1664418098       -2.0361956280        2.7180407398
  O         1.5798998202       -6.4022451243        1.7177289623
  H         1.9244133623       -6.8053515653        0.8966902757
  H         2.3641931197       -6.4114724603        2.3156333049
  O         0.1789605005       -4.0850163914       -3.1870816102
  H        -0.7260851417       -4.3959486776       -3.2108252996
  H         0.6451584669       -4.3361735877       -3.9669760427
  O        -4.2951374659        2.6309574458        1.2701086020
  H        -3.3225554982        2.6288925950        1.1554216532
  H        -4.6233540313        2.4962669908        0.3502504969
  O         4.0479382190       -4.1044197257       -5.2851296388
  H         3.0786508286       -4.4664607424       -5.2452825274
  H         3.9545324103       -3.2610149909       -5.7770758644
  O        -0.7070177616        3.6681999973       -2.5240081890
  H        -0.8139315638        3.6339616750       -3.5333954586
  H        -0.2079046012        4.5148119657       -2.3600856402
  O        -4.4577423670       -6.0322504132        4.0044105896
  H        -4.1984130225       -5.1643247542        3.7668406051
  H        -4.5417740147       -6.4022999801        3.0948066626
  O         3.5440123501        5.6633810670        3.6341834927
  H         4.1080287639        6.2103402065        4.1226475652
  H         3.1472734372        5.1661996970        4.3208321559
  O        -3.8189521821        2.4454832956       -4.7248126794
  H        -3.3738300106        1.6065678106       -4.4277003577
  H        -3.8726043734        2.9739591503       -3.8834516519
  O         3.6482959862        1.4941480472        3.2972792439
  H         2.8584903899        1.6936425971        2.7925965493
  H         4.3367323193        1.1492429616        2.6718700282
  O        -4.2758712971       -1.1042874319        3.6541023422
  H        -5.0612714991       -1.6015009148        3.8473165328
  H        -3.6578825470       -1.7439190374        3.4487740002
  O        -0.1521969841        1.2096579763        2.4379064270
  H         0.6260522444        1.2448354115        1.8422416027
  H        -0.3347930885        0.2677347915        2.4082466894
  O        -1.7131584290        4.9665662516        0.3500675273
  H        -1.6050916095        4.5056929067        1.1554203926
  H        -1.8638622316        5.8658573031        0.7355747143
  O        -0.8066520184       -1.9126002130       -5.3019027773
  H        -0.5368443986       -2.3977083772       -4.4645304284
  H         0.0800938303       -1.4816487406       -5.5429833902
  O        -5.9038881150        2.2278289135       -1.1426960631
  H        -5.1259640048        2.5568096196       -1.5995981584
  H        -6.0289774533        1.3347173921       -1.4315020394
  O         5.6129240163       -0.4104252767       -2.1265157408
  H         6.2843001116       -0.8796724467       -2.6577737098
  H         5.8293127729       -0.7844110897       -1.2353046224
  O        -0.6227954515        0.8106835301       -2.2460949633
  H        -0.7032262850        1.7930559030       -2.0634520340
  H         0.3463351430        0.6397548409       -2.5309698704
  O         0.1931520470        5.9569709374       -1.5639750666
  H         0.0444760926        6.8818604885       -1.7422792197
  H        -0.3809171560        5.7443093784       -0.7322885514
  O         5.9826946021       -1.5166175821        5.8073909703
  H         6.6814064988       -2.1417740640        6.0486879838
  H         6.2349019263       -0.6661614634        6.1975487839
  O        -2.0540073900       -5.6138833962       -4.5203240740
  H        -1.8526712181       -6.5365167875       -4.7057822783
  H        -2.5786281889       -5.5621853643       -3.7197544005
  O        -4.7635899391       -2.0466735689       -3.3249942910
  H        -4.7320818366       -2.6183582615       -4.1371690084
  H        -4.0013209830       -1.4098369367       -3.3228046672
  O         2.8020406528        5.1357983513       -0.9690120639
  H         1.8486410222        5.4256145688       -1.1351802432
  H         3.2260737162        5.9956352234       -0.8433271877
  O        -4.6917929172       -3.5760546307       -5.5697991180
  H        -3.8540836164       -3.9328381035       -5.9112190691
  H        -5.1704370220       -4.4635420735       -5.3765845683
  O        -0.5328648524        6.0967544592        3.3517770592
  H        -0.8323107145        5.1823093899        3.3237733672
  H         0.1107074518        6.0987860366        2.6255457315
  O        -2.0569961422       -3.9485260211       -6.5236185528
  H        -1.8864984850       -4.6053154294       -5.7656343758
  H        -1.7349468546       -3.0706288930       -6.0659294519
  O        -2.4566942511       -3.4226726756        3.1778679973
  H        -2.3584712259       -3.8679543726        4.0391179287
  H        -2.2332217237       -4.1039904289        2.4911340117
  O         1.3996002490        4.8438894081       -4.7699305019
  H         2.0651312167        4.5179951079       -4.1318284017
  H         0.5533188966        4.4915192266       -4.6144084722
  O         2.1078895306        0.3124649881       -3.2615630176
  H         2.1716618715       -0.3638855324       -2.5947808486
  H         2.9432309661        0.8077456652       -3.4156011068
  O        -1.2299414097        3.3480573743        7.2688448326
  H        -0.9732481905        2.9739397496        6.4121384273
  H        -2.2234785187        3.2111538544        7.2907922315
  O         0.3124528608       -4.2610315020        0.5476049294
  H         0.8502089357       -4.9614395186        0.9756461053
  H        -0.6343012052       -4.4663336499        0.6154861327
  O         6.6705230080        6.6889574983        7.9748090499
  H         5.8542982157        6.6594502790        8.4850906400
  H         6.7141976067        5.8769954592        7.4171574634
  O         0.4657179902       -4.4636392416        4.8136368451
  H         0.1113466265       -5.2567779364        4.3330612089
  H        -0.3843127072       -4.2624491398        5.2255434434
  O        -2.7495351537       -4.8623515645        0.9176748138
  H        -3.5834946243       -5.3132293669        1.1541140929
  H        -2.8539227232       -4.4575380028        0.0510215864
