 DBCSR| CPU Multiplication driver                                           XSMM (U)
 DBCSR| Multrec recursion limit                                              512 (U)
 DBCSR| Multiplication stack size                                           1000 (D)
 DBCSR| Maximum elements for images                                    UNLIMITED (U)
 DBCSR| Multiplicative factor virtual images                                   1 (U)
 DBCSR| Use multiplication densification                                       T (D)
 DBCSR| Multiplication size stacks                                             3 (U)
 DBCSR| Use memory pool for CPU allocation                                     F (U)
 DBCSR| OMP: Current number of threads                                         1
 DBCSR| OMP: Max number of threads                                             1
 DBCSR| Split modifier for TAS multiplication algorithm                  1.0E+00 (U)


  **** **** ******  **  PROGRAM STARTED AT               2023-02-01 10:45:19.662
 ***** ** ***  *** **   PROGRAM STARTED ON                                moritz
 **    ****   ******    PROGRAM STARTED BY                                   ole
 ***** **    ** ** **   PROGRAM PROCESS ID                                148569
  **** **  *******  **  PROGRAM STARTED IN /home/ole/git/pao_ml_equivar/2H2O_rot
                                           ations/phi_09

 CP2K| version string:                 CP2K version 2023.1 (Development Version)
 CP2K| source code revision number:                                  git:03b4147
 CP2K| cp2kflags: omp libint fftw3 libxc quip xsmm spglib libvori libbqb libtorc
 CP2K|            h
 CP2K| is freely available from                            https://www.cp2k.org/
 CP2K| Program compiled at                           Mi 01 Feb 2023 10:36:52 CET
 CP2K| Program compiled on                                                moritz
 CP2K| Program compiled for                                                local
 CP2K| Data directory path                               /home/ole/git/cp2k/data
 CP2K| Input file name                                            2H2O_pao44.inp

 GLOBAL| Force Environment number                                              1
 GLOBAL| Basis set file name                                        BASIS_MOLOPT
 GLOBAL| Potential file name                                      GTH_POTENTIALS
 GLOBAL| MM Potential file name                                     MM_POTENTIAL
 GLOBAL| Coordinate file name                                         coords.xyz
 GLOBAL| Method name                                                        CP2K
 GLOBAL| Project name                                                 2H2O_pao44
 GLOBAL| Run type                                                         ENERGY
 GLOBAL| FFT library                                                       FFTW3
 GLOBAL| Diagonalization library                                       ScaLAPACK
 GLOBAL| DGEMM library                                                      BLAS
 GLOBAL| Orthonormality check for eigenvectors                          DISABLED
 GLOBAL| Matrix multiplication library                                 ScaLAPACK
 GLOBAL| All-to-all communication in single precision                          F
 GLOBAL| FFTs using library dependent lengths                                  F
 GLOBAL| Grid backend                                                       AUTO
 GLOBAL| Global print level                                                  LOW
 GLOBAL| MPI I/O enabled                                                       T
 GLOBAL| Total number of message passing processes                             1
 GLOBAL| Number of threads for this process                                    1
 GLOBAL| This output is from process                                           0
 GLOBAL| Stack size for threads created by OpenMP (OMP_STACKSIZE)        default
 GLOBAL| CPU model name           AMD Ryzen Threadripper 3970X 32-Core Processor
 GLOBAL| CPUID                                                              1002
 GLOBAL| Compiled for CPUID                                                    0

 *** HINT in environment.F:884 :: The compiler target flags (generic) used ***
 *** to build this binary cannot exploit all extensions of this CPU model  ***
 *** (x86_avx2). Consider compiler target flags as part of FCFLAGS and     ***
 *** CFLAGS (ARCH file).                                                   ***


 MEMORY| system memory details [Kb]
 MEMORY|                        rank 0           min           max       average
 MEMORY| MemTotal            131773860     131773860     131773860     131773860
 MEMORY| MemFree             118695816     118695816     118695816     118695816
 MEMORY| Buffers                301580        301580        301580        301580
 MEMORY| Cached                7018548       7018548       7018548       7018548
 MEMORY| Slab                   776140        776140        776140        776140
 MEMORY| SReclaimable           331304        331304        331304        331304
 MEMORY| MemLikelyFree       126347248     126347248     126347248     126347248


 GENERATE|  Preliminary Number of Bonds generated:                             0
 GENERATE|  Achieved consistency in connectivity generation.

 *******************************************************************************
 *******************************************************************************
 **                                                                           **
 **     #####                         ##              ##                      **
 **    ##   ##            ##          ##              ##                      **
 **   ##     ##                       ##            ######                    **
 **   ##     ##  ##   ##  ##   #####  ##  ##   ####   ##    #####    #####    **
 **   ##     ##  ##   ##  ##  ##      ## ##   ##      ##   ##   ##  ##   ##   **
 **   ##  ## ##  ##   ##  ##  ##      ####     ###    ##   ######   ######    **
 **    ##  ###   ##   ##  ##  ##      ## ##      ##   ##   ##       ##        **
 **     #######   #####   ##   #####  ##  ##  ####    ##    #####   ##        **
 **           ##                                                    ##        **
 **                                                                           **
 **                                                ... make the atoms dance   **
 **                                                                           **
 **            Copyright (C) by CP2K developers group (2000-2023)             **
 **                      J. Chem. Phys. 152, 194103 (2020)                    **
 **                                                                           **
 *******************************************************************************


 TOTAL NUMBERS AND MAXIMUM NUMBERS

  Total number of            - Atomic kinds:                                   2
                             - Atoms:                                          6
                             - Shell sets:                                     6
                             - Shells:                                        22
                             - Primitive Cartesian functions:                 42
                             - Cartesian basis functions:                     48
                             - Spherical basis functions:                     46

  Maximum angular momentum of- Orbital basis functions:                        2
                             - Local part of the GTH pseudopotential:          2
                             - Non-local part of the GTH pseudopotential:      0

 ------------------------------ Linear scaling SCF -----------------------------
 eps_scf:                                                              0.100E-07
 eps_filter:                                                           0.100E-07
 mixing_fraction:                                                      0.450E+00
 max_scf:                                                                     25
 fixed chemical potential (mu)                                                 F
 has unit metric:                                                              F
 Computing inv(S):                                                             T
 Computing sqrt(S):                                                            T
 Computing S preconditioner                                                    F
 S sqrt method:                                                     NEWTONSCHULZ
 S sqrt order:                                                                 3
 Extrapolation order:                                                          1
 Use single precision matrices                                                 F
 S preconditioner type                                                      NONE
 Polarized Atomic Orbitals (PAO)                                               T
 Purification method                                   Trace resetting 4th order
 Cluster type                                                             ATOMIC
 Computing Chebyshev                                                       FALSE
 Using PAO                                                                     T
 -------------------------------------------------------------------------------

 
 PAO|                                  EPS_PAO                           0.1E-04
 PAO|                                  MIXING                            0.5E+00
 PAO|                                  MAX_PAO                              1000
 PAO|                                  MAX_CYCLES                           1000
 PAO|                                  PARAMETERIZATION              EQUIVARIANT
 PAO|                                  PRECONDITION                            F
 PAO|                                  REGULARIZATION                    0.0E+00
 PAO|                                  EPS_PGF                           0.1E-09
 PAO|                                  PENALTY_DISTANCE                  0.1E+00
 PAO|                                  PENALTY_STRENGTH                  0.5E-02
 PAO|                                  LINPOT_PRECONDITION_DELTA         0.0E+00
 PAO|                                  LINPOT_INITGUESS_DELT             0.0E+00
 PAO|                                  LINPOT_REGULARIZATION_DELTA       0.0E+00
 PAO|                                  LINPOT_REGULARIZATION_STRENGTH    0.0E+00
 PAO|                                  OPTIMIZER                              CG
 PAO|                                  CG_INIT_STEPS                           2
 PAO|                                  CG_RESET_LIMIT                    0.1E+00
 PAO|                                  CHECK_UNITARY_TOL                -0.1E+01
 PAO|                                  CHECK_GRADIENT_TOL               -0.1E+01
 PAO|                                  NUM_GRADIENT_ORDER                      2
 PAO|                                  NUM_GRADIENT_EPS                  0.1E-07
 PAO|                                  PRINT%RESTART%WRITE_CYCLES            100
 PAO|                                  RESTART_FILE 
 PAO|                                  PREOPT_DM_FILE 2H2O_ref_LS_DM_SPIN_1_RESTART.dm
 PAO|                                  MACHINE_LEARNING%METHOD       GAUSSIAN_PR
 PAO|                                  MACHINE_LEARNING%PRIOR               ZERO
 PAO|                                  MACHINE_LEARNING%DESCRIPTOR     POTENTIAL
 PAO|                                  MACHINE_LEARNING%TOLERANCE        0.1E-01
 PAO|                                  MACHINE_LEARNING%GP_NOISE_VAR     0.1E+00
 PAO|                                  MACHINE_LEARNING%GP_SCALE         0.5E-01
 

 Calculating atomic Fock matrix for atomic kind: O

 Electronic structure
    Total number of core electrons                                          2.00
    Total number of valence electrons                                       6.00
    Total number of electrons                                               8.00
    Multiplicity                                                   not specified
    S   [  2.00] 2.00
    P      4.00


 *******************************************************************************
                  Iteration          Convergence                     Energy [au]
 *******************************************************************************
                          1        0.708315                     -15.576645311500
                          2        0.608879                     -15.587933561584
                          3        0.102828E-01                 -15.656849565404
                          4        0.113889E-02                 -15.656866888140
                          5        0.434197E-03                 -15.656867072159
                          6        0.263771E-03                 -15.656867091904
                          7        0.478536E-06                 -15.656867103452

 Energy components [Hartree]           Total Energy ::          -15.656867103452
                                        Band Energy ::           -3.000198112285
                                     Kinetic Energy ::           11.759971203220
                                   Potential Energy ::          -27.416838306672
                                      Virial (-V/T) ::            2.331369510426
                                        Core Energy ::          -26.140716385623
                                          XC Energy ::           -3.154051012914
                                     Coulomb Energy ::           13.637900295084
                       Total Pseudopotential Energy ::          -37.935781716540
                       Local Pseudopotential Energy ::          -39.218907440693
                    Nonlocal Pseudopotential Energy ::            1.283125724153
                                        Confinement ::            0.350941276976

 Orbital energies  State     L     Occupation   Energy[a.u.]          Energy[eV]

                       1     0          2.000      -0.864471          -23.523463

                       1     1          4.000      -0.317814           -8.648154


 Total Electron Density at R=0:                                         0.000068

 Calculating atomic Fock matrix for atomic kind: H

 Electronic structure
    Total number of core electrons                                          0.00
    Total number of valence electrons                                       1.00
    Total number of electrons                                               1.00
    Multiplicity                                                   not specified
    S      1.00


 *******************************************************************************
                  Iteration          Convergence                     Energy [au]
 *******************************************************************************
                          1        0.437545E-02                  -0.424159432110
                          2        0.531356E-03                  -0.424178438213
                          3        0.259176E-06                  -0.424178722480

 Energy components [Hartree]           Total Energy ::           -0.424178722480
                                        Band Energy ::           -0.199015229016
                                     Kinetic Energy ::            0.464007633961
                                   Potential Energy ::           -0.888186356441
                                      Virial (-V/T) ::            1.914163240935
                                        Core Energy ::           -0.479160803564
                                          XC Energy ::           -0.244352904054
                                     Coulomb Energy ::            0.299334985138
                       Total Pseudopotential Energy ::           -0.962295316385
                       Local Pseudopotential Energy ::           -0.962295316385
                    Nonlocal Pseudopotential Energy ::            0.000000000000
                                        Confinement ::            0.191268788606

 Orbital energies  State     L     Occupation   Energy[a.u.]          Energy[eV]

                       1     0          1.000      -0.199015           -5.415480


 Total Electron Density at R=0:                                         0.242907
 PAO| Made initial guess for matrix_X with norm:   4.8989794855663558     

     Lanczos converged:  T threshold:   0.100E-02
     Est. extremal eigenvalues:    0.335E+01   0.115E+00
     Est. condition number :    0.293E+02

 Order=           3
     NS sqrt iter    1 1.00000000   0.820E+00       0.001       64.512
     NS sqrt iter    2 1.00000000   0.440E+00       0.001      110.592
     NS sqrt iter    3 1.00000000   0.170E+00       0.001      110.592
     NS sqrt iter    4 1.00000000   0.206E-01       0.001      110.592
     NS sqrt iter    5 1.00000000   0.529E-04       0.001       90.112
     Symmetrizing Results
     Final NS sqrt iter    5 1.00000000   0.315E-08

 PAO| Read restart DM 2H2O_ref_LS_DM_SPIN_1_RESTART.dm with checksum:    71.646953411458895     
 PAO| Quickstep energy from restart density:  -34.450459161177250     
 PAO| ======================= Iteration:         1 =============================

     Lanczos converged:  T threshold:   0.100E-02
     Est. extremal eigenvalues:    0.335E+01   0.115E+00
     Est. condition number :    0.293E+02

 Order=           3
     NS sqrt iter    1 1.00000000   0.820E+00       0.001       64.512
     NS sqrt iter    2 1.00000000   0.440E+00       0.001      110.592
     NS sqrt iter    3 1.00000000   0.170E+00       0.001      110.592
     NS sqrt iter    4 1.00000000   0.206E-01       0.001      110.592
     NS sqrt iter    5 1.00000000   0.529E-04       0.001       90.112
     Symmetrizing Results
     Final NS sqrt iter    5 1.00000000   0.315E-08

     Est. extremal eigenvalues     -0.92031     1.88447  converged:  T
     TRS4 it   1 1.00000000   0.881E+00       0.000       16.128   0.100E-07
     TRS4 it   2 1.00000000   0.691E+00       0.000       32.256   0.100E-07
     TRS4 it   3 1.00000000   0.499E+00       0.000       32.256   0.100E-07
     TRS4 it   4 1.00000000   0.313E+00       0.000       32.256   0.100E-07
     TRS4 it   5 1.00000000   0.155E+00       0.000       32.256   0.100E-07
     TRS4 it   6 1.00000000   0.487E-01       0.000       32.256   0.100E-07
     TRS4 it   7 1.00000000   0.676E-02       0.000       32.256   0.100E-07
     TRS4 it   8 1.00000000   0.183E-03       0.000       32.256   0.100E-07
     TRS4 it   9 1.00000000   0.149E-06       0.000       32.256   0.100E-07
     TRS4 it  10 1.00000000   0.101E-12       0.000       32.256   0.100E-07
     Final TRS4 iteration   10 1.00000000   0.101E-12
     Chemical potential (mu):      -0.06591
 
 PAO| energy:  -7.6274026052157016      penalty:   3.8210450096642766E-033
 PAO|CG| warming up with steepest descent
 PAO|CG| beta:    0.0000000000000000     
 PAO| norm of gradient:  0.78340129218856547     
 PAO|LS| adapt:  T F F
 PAO|LS| adapt: scan_steps:    0.0000000000000000        0.0000000000000000        0.0000000000000000     
 PAO|LS| adapt: energies:   -7.6274026052157016        0.0000000000000000        0.0000000000000000     
 PAO| ======================= Iteration:         2 =============================

     Lanczos converged:  T threshold:   0.100E-02
     Est. extremal eigenvalues:    0.327E+01   0.127E+00
     Est. condition number :    0.256E+02

 Order=           3
     NS sqrt iter    1 1.00000000   0.803E+00       0.001       64.512
     NS sqrt iter    2 1.00000000   0.425E+00       0.001      110.592
     NS sqrt iter    3 1.00000000   0.153E+00       0.001      110.592
     NS sqrt iter    4 1.00000000   0.142E-01       0.001      110.592
     NS sqrt iter    5 1.00000000   0.166E-04       0.001       82.944
     Symmetrizing Results
     Final NS sqrt iter    5 1.00000000   0.416E-09

     Est. extremal eigenvalues     -0.92398     1.82901  converged:  T
     TRS4 it   1 1.00000000   0.877E+00       0.000       16.128   0.100E-07
     TRS4 it   2 1.00000000   0.672E+00       0.000       32.256   0.100E-07
     TRS4 it   3 1.00000000   0.483E+00       0.000       32.256   0.100E-07
     TRS4 it   4 1.00000000   0.292E+00       0.000       32.256   0.100E-07
     TRS4 it   5 1.00000000   0.135E+00       0.000       32.256   0.100E-07
     TRS4 it   6 1.00000000   0.374E-01       0.000       32.256   0.100E-07
     TRS4 it   7 1.00000000   0.404E-02       0.000       32.256   0.100E-07
     TRS4 it   8 1.00000000   0.659E-04       0.000       32.256   0.100E-07
     TRS4 it   9 1.00000000   0.193E-07       0.000       32.256   0.100E-07
     Final TRS4 iteration    9 1.00000000   0.193E-07
     Chemical potential (mu):      -0.05385
 
 PAO| energy:  -7.6828954654270500      penalty:   2.2479023806091418E-008
 PAO|LS| adapt:  T T F
 PAO|LS| adapt: scan_steps:    0.0000000000000000       0.10000000000000001        0.0000000000000000     
 PAO|LS| adapt: energies:   -7.6274026052157016       -7.6828954654270500        0.0000000000000000     
 PAO| ======================= Iteration:         3 =============================

     Lanczos converged:  T threshold:   0.100E-02
     Est. extremal eigenvalues:    0.317E+01   0.139E+00
     Est. condition number :    0.228E+02

 Order=           3
     NS sqrt iter    1 1.00000000   0.786E+00       0.001       64.512
     NS sqrt iter    2 1.00000000   0.408E+00       0.001      110.592
     NS sqrt iter    3 1.00000000   0.136E+00       0.001      110.592
     NS sqrt iter    4 1.00000000   0.974E-02       0.001      110.592
     NS sqrt iter    5 1.00000000   0.542E-05       0.001       82.944
     Symmetrizing Results
     Final NS sqrt iter    5 1.00000000   0.446E-10

     Est. extremal eigenvalues     -0.92741     1.78405  converged:  T
     TRS4 it   1 1.00000000   0.874E+00       0.000       16.128   0.100E-07
     TRS4 it   2 1.00000000   0.655E+00       0.000       32.256   0.100E-07
     TRS4 it   3 1.00000000   0.467E+00       0.000       32.256   0.100E-07
     TRS4 it   4 1.00000000   0.272E+00       0.000       32.256   0.100E-07
     TRS4 it   5 1.00000000   0.117E+00       0.000       32.256   0.100E-07
     TRS4 it   6 1.00000000   0.278E-01       0.000       32.256   0.100E-07
     TRS4 it   7 1.00000000   0.223E-02       0.000       32.256   0.100E-07
     TRS4 it   8 1.00000000   0.201E-04       0.000       32.256   0.100E-07
     TRS4 it   9 1.00000000   0.179E-08       0.000       32.256   0.100E-07
     Final TRS4 iteration    9 1.00000000   0.179E-08
     Chemical potential (mu):      -0.04081
 
 PAO| energy:  -7.7259711380354803      penalty:   3.5966403738450988E-007
 PAO|LS| adapt:  T T F
 PAO|LS| adapt: scan_steps:    0.0000000000000000       0.20000000000000001        0.0000000000000000     
 PAO|LS| adapt: energies:   -7.6274026052157016       -7.7259711380354803        0.0000000000000000     
 PAO| ======================= Iteration:         4 =============================

     Lanczos converged:  T threshold:   0.100E-02
     Est. extremal eigenvalues:    0.298E+01   0.157E+00
     Est. condition number :    0.189E+02

 Order=           3
     NS sqrt iter    1 1.00000000   0.749E+00       0.001       64.512
     NS sqrt iter    2 1.00000000   0.374E+00       0.001      110.592
     NS sqrt iter    3 1.00000000   0.106E+00       0.001      110.592
     NS sqrt iter    4 1.00000000   0.473E-02       0.001      110.592
     NS sqrt iter    5 1.00000000   0.755E-06       0.001       82.944
     Symmetrizing Results
     Final NS sqrt iter    5 1.00000000   0.946E-12

     Est. extremal eigenvalues     -0.93274     1.71830  converged:  T
     TRS4 it   1 1.00000000   0.868E+00       0.000       16.128   0.100E-07
     TRS4 it   2 1.00000000   0.628E+00       0.000       32.256   0.100E-07
     TRS4 it   3 1.00000000   0.437E+00       0.000       32.256   0.100E-07
     TRS4 it   4 1.00000000   0.235E+00       0.000       32.256   0.100E-07
     TRS4 it   5 1.00000000   0.850E-01       0.000       32.256   0.100E-07
     TRS4 it   6 1.00000000   0.142E-01       0.000       32.256   0.100E-07
     TRS4 it   7 1.00000000   0.552E-03       0.000       32.256   0.100E-07
     TRS4 it   8 1.00000000   0.120E-05       0.000       32.256   0.100E-07
     TRS4 it   9 1.00000000   0.643E-11       0.000       32.256   0.100E-07
     Final TRS4 iteration    9 1.00000000   0.643E-11
     Chemical potential (mu):      -0.01204
 
 PAO| energy:  -7.7732419841583980      penalty:   5.7546218500531286E-006
 PAO|LS| Need extra step
 PAO|LS| adapt:  T T F
 PAO|LS| adapt: scan_steps:    0.0000000000000000       0.40000000000000002        0.0000000000000000     
 PAO|LS| adapt: energies:   -7.6274026052157016       -7.7732419841583980        0.0000000000000000     
 PAO| ======================= Iteration:         5 =============================

     Lanczos converged:  T threshold:   0.100E-02
     Est. extremal eigenvalues:    0.263E+01   0.185E+00
     Est. condition number :    0.142E+02

 Order=           3
     NS sqrt iter    1 1.00000000   0.687E+00       0.001       64.512
     NS sqrt iter    2 1.00000000   0.313E+00       0.001      110.592
     NS sqrt iter    3 1.00000000   0.653E-01       0.001      110.592
     NS sqrt iter    4 1.00000000   0.130E-02       0.001      110.592
     NS sqrt iter    5 1.00000000   0.210E-07       0.001       55.680
     Symmetrizing Results
     Final NS sqrt iter    5 1.00000000   0.229E-08

     Est. extremal eigenvalues     -0.93401     1.64476  converged:  T
     TRS4 it   1 1.00000000   0.862E+00       0.000       16.128   0.100E-07
     TRS4 it   2 1.00000000   0.590E+00       0.000       32.256   0.100E-07
     TRS4 it   3 1.00000000   0.388E+00       0.000       32.256   0.100E-07
     TRS4 it   4 1.00000000   0.178E+00       0.000       32.256   0.100E-07
     TRS4 it   5 1.00000000   0.450E-01       0.000       32.256   0.100E-07
     TRS4 it   6 1.00000000   0.357E-02       0.000       32.256   0.100E-07
     TRS4 it   7 1.00000000   0.290E-04       0.000       32.256   0.100E-07
     TRS4 it   8 1.00000000   0.241E-08       0.000       32.256   0.100E-07
     Final TRS4 iteration    8 1.00000000   0.241E-08
     Chemical potential (mu):       0.03824
 
 PAO| energy:  -7.7184437458995578      penalty:   9.2073927616087347E-005
 PAO|LS| Need extra step
 PAO|LS| adapt:  T T T
 PAO|LS| adapt: scan_steps:    0.0000000000000000       0.40000000000000002       0.80000000000000004     
 PAO|LS| adapt: energies:   -7.6274026052157016       -7.7732419841583980       -7.7184437458995578     
 PAO|LS| adapt: suggested step_size:   0.49075181608881185     
 PAO|LS| adapt: predicted energy  -7.7784058271933088     
 PAO| ======================= Iteration:         6 =============================

     Lanczos converged:  T threshold:   0.100E-02
     Est. extremal eigenvalues:    0.289E+01   0.164E+00
     Est. condition number :    0.176E+02

 Order=           3
     NS sqrt iter    1 1.00000000   0.733E+00       0.001       64.512
     NS sqrt iter    2 1.00000000   0.359E+00       0.001      110.592
     NS sqrt iter    3 1.00000000   0.946E-01       0.001      110.592
     NS sqrt iter    4 1.00000000   0.347E-02       0.001      110.592
     NS sqrt iter    5 1.00000000   0.330E-06       0.001       82.304
     Symmetrizing Results
     Final NS sqrt iter    5 1.00000000   0.171E-09

     Est. extremal eigenvalues     -0.93423     1.69633  converged:  T
     TRS4 it   1 1.00000000   0.867E+00       0.000       16.128   0.100E-07
     TRS4 it   2 1.00000000   0.617E+00       0.000       32.256   0.100E-07
     TRS4 it   3 1.00000000   0.424E+00       0.000       32.256   0.100E-07
     TRS4 it   4 1.00000000   0.220E+00       0.000       32.256   0.100E-07
     TRS4 it   5 1.00000000   0.731E-01       0.000       32.256   0.100E-07
     TRS4 it   6 1.00000000   0.102E-01       0.000       32.256   0.100E-07
     TRS4 it   7 1.00000000   0.274E-03       0.000       32.256   0.100E-07
     TRS4 it   8 1.00000000   0.284E-06       0.000       32.256   0.100E-07
     TRS4 it   9 1.00000000   0.358E-12       0.000       32.256   0.100E-07
     Final TRS4 iteration    9 1.00000000   0.358E-12
     Chemical potential (mu):       0.00190
 
 PAO| energy:  -7.7776927979219463      penalty:   1.3038404443168410E-005
 PAO|CG| warming up with steepest descent
 PAO|CG| beta:    0.0000000000000000     
 PAO| norm of gradient:  0.41749971337567987     
 PAO| energy improvement: -0.15029019270624477     
 PAO| step      6                   -7.777692798  0.261E-01  0.491E+00     0.061
 PAO|LS| adapt:  T F F
 PAO|LS| adapt: scan_steps:    0.0000000000000000        0.0000000000000000        0.0000000000000000     
 PAO|LS| adapt: energies:   -7.7776927979219463        0.0000000000000000        0.0000000000000000     
 PAO| ======================= Iteration:         7 =============================

     Lanczos converged:  T threshold:   0.100E-02
     Est. extremal eigenvalues:    0.281E+01   0.178E+00
     Est. condition number :    0.158E+02

 Order=           3
     NS sqrt iter    1 1.00000000   0.716E+00       0.001       64.512
     NS sqrt iter    2 1.00000000   0.338E+00       0.001      110.592
     NS sqrt iter    3 1.00000000   0.791E-01       0.001      110.592
     NS sqrt iter    4 1.00000000   0.210E-02       0.001      110.592
     NS sqrt iter    5 1.00000000   0.830E-07       0.001       76.032
     Symmetrizing Results
     Final NS sqrt iter    5 1.00000000   0.894E-09

     Est. extremal eigenvalues     -0.93597     1.68404  converged:  T
     TRS4 it   1 1.00000000   0.866E+00       0.000       16.128   0.100E-07
     TRS4 it   2 1.00000000   0.616E+00       0.000       32.256   0.100E-07
     TRS4 it   3 1.00000000   0.424E+00       0.000       32.256   0.100E-07
     TRS4 it   4 1.00000000   0.221E+00       0.000       32.256   0.100E-07
     TRS4 it   5 1.00000000   0.737E-01       0.000       32.256   0.100E-07
     TRS4 it   6 1.00000000   0.101E-01       0.000       32.256   0.100E-07
     TRS4 it   7 1.00000000   0.255E-03       0.000       32.256   0.100E-07
     TRS4 it   8 1.00000000   0.232E-06       0.000       32.256   0.100E-07
     TRS4 it   9 1.00000000   0.235E-12       0.000       32.256   0.100E-07
     Final TRS4 iteration    9 1.00000000   0.235E-12
     Chemical potential (mu):       0.00408
 
 PAO| energy:  -7.7718469176294684      penalty:   1.9771080461318903E-005
 PAO|LS| adapt:  T F T
 PAO|LS| adapt: scan_steps:    0.0000000000000000        0.0000000000000000       0.49075181608881185     
 PAO|LS| adapt: energies:   -7.7776927979219463        0.0000000000000000       -7.7718469176294684     
 PAO| ======================= Iteration:         8 =============================

     Lanczos converged:  T threshold:   0.100E-02
     Est. extremal eigenvalues:    0.285E+01   0.171E+00
     Est. condition number :    0.167E+02

 Order=           3
     NS sqrt iter    1 1.00000000   0.725E+00       0.001       64.512
     NS sqrt iter    2 1.00000000   0.349E+00       0.001      110.592
     NS sqrt iter    3 1.00000000   0.866E-01       0.001      110.592
     NS sqrt iter    4 1.00000000   0.271E-02       0.001      110.592
     NS sqrt iter    5 1.00000000   0.169E-06       0.001       79.488
     Symmetrizing Results
     Final NS sqrt iter    5 1.00000000   0.130E-08

     Est. extremal eigenvalues     -0.93604     1.68953  converged:  T
     TRS4 it   1 1.00000000   0.865E+00       0.000       16.128   0.100E-07
     TRS4 it   2 1.00000000   0.616E+00       0.000       32.256   0.100E-07
     TRS4 it   3 1.00000000   0.424E+00       0.000       32.256   0.100E-07
     TRS4 it   4 1.00000000   0.219E+00       0.000       32.256   0.100E-07
     TRS4 it   5 1.00000000   0.732E-01       0.000       32.256   0.100E-07
     TRS4 it   6 1.00000000   0.102E-01       0.000       32.256   0.100E-07
     TRS4 it   7 1.00000000   0.271E-03       0.000       32.256   0.100E-07
     TRS4 it   8 1.00000000   0.273E-06       0.000       32.256   0.100E-07
     TRS4 it   9 1.00000000   0.327E-12       0.000       32.256   0.100E-07
     Final TRS4 iteration    9 1.00000000   0.327E-12
     Chemical potential (mu):       0.00251
 
 PAO| energy:  -7.7973762304472336      penalty:   1.4145505059601948E-005
 PAO|LS| adapt:  T T T
 PAO|LS| adapt: scan_steps:    0.0000000000000000       0.24537590804440593       0.49075181608881185     
 PAO|LS| adapt: energies:   -7.7776927979219463       -7.7973762304472336       -7.7718469176294684     
 PAO|LS| adapt: suggested step_size:   0.22951270205899366     
 PAO|LS| adapt: predicted energy  -7.7974707124238716     
 PAO| ======================= Iteration:         9 =============================

     Lanczos converged:  T threshold:   0.100E-02
     Est. extremal eigenvalues:    0.285E+01   0.171E+00
     Est. condition number :    0.167E+02

 Order=           3
     NS sqrt iter    1 1.00000000   0.725E+00       0.001       64.512
     NS sqrt iter    2 1.00000000   0.349E+00       0.001      110.592
     NS sqrt iter    3 1.00000000   0.871E-01       0.001      110.592
     NS sqrt iter    4 1.00000000   0.276E-02       0.001      110.592
     NS sqrt iter    5 1.00000000   0.176E-06       0.001       79.744
     Symmetrizing Results
     Final NS sqrt iter    5 1.00000000   0.120E-08

     Est. extremal eigenvalues     -0.93598     1.68993  converged:  T
     TRS4 it   1 1.00000000   0.865E+00       0.000       16.128   0.100E-07
     TRS4 it   2 1.00000000   0.616E+00       0.000       32.256   0.100E-07
     TRS4 it   3 1.00000000   0.424E+00       0.000       32.256   0.100E-07
     TRS4 it   4 1.00000000   0.219E+00       0.000       32.256   0.100E-07
     TRS4 it   5 1.00000000   0.732E-01       0.000       32.256   0.100E-07
     TRS4 it   6 1.00000000   0.102E-01       0.000       32.256   0.100E-07
     TRS4 it   7 1.00000000   0.272E-03       0.000       32.256   0.100E-07
     TRS4 it   8 1.00000000   0.275E-06       0.000       32.256   0.100E-07
     TRS4 it   9 1.00000000   0.333E-12       0.000       32.256   0.100E-07
     Final TRS4 iteration    9 1.00000000   0.333E-12
     Chemical potential (mu):       0.00244
 
 PAO| energy:  -7.7974944614002251      penalty:   1.3975184801072436E-005
 PAO|CG| trace_G_new    3.6956524677457407E-002
 PAO|CG| trace_G_prev   0.17430601066877482     
 PAO|CG| trace_G_mix   -1.4502303859428830E-003
 PAO|CG| trace_D   0.17430601066877482     
 PAO|CG| trace_D_Gnew   1.4502303859428830E-003
 PAO|CG| beta:   0.22034096768115913     
 PAO| norm of gradient:  0.19224079868086641     
 PAO| energy improvement:  -1.9801663478278719E-002
 PAO| step      9                   -7.797494461  0.120E-01  0.230E+00     0.037
 PAO|LS| adapt:  T F F
 PAO|LS| adapt: scan_steps:    0.0000000000000000        0.0000000000000000        0.0000000000000000     
 PAO|LS| adapt: energies:   -7.7974944614002251        0.0000000000000000        0.0000000000000000     
 PAO| ======================= Iteration:        10 =============================

     Lanczos converged:  T threshold:   0.100E-02
     Est. extremal eigenvalues:    0.282E+01   0.176E+00
     Est. condition number :    0.160E+02

 Order=           3
     NS sqrt iter    1 1.00000000   0.718E+00       0.001       64.512
     NS sqrt iter    2 1.00000000   0.341E+00       0.001      110.592
     NS sqrt iter    3 1.00000000   0.815E-01       0.001      110.592
     NS sqrt iter    4 1.00000000   0.227E-02       0.001      110.592
     NS sqrt iter    5 1.00000000   0.984E-07       0.001       76.416
     Symmetrizing Results
     Final NS sqrt iter    5 1.00000000   0.103E-08

     Est. extremal eigenvalues     -0.93687     1.68596  converged:  T
     TRS4 it   1 1.00000000   0.864E+00       0.000       16.128   0.100E-07
     TRS4 it   2 1.00000000   0.615E+00       0.000       32.256   0.100E-07
     TRS4 it   3 1.00000000   0.422E+00       0.000       32.256   0.100E-07
     TRS4 it   4 1.00000000   0.217E+00       0.000       32.256   0.100E-07
     TRS4 it   5 1.00000000   0.712E-01       0.000       32.256   0.100E-07
     TRS4 it   6 1.00000000   0.962E-02       0.000       32.256   0.100E-07
     TRS4 it   7 1.00000000   0.236E-03       0.000       32.256   0.100E-07
     TRS4 it   8 1.00000000   0.202E-06       0.000       32.256   0.100E-07
     TRS4 it   9 1.00000000   0.178E-12       0.000       32.256   0.100E-07
     Final TRS4 iteration    9 1.00000000   0.178E-12
     Chemical potential (mu):       0.00567
 
 PAO| energy:  -7.8025441136852987      penalty:   1.4519702422821937E-005
 PAO|LS| adapt:  T T F
 PAO|LS| adapt: scan_steps:    0.0000000000000000       0.22951270205899366        0.0000000000000000     
 PAO|LS| adapt: energies:   -7.7974944614002251       -7.8025441136852987        0.0000000000000000     
 PAO| ======================= Iteration:        11 =============================

     Lanczos converged:  T threshold:   0.100E-02
     Est. extremal eigenvalues:    0.278E+01   0.182E+00
     Est. condition number :    0.153E+02

 Order=           3
     NS sqrt iter    1 1.00000000   0.710E+00       0.001       64.512
     NS sqrt iter    2 1.00000000   0.333E+00       0.001      110.592
     NS sqrt iter    3 1.00000000   0.761E-01       0.001      110.592
     NS sqrt iter    4 1.00000000   0.186E-02       0.001      110.592
     NS sqrt iter    5 1.00000000   0.541E-07       0.001       72.064
     Symmetrizing Results
     Final NS sqrt iter    5 1.00000000   0.383E-09

     Est. extremal eigenvalues     -0.93678     1.68349  converged:  T
     TRS4 it   1 1.00000000   0.863E+00       0.000       16.128   0.100E-07
     TRS4 it   2 1.00000000   0.614E+00       0.000       32.256   0.100E-07
     TRS4 it   3 1.00000000   0.420E+00       0.000       32.256   0.100E-07
     TRS4 it   4 1.00000000   0.215E+00       0.000       32.256   0.100E-07
     TRS4 it   5 1.00000000   0.693E-01       0.000       32.256   0.100E-07
     TRS4 it   6 1.00000000   0.905E-02       0.000       32.256   0.100E-07
     TRS4 it   7 1.00000000   0.205E-03       0.000       32.256   0.100E-07
     TRS4 it   8 1.00000000   0.147E-06       0.000       32.256   0.100E-07
     TRS4 it   9 1.00000000   0.936E-13       0.000       32.256   0.100E-07
     Final TRS4 iteration    9 1.00000000   0.936E-13
     Chemical potential (mu):       0.00902
 
 PAO| energy:  -7.8011197520911022      penalty:   1.5737841092533050E-005
 PAO|LS| adapt:  T T T
 PAO|LS| adapt: scan_steps:    0.0000000000000000       0.22951270205899366       0.45902540411798731     
 PAO|LS| adapt: energies:   -7.7974944614002251       -7.8025441136852987       -7.8011197520911022     
 PAO|LS| adapt: suggested step_size:   0.29377347425758077     
 PAO|LS| adapt: predicted energy  -7.8027978730384309     
 PAO| ======================= Iteration:        12 =============================

     Lanczos converged:  T threshold:   0.100E-02
     Est. extremal eigenvalues:    0.281E+01   0.178E+00
     Est. condition number :    0.158E+02

 Order=           3
     NS sqrt iter    1 1.00000000   0.715E+00       0.001       64.512
     NS sqrt iter    2 1.00000000   0.339E+00       0.001      110.592
     NS sqrt iter    3 1.00000000   0.800E-01       0.001      110.592
     NS sqrt iter    4 1.00000000   0.215E-02       0.001      110.592
     NS sqrt iter    5 1.00000000   0.833E-07       0.001       75.648
     Symmetrizing Results
     Final NS sqrt iter    5 1.00000000   0.102E-08

     Est. extremal eigenvalues     -0.93694     1.68512  converged:  T
     TRS4 it   1 1.00000000   0.864E+00       0.000       16.128   0.100E-07
     TRS4 it   2 1.00000000   0.614E+00       0.000       32.256   0.100E-07
     TRS4 it   3 1.00000000   0.421E+00       0.000       32.256   0.100E-07
     TRS4 it   4 1.00000000   0.216E+00       0.000       32.256   0.100E-07
     TRS4 it   5 1.00000000   0.707E-01       0.000       32.256   0.100E-07
     TRS4 it   6 1.00000000   0.945E-02       0.000       32.256   0.100E-07
     TRS4 it   7 1.00000000   0.227E-03       0.000       32.256   0.100E-07
     TRS4 it   8 1.00000000   0.185E-06       0.000       32.256   0.100E-07
     TRS4 it   9 1.00000000   0.149E-12       0.000       32.256   0.100E-07
     Final TRS4 iteration    9 1.00000000   0.149E-12
     Chemical potential (mu):       0.00660
 
 PAO| energy:  -7.8027817161413360      penalty:   1.4785194095368272E-005
 PAO|CG| trace_G_new    1.1849026949556633E-002
 PAO|CG| trace_G_prev    3.6956524677457407E-002
 PAO|CG| trace_G_mix   -4.5725524343317807E-004
 PAO|CG| trace_D    4.4780015920421752E-002
 PAO|CG| trace_D_Gnew   2.0982027386329196E-004
 PAO|CG| beta:   0.33299349168771675     
 PAO| norm of gradient:  0.10885323582492452     
 PAO| energy improvement:  -5.2872547411109139E-003
 PAO| step     12                   -7.802781716  0.680E-02  0.294E+00     0.037
 PAO|LS| adapt:  T F F
 PAO|LS| adapt: scan_steps:    0.0000000000000000        0.0000000000000000        0.0000000000000000     
 PAO|LS| adapt: energies:   -7.8027817161413360        0.0000000000000000        0.0000000000000000     
 PAO| ======================= Iteration:        13 =============================

     Lanczos converged:  T threshold:   0.100E-02
     Est. extremal eigenvalues:    0.277E+01   0.182E+00
     Est. condition number :    0.152E+02

 Order=           3
     NS sqrt iter    1 1.00000000   0.708E+00       0.001       64.512
     NS sqrt iter    2 1.00000000   0.332E+00       0.001      110.592
     NS sqrt iter    3 1.00000000   0.757E-01       0.001      110.592
     NS sqrt iter    4 1.00000000   0.183E-02       0.001      110.592
     NS sqrt iter    5 1.00000000   0.525E-07       0.001       71.680
     Symmetrizing Results
     Final NS sqrt iter    5 1.00000000   0.381E-09

     Est. extremal eigenvalues     -0.93743     1.67915  converged:  T
     TRS4 it   1 1.00000000   0.863E+00       0.000       16.128   0.100E-07
     TRS4 it   2 1.00000000   0.611E+00       0.000       32.256   0.100E-07
     TRS4 it   3 1.00000000   0.417E+00       0.000       32.256   0.100E-07
     TRS4 it   4 1.00000000   0.211E+00       0.000       32.256   0.100E-07
     TRS4 it   5 1.00000000   0.672E-01       0.000       32.256   0.100E-07
     TRS4 it   6 1.00000000   0.848E-02       0.000       32.256   0.100E-07
     TRS4 it   7 1.00000000   0.180E-03       0.000       32.256   0.100E-07
     TRS4 it   8 1.00000000   0.113E-06       0.000       32.256   0.100E-07
     TRS4 it   9 1.00000000   0.548E-13       0.000       32.256   0.100E-07
     Final TRS4 iteration    9 1.00000000   0.548E-13
     Chemical potential (mu):       0.01123
 
 PAO| energy:  -7.8048526138920424      penalty:   1.5096614559658663E-005
 PAO|LS| adapt:  T T F
 PAO|LS| adapt: scan_steps:    0.0000000000000000       0.29377347425758077        0.0000000000000000     
 PAO|LS| adapt: energies:   -7.8027817161413360       -7.8048526138920424        0.0000000000000000     
 PAO| ======================= Iteration:        14 =============================

     Lanczos converged:  T threshold:   0.100E-02
     Est. extremal eigenvalues:    0.274E+01   0.186E+00
     Est. condition number :    0.147E+02

 Order=           3
     NS sqrt iter    1 1.00000000   0.702E+00       0.001       64.512
     NS sqrt iter    2 1.00000000   0.325E+00       0.001      110.592
     NS sqrt iter    3 1.00000000   0.716E-01       0.001      110.592
     NS sqrt iter    4 1.00000000   0.156E-02       0.001      110.592
     NS sqrt iter    5 1.00000000   0.329E-07       0.001       65.024
     Symmetrizing Results
     Final NS sqrt iter    5 1.00000000   0.315E-08

     Est. extremal eigenvalues     -0.93740     1.67355  converged:  T
     TRS4 it   1 1.00000000   0.863E+00       0.000       16.128   0.100E-07
     TRS4 it   2 1.00000000   0.609E+00       0.000       32.256   0.100E-07
     TRS4 it   3 1.00000000   0.413E+00       0.000       32.256   0.100E-07
     TRS4 it   4 1.00000000   0.207E+00       0.000       32.256   0.100E-07
     TRS4 it   5 1.00000000   0.639E-01       0.000       32.256   0.100E-07
     TRS4 it   6 1.00000000   0.761E-02       0.000       32.256   0.100E-07
     TRS4 it   7 1.00000000   0.143E-03       0.000       32.256   0.100E-07
     TRS4 it   8 1.00000000   0.691E-07       0.000       32.256   0.100E-07
     Final TRS4 iteration    8 1.00000000   0.691E-07
     Chemical potential (mu):       0.01320
 
 PAO| energy:  -7.8041941454017625      penalty:   1.5890313210519876E-005
 PAO|LS| adapt:  T T T
 PAO|LS| adapt: scan_steps:    0.0000000000000000       0.29377347425758077       0.58754694851516154     
 PAO|LS| adapt: energies:   -7.8027817161413360       -7.8048526138920424       -7.8041941454017625     
 PAO|LS| adapt: suggested step_size:   0.36978640442934846     
 PAO|LS| adapt: predicted energy  -7.8049439792603899     
 PAO| ======================= Iteration:        15 =============================

     Lanczos converged:  T threshold:   0.100E-02
     Est. extremal eigenvalues:    0.276E+01   0.183E+00
     Est. condition number :    0.151E+02

 Order=           3
     NS sqrt iter    1 1.00000000   0.707E+00       0.001       64.512
     NS sqrt iter    2 1.00000000   0.330E+00       0.001      110.592
     NS sqrt iter    3 1.00000000   0.746E-01       0.001      110.592
     NS sqrt iter    4 1.00000000   0.175E-02       0.001      110.592
     NS sqrt iter    5 1.00000000   0.466E-07       0.001       70.784
     Symmetrizing Results
     Final NS sqrt iter    5 1.00000000   0.343E-09

     Est. extremal eigenvalues     -0.93747     1.67767  converged:  T
     TRS4 it   1 1.00000000   0.863E+00       0.000       16.128   0.100E-07
     TRS4 it   2 1.00000000   0.611E+00       0.000       32.256   0.100E-07
     TRS4 it   3 1.00000000   0.416E+00       0.000       32.256   0.100E-07
     TRS4 it   4 1.00000000   0.210E+00       0.000       32.256   0.100E-07
     TRS4 it   5 1.00000000   0.663E-01       0.000       32.256   0.100E-07
     TRS4 it   6 1.00000000   0.825E-02       0.000       32.256   0.100E-07
     TRS4 it   7 1.00000000   0.169E-03       0.000       32.256   0.100E-07
     TRS4 it   8 1.00000000   0.995E-07       0.000       32.256   0.100E-07
     TRS4 it   9 1.00000000   0.417E-13       0.000       32.256   0.100E-07
     Final TRS4 iteration    9 1.00000000   0.417E-13
     Chemical potential (mu):       0.01241
 
 PAO| energy:  -7.8049409676528221      penalty:   1.5252701018605932E-005
 PAO|CG| trace_G_new    2.6157030404470216E-003
 PAO|CG| trace_G_prev    1.1849026949556633E-002
 PAO|CG| trace_G_mix    6.6075523978341097E-005
 PAO|CG| trace_D    1.6674706465021637E-002
 PAO|CG| trace_D_Gnew   3.3964040450238633E-005
 PAO|CG| beta:   0.21517610917106422     
 PAO| norm of gradient:   5.1143944318433457E-002
 PAO| energy improvement:  -2.1592515114861044E-003
 PAO| step     15                   -7.804940968  0.320E-02  0.370E+00     0.036
 PAO|LS| adapt:  T F F
 PAO|LS| adapt: scan_steps:    0.0000000000000000        0.0000000000000000        0.0000000000000000     
 PAO|LS| adapt: energies:   -7.8049409676528221        0.0000000000000000        0.0000000000000000     
 PAO| ======================= Iteration:        16 =============================

     Lanczos converged:  T threshold:   0.100E-02
     Est. extremal eigenvalues:    0.275E+01   0.184E+00
     Est. condition number :    0.150E+02

 Order=           3
     NS sqrt iter    1 1.00000000   0.705E+00       0.001       64.512
     NS sqrt iter    2 1.00000000   0.329E+00       0.001      110.592
     NS sqrt iter    3 1.00000000   0.739E-01       0.001      110.592
     NS sqrt iter    4 1.00000000   0.171E-02       0.001      110.592
     NS sqrt iter    5 1.00000000   0.426E-07       0.001       70.144
     Symmetrizing Results
     Final NS sqrt iter    5 1.00000000   0.347E-09

     Est. extremal eigenvalues     -0.93750     1.67762  converged:  T
     TRS4 it   1 1.00000000   0.863E+00       0.000       16.128   0.100E-07
     TRS4 it   2 1.00000000   0.610E+00       0.000       32.256   0.100E-07
     TRS4 it   3 1.00000000   0.415E+00       0.000       32.256   0.100E-07
     TRS4 it   4 1.00000000   0.209E+00       0.000       32.256   0.100E-07
     TRS4 it   5 1.00000000   0.652E-01       0.000       32.256   0.100E-07
     TRS4 it   6 1.00000000   0.799E-02       0.000       32.256   0.100E-07
     TRS4 it   7 1.00000000   0.160E-03       0.000       32.256   0.100E-07
     TRS4 it   8 1.00000000   0.894E-07       0.000       32.256   0.100E-07
     TRS4 it   9 1.00000000   0.346E-13       0.000       32.256   0.100E-07
     Final TRS4 iteration    9 1.00000000   0.346E-13
     Chemical potential (mu):       0.01324
 
 PAO| energy:  -7.8050685797654591      penalty:   1.5034004448134120E-005
 PAO|LS| adapt:  T T F
 PAO|LS| adapt: scan_steps:    0.0000000000000000       0.36978640442934846        0.0000000000000000     
 PAO|LS| adapt: energies:   -7.8049409676528221       -7.8050685797654591        0.0000000000000000     
 PAO| ======================= Iteration:        17 =============================

     Lanczos converged:  T threshold:   0.100E-02
     Est. extremal eigenvalues:    0.275E+01   0.184E+00
     Est. condition number :    0.149E+02

 Order=           3
     NS sqrt iter    1 1.00000000   0.703E+00       0.001       64.512
     NS sqrt iter    2 1.00000000   0.328E+00       0.001      110.592
     NS sqrt iter    3 1.00000000   0.733E-01       0.001      110.592
     NS sqrt iter    4 1.00000000   0.166E-02       0.001      110.592
     NS sqrt iter    5 1.00000000   0.391E-07       0.001       68.736
     Symmetrizing Results
     Final NS sqrt iter    5 1.00000000   0.312E-09

     Est. extremal eigenvalues     -0.93740     1.67765  converged:  T
     TRS4 it   1 1.00000000   0.864E+00       0.000       16.128   0.100E-07
     TRS4 it   2 1.00000000   0.609E+00       0.000       32.256   0.100E-07
     TRS4 it   3 1.00000000   0.414E+00       0.000       32.256   0.100E-07
     TRS4 it   4 1.00000000   0.207E+00       0.000       32.256   0.100E-07
     TRS4 it   5 1.00000000   0.642E-01       0.000       32.256   0.100E-07
     TRS4 it   6 1.00000000   0.775E-02       0.000       32.256   0.100E-07
     TRS4 it   7 1.00000000   0.151E-03       0.000       32.256   0.100E-07
     TRS4 it   8 1.00000000   0.805E-07       0.000       32.256   0.100E-07
     TRS4 it   9 1.00000000   0.286E-13       0.000       32.256   0.100E-07
     Final TRS4 iteration    9 1.00000000   0.286E-13
     Chemical potential (mu):       0.01406
 
 PAO| energy:  -7.8035165769115471      penalty:   1.4940215356821746E-005
 PAO|LS| adapt:  T T T
 PAO|LS| adapt: scan_steps:    0.0000000000000000       0.36978640442934846       0.73957280885869692     
 PAO|LS| adapt: energies:   -7.8049409676528221       -7.8050685797654591       -7.8035165769115471     
 PAO|LS| adapt: suggested step_size:   0.21298846525619711     
 PAO|LS| adapt: predicted energy  -7.8052195733729404     
 PAO| ======================= Iteration:        18 =============================

     Lanczos converged:  T threshold:   0.100E-02
     Est. extremal eigenvalues:    0.276E+01   0.183E+00
     Est. condition number :    0.150E+02

 Order=           3
     NS sqrt iter    1 1.00000000   0.706E+00       0.001       64.512
     NS sqrt iter    2 1.00000000   0.329E+00       0.001      110.592
     NS sqrt iter    3 1.00000000   0.742E-01       0.001      110.592
     NS sqrt iter    4 1.00000000   0.173E-02       0.001      110.592
     NS sqrt iter    5 1.00000000   0.442E-07       0.001       70.528
     Symmetrizing Results
     Final NS sqrt iter    5 1.00000000   0.329E-09

     Est. extremal eigenvalues     -0.93750     1.67763  converged:  T
     TRS4 it   1 1.00000000   0.863E+00       0.000       16.128   0.100E-07
     TRS4 it   2 1.00000000   0.610E+00       0.000       32.256   0.100E-07
     TRS4 it   3 1.00000000   0.416E+00       0.000       32.256   0.100E-07
     TRS4 it   4 1.00000000   0.209E+00       0.000       32.256   0.100E-07
     TRS4 it   5 1.00000000   0.657E-01       0.000       32.256   0.100E-07
     TRS4 it   6 1.00000000   0.810E-02       0.000       32.256   0.100E-07
     TRS4 it   7 1.00000000   0.164E-03       0.000       32.256   0.100E-07
     TRS4 it   8 1.00000000   0.935E-07       0.000       32.256   0.100E-07
     TRS4 it   9 1.00000000   0.372E-13       0.000       32.256   0.100E-07
     Final TRS4 iteration    9 1.00000000   0.372E-13
     Chemical potential (mu):       0.01289
 
 PAO| energy:  -7.8052190999042068      penalty:   1.5111750758072712E-005
 PAO|CG| trace_G_new    7.2960431488692992E-004
 PAO|CG| trace_G_prev    2.6157030404470216E-003
 PAO|CG| trace_G_mix    1.6833581281450976E-006
 PAO|CG| trace_D    3.3731380883530262E-003
 PAO|CG| trace_D_Gnew  -1.8077966456410001E-006
 PAO|CG| beta:   0.27828883688355682     
 PAO| norm of gradient:   2.7011188698147476E-002
 PAO| energy improvement:  -2.7813225138473285E-004
 PAO| step     18                   -7.805219100  0.169E-02  0.213E+00     0.037
 PAO|LS| adapt:  T F F
 PAO|LS| adapt: scan_steps:    0.0000000000000000        0.0000000000000000        0.0000000000000000     
 PAO|LS| adapt: energies:   -7.8052190999042068        0.0000000000000000        0.0000000000000000     
 PAO| ======================= Iteration:        19 =============================

     Lanczos converged:  T threshold:   0.100E-02
     Est. extremal eigenvalues:    0.276E+01   0.183E+00
     Est. condition number :    0.150E+02

 Order=           3
     NS sqrt iter    1 1.00000000   0.705E+00       0.001       64.512
     NS sqrt iter    2 1.00000000   0.329E+00       0.001      110.592
     NS sqrt iter    3 1.00000000   0.744E-01       0.001      110.592
     NS sqrt iter    4 1.00000000   0.174E-02       0.001      110.592
     NS sqrt iter    5 1.00000000   0.447E-07       0.001       70.528
     Symmetrizing Results
     Final NS sqrt iter    5 1.00000000   0.336E-09

     Est. extremal eigenvalues     -0.93750     1.67798  converged:  T
     TRS4 it   1 1.00000000   0.863E+00       0.000       16.128   0.100E-07
     TRS4 it   2 1.00000000   0.610E+00       0.000       32.256   0.100E-07
     TRS4 it   3 1.00000000   0.416E+00       0.000       32.256   0.100E-07
     TRS4 it   4 1.00000000   0.209E+00       0.000       32.256   0.100E-07
     TRS4 it   5 1.00000000   0.656E-01       0.000       32.256   0.100E-07
     TRS4 it   6 1.00000000   0.809E-02       0.000       32.256   0.100E-07
     TRS4 it   7 1.00000000   0.164E-03       0.000       32.256   0.100E-07
     TRS4 it   8 1.00000000   0.951E-07       0.000       32.256   0.100E-07
     TRS4 it   9 1.00000000   0.395E-13       0.000       32.256   0.100E-07
     Final TRS4 iteration    9 1.00000000   0.395E-13
     Chemical potential (mu):       0.01261
 
 PAO| energy:  -7.8053377033473188      penalty:   1.4821786936710375E-005
 PAO|LS| adapt:  T T F
 PAO|LS| adapt: scan_steps:    0.0000000000000000       0.21298846525619711        0.0000000000000000     
 PAO|LS| adapt: energies:   -7.8052190999042068       -7.8053377033473188        0.0000000000000000     
 PAO| ======================= Iteration:        20 =============================

     Lanczos converged:  T threshold:   0.100E-02
     Est. extremal eigenvalues:    0.276E+01   0.183E+00
     Est. condition number :    0.151E+02

 Order=           3
     NS sqrt iter    1 1.00000000   0.705E+00       0.001       64.512
     NS sqrt iter    2 1.00000000   0.330E+00       0.001      110.592
     NS sqrt iter    3 1.00000000   0.746E-01       0.001      110.592
     NS sqrt iter    4 1.00000000   0.175E-02       0.001      110.592
     NS sqrt iter    5 1.00000000   0.453E-07       0.001       70.528
     Symmetrizing Results
     Final NS sqrt iter    5 1.00000000   0.342E-09

     Est. extremal eigenvalues     -0.93750     1.67834  converged:  T
     TRS4 it   1 1.00000000   0.863E+00       0.000       16.128   0.100E-07
     TRS4 it   2 1.00000000   0.610E+00       0.000       32.256   0.100E-07
     TRS4 it   3 1.00000000   0.415E+00       0.000       32.256   0.100E-07
     TRS4 it   4 1.00000000   0.209E+00       0.000       32.256   0.100E-07
     TRS4 it   5 1.00000000   0.655E-01       0.000       32.256   0.100E-07
     TRS4 it   6 1.00000000   0.809E-02       0.000       32.256   0.100E-07
     TRS4 it   7 1.00000000   0.165E-03       0.000       32.256   0.100E-07
     TRS4 it   8 1.00000000   0.967E-07       0.000       32.256   0.100E-07
     TRS4 it   9 1.00000000   0.404E-13       0.000       32.256   0.100E-07
     Final TRS4 iteration    9 1.00000000   0.404E-13
     Chemical potential (mu):       0.01233
 
 PAO| energy:  -7.8053820996069261      penalty:   1.4544322364038659E-005
 PAO|LS| adapt:  T T F
 PAO|LS| adapt: scan_steps:    0.0000000000000000       0.42597693051239421        0.0000000000000000     
 PAO|LS| adapt: energies:   -7.8052190999042068       -7.8053820996069261        0.0000000000000000     
 PAO| ======================= Iteration:        21 =============================

     Lanczos converged:  T threshold:   0.100E-02
     Est. extremal eigenvalues:    0.276E+01   0.183E+00
     Est. condition number :    0.151E+02

 Order=           3
     NS sqrt iter    1 1.00000000   0.705E+00       0.001       64.512
     NS sqrt iter    2 1.00000000   0.330E+00       0.001      110.592
     NS sqrt iter    3 1.00000000   0.751E-01       0.001      110.592
     NS sqrt iter    4 1.00000000   0.177E-02       0.001      110.592
     NS sqrt iter    5 1.00000000   0.464E-07       0.001       71.168
     Symmetrizing Results
     Final NS sqrt iter    5 1.00000000   0.356E-09

     Est. extremal eigenvalues     -0.93749     1.67906  converged:  T
     TRS4 it   1 1.00000000   0.864E+00       0.000       16.128   0.100E-07
     TRS4 it   2 1.00000000   0.610E+00       0.000       32.256   0.100E-07
     TRS4 it   3 1.00000000   0.415E+00       0.000       32.256   0.100E-07
     TRS4 it   4 1.00000000   0.209E+00       0.000       32.256   0.100E-07
     TRS4 it   5 1.00000000   0.653E-01       0.000       32.256   0.100E-07
     TRS4 it   6 1.00000000   0.808E-02       0.000       32.256   0.100E-07
     TRS4 it   7 1.00000000   0.167E-03       0.000       32.256   0.100E-07
     TRS4 it   8 1.00000000   0.100E-06       0.000       32.256   0.100E-07
     TRS4 it   9 1.00000000   0.435E-13       0.000       32.256   0.100E-07
     Final TRS4 iteration    9 1.00000000   0.435E-13
     Chemical potential (mu):       0.01177
 
 PAO| energy:  -7.8052458316266220      penalty:   1.4026314297597440E-005
 PAO|LS| Need extra step
 PAO|LS| adapt:  T T T
 PAO|LS| adapt: scan_steps:    0.0000000000000000       0.42597693051239421       0.85195386102478843     
 PAO|LS| adapt: energies:   -7.8052190999042068       -7.8053820996069261       -7.8052458316266220     
 PAO|LS| adapt: suggested step_size:   0.44500186656077029     
 PAO|LS| adapt: predicted energy  -7.8053823980792574     
 PAO| ======================= Iteration:        22 =============================

     Lanczos converged:  T threshold:   0.100E-02
     Est. extremal eigenvalues:    0.276E+01   0.183E+00
     Est. condition number :    0.151E+02

 Order=           3
     NS sqrt iter    1 1.00000000   0.705E+00       0.001       64.512
     NS sqrt iter    2 1.00000000   0.330E+00       0.001      110.592
     NS sqrt iter    3 1.00000000   0.747E-01       0.001      110.592
     NS sqrt iter    4 1.00000000   0.175E-02       0.001      110.592
     NS sqrt iter    5 1.00000000   0.453E-07       0.001       70.528
     Symmetrizing Results
     Final NS sqrt iter    5 1.00000000   0.343E-09

     Est. extremal eigenvalues     -0.93750     1.67837  converged:  T
     TRS4 it   1 1.00000000   0.863E+00       0.000       16.128   0.100E-07
     TRS4 it   2 1.00000000   0.610E+00       0.000       32.256   0.100E-07
     TRS4 it   3 1.00000000   0.415E+00       0.000       32.256   0.100E-07
     TRS4 it   4 1.00000000   0.209E+00       0.000       32.256   0.100E-07
     TRS4 it   5 1.00000000   0.655E-01       0.000       32.256   0.100E-07
     TRS4 it   6 1.00000000   0.809E-02       0.000       32.256   0.100E-07
     TRS4 it   7 1.00000000   0.165E-03       0.000       32.256   0.100E-07
     TRS4 it   8 1.00000000   0.969E-07       0.000       32.256   0.100E-07
     TRS4 it   9 1.00000000   0.411E-13       0.000       32.256   0.100E-07
     Final TRS4 iteration    9 1.00000000   0.411E-13
     Chemical potential (mu):       0.01231
 
 PAO| energy:  -7.8053824343381999      penalty:   1.4520140278459870E-005
 PAO|CG| trace_G_new    2.2568448040964943E-004
 PAO|CG| trace_G_prev    7.2960431488692992E-004
 PAO|CG| trace_G_mix    3.0906235115101175E-006
 PAO|CG| trace_D    9.9184208297025756E-004
 PAO|CG| trace_D_Gnew  -1.8992718391193772E-006
 PAO|CG| beta:   0.30508846008214152     
 PAO| norm of gradient:   1.5022798687649696E-002
 PAO| energy improvement:  -1.6333443399307868E-004
 PAO| step     22                   -7.805382434  0.939E-03  0.445E+00     0.048
 PAO|LS| adapt:  T F F
 PAO|LS| adapt: scan_steps:    0.0000000000000000        0.0000000000000000        0.0000000000000000     
 PAO|LS| adapt: energies:   -7.8053824343381999        0.0000000000000000        0.0000000000000000     
 PAO| ======================= Iteration:        23 =============================

     Lanczos converged:  T threshold:   0.100E-02
     Est. extremal eigenvalues:    0.276E+01   0.183E+00
     Est. condition number :    0.151E+02

 Order=           3
     NS sqrt iter    1 1.00000000   0.705E+00       0.001       64.512
     NS sqrt iter    2 1.00000000   0.330E+00       0.001      110.592
     NS sqrt iter    3 1.00000000   0.747E-01       0.001      110.592
     NS sqrt iter    4 1.00000000   0.175E-02       0.001      110.592
     NS sqrt iter    5 1.00000000   0.454E-07       0.001       70.528
     Symmetrizing Results
     Final NS sqrt iter    5 1.00000000   0.345E-09

     Est. extremal eigenvalues     -0.93750     1.67816  converged:  T
     TRS4 it   1 1.00000000   0.863E+00       0.000       16.128   0.100E-07
     TRS4 it   2 1.00000000   0.610E+00       0.000       32.256   0.100E-07
     TRS4 it   3 1.00000000   0.415E+00       0.000       32.256   0.100E-07
     TRS4 it   4 1.00000000   0.209E+00       0.000       32.256   0.100E-07
     TRS4 it   5 1.00000000   0.656E-01       0.000       32.256   0.100E-07
     TRS4 it   6 1.00000000   0.812E-02       0.000       32.256   0.100E-07
     TRS4 it   7 1.00000000   0.167E-03       0.000       32.256   0.100E-07
     TRS4 it   8 1.00000000   0.991E-07       0.000       32.256   0.100E-07
     TRS4 it   9 1.00000000   0.426E-13       0.000       32.256   0.100E-07
     Final TRS4 iteration    9 1.00000000   0.426E-13
     Chemical potential (mu):       0.01201
 
 PAO| energy:  -7.8054327736712086      penalty:   1.3835354060413167E-005
 PAO|LS| adapt:  T T F
 PAO|LS| adapt: scan_steps:    0.0000000000000000       0.44500186656077029        0.0000000000000000     
 PAO|LS| adapt: energies:   -7.8053824343381999       -7.8054327736712086        0.0000000000000000     
 PAO| ======================= Iteration:        24 =============================

     Lanczos converged:  T threshold:   0.100E-02
     Est. extremal eigenvalues:    0.276E+01   0.183E+00
     Est. condition number :    0.151E+02

 Order=           3
     NS sqrt iter    1 1.00000000   0.705E+00       0.001       64.512
     NS sqrt iter    2 1.00000000   0.330E+00       0.001      110.592
     NS sqrt iter    3 1.00000000   0.747E-01       0.001      110.592
     NS sqrt iter    4 1.00000000   0.175E-02       0.001      110.592
     NS sqrt iter    5 1.00000000   0.454E-07       0.001       70.528
     Symmetrizing Results
     Final NS sqrt iter    5 1.00000000   0.347E-09

     Est. extremal eigenvalues     -0.93750     1.67794  converged:  T
     TRS4 it   1 1.00000000   0.863E+00       0.000       16.128   0.100E-07
     TRS4 it   2 1.00000000   0.610E+00       0.000       32.256   0.100E-07
     TRS4 it   3 1.00000000   0.416E+00       0.000       32.256   0.100E-07
     TRS4 it   4 1.00000000   0.209E+00       0.000       32.256   0.100E-07
     TRS4 it   5 1.00000000   0.657E-01       0.000       32.256   0.100E-07
     TRS4 it   6 1.00000000   0.815E-02       0.000       32.256   0.100E-07
     TRS4 it   7 1.00000000   0.169E-03       0.000       32.256   0.100E-07
     TRS4 it   8 1.00000000   0.102E-06       0.000       32.256   0.100E-07
     TRS4 it   9 1.00000000   0.455E-13       0.000       32.256   0.100E-07
     Final TRS4 iteration    9 1.00000000   0.455E-13
     Chemical potential (mu):       0.01171
 
 PAO| energy:  -7.8053817582128451      penalty:   1.3179284587931280E-005
 PAO|LS| adapt:  T T T
 PAO|LS| adapt: scan_steps:    0.0000000000000000       0.44500186656077029       0.89000373312154057     
 PAO|LS| adapt: energies:   -7.8053824343381999       -7.8054327736712086       -7.8053817582128451     
 PAO|LS| adapt: suggested step_size:   0.44351759018444775     
 PAO|LS| adapt: predicted energy  -7.8054327742350029     
 PAO| ======================= Iteration:        25 =============================

     Lanczos converged:  T threshold:   0.100E-02
     Est. extremal eigenvalues:    0.276E+01   0.183E+00
     Est. condition number :    0.151E+02

 Order=           3
     NS sqrt iter    1 1.00000000   0.705E+00       0.001       64.512
     NS sqrt iter    2 1.00000000   0.330E+00       0.001      110.592
     NS sqrt iter    3 1.00000000   0.747E-01       0.001      110.592
     NS sqrt iter    4 1.00000000   0.175E-02       0.001      110.592
     NS sqrt iter    5 1.00000000   0.454E-07       0.001       70.528
     Symmetrizing Results
     Final NS sqrt iter    5 1.00000000   0.345E-09

     Est. extremal eigenvalues     -0.93750     1.67816  converged:  T
     TRS4 it   1 1.00000000   0.863E+00       0.000       16.128   0.100E-07
     TRS4 it   2 1.00000000   0.610E+00       0.000       32.256   0.100E-07
     TRS4 it   3 1.00000000   0.415E+00       0.000       32.256   0.100E-07
     TRS4 it   4 1.00000000   0.209E+00       0.000       32.256   0.100E-07
     TRS4 it   5 1.00000000   0.656E-01       0.000       32.256   0.100E-07
     TRS4 it   6 1.00000000   0.812E-02       0.000       32.256   0.100E-07
     TRS4 it   7 1.00000000   0.167E-03       0.000       32.256   0.100E-07
     TRS4 it   8 1.00000000   0.991E-07       0.000       32.256   0.100E-07
     TRS4 it   9 1.00000000   0.429E-13       0.000       32.256   0.100E-07
     Final TRS4 iteration    9 1.00000000   0.429E-13
     Chemical potential (mu):       0.01201
 
 PAO| energy:  -7.8054327736863724      penalty:   1.3837590046150884E-005
 PAO|CG| trace_G_new    8.1883692089965363E-005
 PAO|CG| trace_G_prev    2.2568448040964943E-004
 PAO|CG| trace_G_mix    7.4643930499876240E-007
 PAO|CG| trace_D    3.1916301022425495E-004
 PAO|CG| trace_D_Gnew  -3.6971570942219103E-007
 PAO|CG| beta:   0.35951631515685506     
 PAO| norm of gradient:   9.0489608292867174E-003
 PAO| energy improvement:  -5.0339348172556697E-005
 PAO| step     25                   -7.805432774  0.566E-03  0.444E+00     0.037
 PAO|LS| adapt:  T F F
 PAO|LS| adapt: scan_steps:    0.0000000000000000        0.0000000000000000        0.0000000000000000     
 PAO|LS| adapt: energies:   -7.8054327736863724        0.0000000000000000        0.0000000000000000     
 PAO| ======================= Iteration:        26 =============================

     Lanczos converged:  T threshold:   0.100E-02
     Est. extremal eigenvalues:    0.276E+01   0.183E+00
     Est. condition number :    0.151E+02

 Order=           3
     NS sqrt iter    1 1.00000000   0.705E+00       0.001       64.512
     NS sqrt iter    2 1.00000000   0.330E+00       0.001      110.592
     NS sqrt iter    3 1.00000000   0.746E-01       0.001      110.592
     NS sqrt iter    4 1.00000000   0.174E-02       0.001      110.592
     NS sqrt iter    5 1.00000000   0.451E-07       0.001       70.528
     Symmetrizing Results
     Final NS sqrt iter    5 1.00000000   0.342E-09

     Est. extremal eigenvalues     -0.93750     1.67781  converged:  T
     TRS4 it   1 1.00000000   0.863E+00       0.000       16.128   0.100E-07
     TRS4 it   2 1.00000000   0.610E+00       0.000       32.256   0.100E-07
     TRS4 it   3 1.00000000   0.415E+00       0.000       32.256   0.100E-07
     TRS4 it   4 1.00000000   0.209E+00       0.000       32.256   0.100E-07
     TRS4 it   5 1.00000000   0.655E-01       0.000       32.256   0.100E-07
     TRS4 it   6 1.00000000   0.810E-02       0.000       32.256   0.100E-07
     TRS4 it   7 1.00000000   0.166E-03       0.000       32.256   0.100E-07
     TRS4 it   8 1.00000000   0.976E-07       0.000       32.256   0.100E-07
     TRS4 it   9 1.00000000   0.412E-13       0.000       32.256   0.100E-07
     Final TRS4 iteration    9 1.00000000   0.412E-13
     Chemical potential (mu):       0.01215
 
 PAO| energy:  -7.8054372345974645      penalty:   1.3109142906400566E-005
 PAO|LS| adapt:  T T F
 PAO|LS| adapt: scan_steps:    0.0000000000000000       0.44351759018444775        0.0000000000000000     
 PAO|LS| adapt: energies:   -7.8054327736863724       -7.8054372345974645        0.0000000000000000     
 PAO| ======================= Iteration:        27 =============================

     Lanczos converged:  T threshold:   0.100E-02
     Est. extremal eigenvalues:    0.276E+01   0.183E+00
     Est. condition number :    0.150E+02

 Order=           3
     NS sqrt iter    1 1.00000000   0.705E+00       0.001       64.512
     NS sqrt iter    2 1.00000000   0.329E+00       0.001      110.592
     NS sqrt iter    3 1.00000000   0.745E-01       0.001      110.592
     NS sqrt iter    4 1.00000000   0.174E-02       0.001      110.592
     NS sqrt iter    5 1.00000000   0.448E-07       0.001       70.528
     Symmetrizing Results
     Final NS sqrt iter    5 1.00000000   0.340E-09

     Est. extremal eigenvalues     -0.93751     1.67747  converged:  T
     TRS4 it   1 1.00000000   0.863E+00       0.000       16.128   0.100E-07
     TRS4 it   2 1.00000000   0.610E+00       0.000       32.256   0.100E-07
     TRS4 it   3 1.00000000   0.415E+00       0.000       32.256   0.100E-07
     TRS4 it   4 1.00000000   0.209E+00       0.000       32.256   0.100E-07
     TRS4 it   5 1.00000000   0.654E-01       0.000       32.256   0.100E-07
     TRS4 it   6 1.00000000   0.808E-02       0.000       32.256   0.100E-07
     TRS4 it   7 1.00000000   0.165E-03       0.000       32.256   0.100E-07
     TRS4 it   8 1.00000000   0.962E-07       0.000       32.256   0.100E-07
     TRS4 it   9 1.00000000   0.402E-13       0.000       32.256   0.100E-07
     Final TRS4 iteration    9 1.00000000   0.402E-13
     Chemical potential (mu):       0.01230
 
 PAO| energy:  -7.8053777552028896      penalty:   1.2404911623393981E-005
 PAO|LS| adapt:  T T T
 PAO|LS| adapt: scan_steps:    0.0000000000000000       0.44351759018444775       0.88703518036889550     
 PAO|LS| adapt: energies:   -7.8054327736863724       -7.8054372345974645       -7.8053777552028896     
 PAO|LS| adapt: suggested step_size:   0.25270160208922143     
 PAO|LS| adapt: predicted energy  -7.8054431522918932     
 PAO| ======================= Iteration:        28 =============================

     Lanczos converged:  T threshold:   0.100E-02
     Est. extremal eigenvalues:    0.276E+01   0.183E+00
     Est. condition number :    0.151E+02

 Order=           3
     NS sqrt iter    1 1.00000000   0.705E+00       0.001       64.512
     NS sqrt iter    2 1.00000000   0.330E+00       0.001      110.592
     NS sqrt iter    3 1.00000000   0.746E-01       0.001      110.592
     NS sqrt iter    4 1.00000000   0.174E-02       0.001      110.592
     NS sqrt iter    5 1.00000000   0.452E-07       0.001       70.528
     Symmetrizing Results
     Final NS sqrt iter    5 1.00000000   0.343E-09

     Est. extremal eigenvalues     -0.93750     1.67796  converged:  T
     TRS4 it   1 1.00000000   0.863E+00       0.000       16.128   0.100E-07
     TRS4 it   2 1.00000000   0.610E+00       0.000       32.256   0.100E-07
     TRS4 it   3 1.00000000   0.415E+00       0.000       32.256   0.100E-07
     TRS4 it   4 1.00000000   0.209E+00       0.000       32.256   0.100E-07
     TRS4 it   5 1.00000000   0.655E-01       0.000       32.256   0.100E-07
     TRS4 it   6 1.00000000   0.811E-02       0.000       32.256   0.100E-07
     TRS4 it   7 1.00000000   0.166E-03       0.000       32.256   0.100E-07
     TRS4 it   8 1.00000000   0.983E-07       0.000       32.256   0.100E-07
     TRS4 it   9 1.00000000   0.419E-13       0.000       32.256   0.100E-07
     Final TRS4 iteration    9 1.00000000   0.419E-13
     Chemical potential (mu):       0.01209
 
 PAO| energy:  -7.8054431426473680      penalty:   1.3419556932289597E-005
 PAO|CG| trace_G_new    3.3652697537020693E-005
 PAO|CG| trace_G_prev    8.1883692089965363E-005
 PAO|CG| trace_G_mix    5.7200577009713706E-008
 PAO|CG| trace_D    1.2340198103896979E-004
 PAO|CG| trace_D_Gnew  -2.7383547532645313E-008
 PAO|CG| beta:   0.41028312356872854     
 PAO| norm of gradient:   5.8010945119882935E-003
 PAO| energy improvement:  -1.0368960995599252E-005
 PAO| step     28                   -7.805443143  0.363E-03  0.253E+00     0.037
 PAO|LS| adapt:  T F F
 PAO|LS| adapt: scan_steps:    0.0000000000000000        0.0000000000000000        0.0000000000000000     
 PAO|LS| adapt: energies:   -7.8054431426473680        0.0000000000000000        0.0000000000000000     
 PAO| ======================= Iteration:        29 =============================

     Lanczos converged:  T threshold:   0.100E-02
     Est. extremal eigenvalues:    0.276E+01   0.183E+00
     Est. condition number :    0.151E+02

 Order=           3
     NS sqrt iter    1 1.00000000   0.705E+00       0.001       64.512
     NS sqrt iter    2 1.00000000   0.330E+00       0.001      110.592
     NS sqrt iter    3 1.00000000   0.746E-01       0.001      110.592
     NS sqrt iter    4 1.00000000   0.174E-02       0.001      110.592
     NS sqrt iter    5 1.00000000   0.451E-07       0.001       70.528
     Symmetrizing Results
     Final NS sqrt iter    5 1.00000000   0.343E-09

     Est. extremal eigenvalues     -0.93751     1.67787  converged:  T
     TRS4 it   1 1.00000000   0.863E+00       0.000       16.128   0.100E-07
     TRS4 it   2 1.00000000   0.610E+00       0.000       32.256   0.100E-07
     TRS4 it   3 1.00000000   0.415E+00       0.000       32.256   0.100E-07
     TRS4 it   4 1.00000000   0.209E+00       0.000       32.256   0.100E-07
     TRS4 it   5 1.00000000   0.654E-01       0.000       32.256   0.100E-07
     TRS4 it   6 1.00000000   0.808E-02       0.000       32.256   0.100E-07
     TRS4 it   7 1.00000000   0.165E-03       0.000       32.256   0.100E-07
     TRS4 it   8 1.00000000   0.969E-07       0.000       32.256   0.100E-07
     TRS4 it   9 1.00000000   0.402E-13       0.000       32.256   0.100E-07
     Final TRS4 iteration    9 1.00000000   0.402E-13
     Chemical potential (mu):       0.01224
 
 PAO| energy:  -7.8054506220286184      penalty:   1.2977400639672076E-005
 PAO|LS| adapt:  T T F
 PAO|LS| adapt: scan_steps:    0.0000000000000000       0.25270160208922143        0.0000000000000000     
 PAO|LS| adapt: energies:   -7.8054431426473680       -7.8054506220286184        0.0000000000000000     
 PAO| ======================= Iteration:        30 =============================

     Lanczos converged:  T threshold:   0.100E-02
     Est. extremal eigenvalues:    0.276E+01   0.183E+00
     Est. condition number :    0.151E+02

 Order=           3
     NS sqrt iter    1 1.00000000   0.705E+00       0.001       64.512
     NS sqrt iter    2 1.00000000   0.329E+00       0.001      110.592
     NS sqrt iter    3 1.00000000   0.745E-01       0.001      110.592
     NS sqrt iter    4 1.00000000   0.174E-02       0.001      110.592
     NS sqrt iter    5 1.00000000   0.450E-07       0.001       70.528
     Symmetrizing Results
     Final NS sqrt iter    5 1.00000000   0.342E-09

     Est. extremal eigenvalues     -0.93751     1.67778  converged:  T
     TRS4 it   1 1.00000000   0.863E+00       0.000       16.128   0.100E-07
     TRS4 it   2 1.00000000   0.610E+00       0.000       32.256   0.100E-07
     TRS4 it   3 1.00000000   0.415E+00       0.000       32.256   0.100E-07
     TRS4 it   4 1.00000000   0.209E+00       0.000       32.256   0.100E-07
     TRS4 it   5 1.00000000   0.653E-01       0.000       32.256   0.100E-07
     TRS4 it   6 1.00000000   0.806E-02       0.000       32.256   0.100E-07
     TRS4 it   7 1.00000000   0.164E-03       0.000       32.256   0.100E-07
     TRS4 it   8 1.00000000   0.955E-07       0.000       32.256   0.100E-07
     TRS4 it   9 1.00000000   0.401E-13       0.000       32.256   0.100E-07
     Final TRS4 iteration    9 1.00000000   0.401E-13
     Chemical potential (mu):       0.01239
 
 PAO| energy:  -7.8054560467651957      penalty:   1.2543555817401768E-005
 PAO|LS| adapt:  T T F
 PAO|LS| adapt: scan_steps:    0.0000000000000000       0.50540320417844287        0.0000000000000000     
 PAO|LS| adapt: energies:   -7.8054431426473680       -7.8054560467651957        0.0000000000000000     
 PAO| ======================= Iteration:        31 =============================

     Lanczos converged:  T threshold:   0.100E-02
     Est. extremal eigenvalues:    0.276E+01   0.183E+00
     Est. condition number :    0.151E+02

 Order=           3
     NS sqrt iter    1 1.00000000   0.704E+00       0.001       64.512
     NS sqrt iter    2 1.00000000   0.329E+00       0.001      110.592
     NS sqrt iter    3 1.00000000   0.743E-01       0.001      110.592
     NS sqrt iter    4 1.00000000   0.173E-02       0.001      110.592
     NS sqrt iter    5 1.00000000   0.449E-07       0.001       70.528
     Symmetrizing Results
     Final NS sqrt iter    5 1.00000000   0.340E-09

     Est. extremal eigenvalues     -0.93751     1.67760  converged:  T
     TRS4 it   1 1.00000000   0.863E+00       0.000       16.128   0.100E-07
     TRS4 it   2 1.00000000   0.610E+00       0.000       32.256   0.100E-07
     TRS4 it   3 1.00000000   0.415E+00       0.000       32.256   0.100E-07
     TRS4 it   4 1.00000000   0.208E+00       0.000       32.256   0.100E-07
     TRS4 it   5 1.00000000   0.652E-01       0.000       32.256   0.100E-07
     TRS4 it   6 1.00000000   0.802E-02       0.000       32.256   0.100E-07
     TRS4 it   7 1.00000000   0.162E-03       0.000       32.256   0.100E-07
     TRS4 it   8 1.00000000   0.928E-07       0.000       32.256   0.100E-07
     TRS4 it   9 1.00000000   0.368E-13       0.000       32.256   0.100E-07
     Final TRS4 iteration    9 1.00000000   0.368E-13
     Chemical potential (mu):       0.01269
 
 PAO| energy:  -7.8054607351116019      penalty:   1.1700618138829166E-005
 PAO|LS| Need extra step
 PAO|LS| adapt:  T T F
 PAO|LS| adapt: scan_steps:    0.0000000000000000        1.0108064083568857        0.0000000000000000     
 PAO|LS| adapt: energies:   -7.8054431426473680       -7.8054607351116019        0.0000000000000000     
 PAO| ======================= Iteration:        32 =============================

     Lanczos converged:  T threshold:   0.100E-02
     Est. extremal eigenvalues:    0.275E+01   0.183E+00
     Est. condition number :    0.150E+02

 Order=           3
     NS sqrt iter    1 1.00000000   0.703E+00       0.001       64.512
[...]
     Final NS sqrt iter    5 1.00000000   0.401E-09

     Est. extremal eigenvalues     -0.93720     1.62689  converged:  T
     TRS4 it   1 1.00000000   0.876E+00       0.000       16.128   0.100E-07
     TRS4 it   2 1.00000000   0.631E+00       0.000       32.256   0.100E-07
     TRS4 it   3 1.00000000   0.455E+00       0.000       32.256   0.100E-07
     TRS4 it   4 1.00000000   0.278E+00       0.000       32.256   0.100E-07
     TRS4 it   5 1.00000000   0.138E+00       0.000       32.256   0.100E-07
     TRS4 it   6 1.00000000   0.434E-01       0.000       32.256   0.100E-07
     TRS4 it   7 1.00000000   0.605E-02       0.000       32.256   0.100E-07
     TRS4 it   8 1.00000000   0.156E-03       0.000       32.256   0.100E-07
     TRS4 it   9 1.00000000   0.110E-06       0.000       32.256   0.100E-07
     TRS4 it  10 1.00000000   0.542E-13       0.000       32.256   0.100E-07
     Final TRS4 iteration   10 1.00000000   0.542E-13
     Chemical potential (mu):      -0.07664
 
 PAO| energy:  -7.8048575064064281      penalty:   3.6036589243540983E-008
 PAO|CG| warming up with steepest descent
 PAO|CG| beta:    0.0000000000000000     
 PAO| norm of gradient:   1.5368295601827950E-004
 PAO| energy improvement:  -6.2078173712620810E-009
 PAO| step    409                   -7.804857506  0.961E-05  0.268E+00     0.053
 PAO| converged after          409  steps :-)
 PAO| Recalculating energy after mixing.

     Lanczos converged:  T threshold:   0.100E-02
     Est. extremal eigenvalues:    0.252E+01   0.190E+00
     Est. condition number :    0.132E+02

 Order=           3
     NS sqrt iter    1 1.00000000   0.639E+00       0.001       64.512
     NS sqrt iter    2 1.00000000   0.278E+00       0.001      110.592
     NS sqrt iter    3 1.00000000   0.492E-01       0.001      110.592
     NS sqrt iter    4 1.00000000   0.805E-03       0.001      110.592
     NS sqrt iter    5 1.00000000   0.690E-08       0.001       38.272
     Symmetrizing Results
     Final NS sqrt iter    5 1.00000000   0.401E-09

     Est. extremal eigenvalues     -0.93720     1.62689  converged:  T
     TRS4 it   1 1.00000000   0.876E+00       0.000       16.128   0.100E-07
     TRS4 it   2 1.00000000   0.631E+00       0.000       32.256   0.100E-07
     TRS4 it   3 1.00000000   0.455E+00       0.000       32.256   0.100E-07
     TRS4 it   4 1.00000000   0.278E+00       0.000       32.256   0.100E-07
     TRS4 it   5 1.00000000   0.138E+00       0.000       32.256   0.100E-07
     TRS4 it   6 1.00000000   0.434E-01       0.000       32.256   0.100E-07
     TRS4 it   7 1.00000000   0.605E-02       0.000       32.256   0.100E-07
     TRS4 it   8 1.00000000   0.156E-03       0.000       32.256   0.100E-07
     TRS4 it   9 1.00000000   0.110E-06       0.000       32.256   0.100E-07
     TRS4 it  10 1.00000000   0.543E-13       0.000       32.256   0.100E-07
     Final TRS4 iteration   10 1.00000000   0.543E-13
     Chemical potential (mu):      -0.07664
 
 PAO| energy:  -7.8048575048544615      penalty:   3.6428573866913937E-008
 PAO| Writing restart file.
     Est. extremal eigenvalues     -0.93720     1.62689  converged:  T
     TRS4 it   1 1.00000000   0.876E+00       0.000       16.128   0.100E-07
     TRS4 it   2 1.00000000   0.631E+00       0.000       32.256   0.100E-07
     TRS4 it   3 1.00000000   0.455E+00       0.000       32.256   0.100E-07
     TRS4 it   4 1.00000000   0.278E+00       0.000       32.256   0.100E-07
     TRS4 it   5 1.00000000   0.138E+00       0.001       32.256   0.100E-07
     TRS4 it   6 1.00000000   0.434E-01       0.000       32.256   0.100E-07
     TRS4 it   7 1.00000000   0.605E-02       0.000       32.256   0.100E-07
     TRS4 it   8 1.00000000   0.156E-03       0.000       32.256   0.100E-07
     TRS4 it   9 1.00000000   0.110E-06       0.000       32.256   0.100E-07
     TRS4 it  10 1.00000000   0.543E-13       0.000       32.256   0.100E-07
     Final TRS4 iteration   10 1.00000000   0.543E-13
     Chemical potential (mu):      -0.07664

 SCF     1       -34.449913297       -34.449913297    1.767693

*********************************************************
 Using MIXING_FRACTION=0.450 to mix KS matrix:  iscf=  2
 KS_nw=0.450*KS + 0.550*KS_old
*********************************************************
     Est. extremal eigenvalues     -0.93721     1.62689  converged:  T
     TRS4 it   1 1.00000000   0.876E+00       0.000       16.128   0.100E-07
     TRS4 it   2 1.00000000   0.631E+00       0.000       32.256   0.100E-07
     TRS4 it   3 1.00000000   0.455E+00       0.000       32.256   0.100E-07
     TRS4 it   4 1.00000000   0.278E+00       0.000       32.256   0.100E-07
     TRS4 it   5 1.00000000   0.138E+00       0.000       32.256   0.100E-07
     TRS4 it   6 1.00000000   0.434E-01       0.001       32.256   0.100E-07
     TRS4 it   7 1.00000000   0.605E-02       0.000       32.256   0.100E-07
     TRS4 it   8 1.00000000   0.156E-03       0.000       32.256   0.100E-07
     TRS4 it   9 1.00000000   0.110E-06       0.000       32.256   0.100E-07
     TRS4 it  10 1.00000000   0.553E-13       0.000       32.256   0.100E-07
     Final TRS4 iteration   10 1.00000000   0.553E-13
     Chemical potential (mu):      -0.07664

 SCF     2       -34.449913297        -0.000000000    1.675099


 SCF run converged in     2 steps.

 PAO| Storing density matrix for ASPC guess in slot:           1

 ENERGY| Total FORCE_EVAL ( QS ) energy [a.u.]:              -34.449913297302672

 -------------------------------------------------------------------------------
 -                                                                             -
 -                                DBCSR STATISTICS                             -
 -                                                                             -
 -------------------------------------------------------------------------------
 COUNTER                                    TOTAL       BLAS       SMM       ACC
 flops     5 x     5 x     4                20000       0.0%    100.0%      0.0%
 flops    13 x     5 x     4                20800       0.0%    100.0%      0.0%
 flops     5 x    13 x     4                20800       0.0%    100.0%      0.0%
 flops    13 x    13 x     4                40560       0.0%    100.0%      0.0%
 flops     4 x     4 x     5              3214080       0.0%    100.0%      0.0%
 flops     5 x     4 x     5              3926400       0.0%    100.0%      0.0%
 flops     4 x     4 x    13              4178304       0.0%    100.0%      0.0%
 flops    13 x     4 x     5              5104320       0.0%    100.0%      0.0%
 flops     5 x     4 x    13              5104320       0.0%    100.0%      0.0%
 flops     5 x     4 x     4              6227840       0.0%    100.0%      0.0%
 flops    13 x     4 x    13              6635616       0.0%    100.0%      0.0%
 flops    13 x     4 x     4              8265920       0.0%    100.0%      0.0%
 flops     4 x     4 x     4            415649792       0.0%    100.0%      0.0%
 flops inhomo. stacks                           0       0.0%      0.0%      0.0%
 flops total                       458.408752E+06       0.0%    100.0%      0.0%
 flops max/rank                    458.408752E+06       0.0%    100.0%      0.0%
 matmuls inhomo. stacks                         0       0.0%      0.0%      0.0%
 matmuls total                            3380572       0.0%    100.0%      0.0%
 number of processed stacks                 26947       0.0%    100.0%      0.0%
 average stack size                                     0.0     125.5       0.0
 marketing flops                   745.837248E+06
 -------------------------------------------------------------------------------
 # multiplications                          22535
 max memory usage/rank             506.871808E+06
 # max total images/rank                        1
 # max 3D layers                                1
 # MPI messages exchanged                       0
 -------------------------------------------------------------------------------

 -------------------------------------------------------------------------------
 -                                                                             -
 -                                DBM STATISTICS                               -
 -                                                                             -
 -------------------------------------------------------------------------------
    M  x    N  x    K                                          COUNT     PERCENT
 -------------------------------------------------------------------------------

 -------------------------------------------------------------------------------
 -                                                                             -
 -                                GRID STATISTICS                              -
 -                                                                             -
 -------------------------------------------------------------------------------
 LP    KERNEL             BACKEND                              COUNT     PERCENT
 2     collocate ortho    REF                                  38000      30.74%
 2     integrate ortho    REF                                  38000      30.74%
 3     collocate ortho    REF                                  19550      15.82%
 3     integrate ortho    REF                                  19550      15.82%
 4     collocate ortho    REF                                   4250       3.44%
 4     integrate ortho    REF                                   4250       3.44%
 0     collocate general  REF                                      6       0.00%
 -------------------------------------------------------------------------------

 MEMORY| Estimated peak process memory [MiB]                                 484

 -------------------------------------------------------------------------------
 -                                                                             -
 -                           R E F E R E N C E S                               -
 -                                                                             -
 -------------------------------------------------------------------------------
 
 CP2K version 2023.1 (Development Version), the CP2K developers group (2023).
 CP2K is freely available from https://www.cp2k.org/ .

 Kuehne,Thomas D.; Iannuzzi,Marcella; Del Ben,Mauro;
 Rybkin,Vladimir V.; Seewald,Patrick; Stein,Frederick; Laino,Teodoro;
 Khaliullin,Rustam Z.; Schuett,Ole; Schiffmann,Florian; Golze,Dorothea;
 Wilhelm,Jan; Chulkov,Sergey; Bani-Hashemian,Mohammad Hossein;
 Weber,Valery; Borstnik,Urban; Taillefumier,Mathieu;
 Jakobovits,Alice Shoshana; Lazzaro,Alfio; Pabst,Hans; Mueller,Tiziano;
 Schade,Robert; Guidon,Manuel; Andermatt,Samuel; Holmberg,Nico;
 Schenter,Gregory K.; Hehn,Anna; Bussy,Augustin; Belleflamme,Fabian;
 Tabacchi,Gloria; Gloess,Andreas; Lass,Michael; Bethune,Iain;
 Mundy,Christopher J.; Plessl,Christian; Watkins,Matt;
 VandeVondele,Joost; Krack,Matthias; Hutter,Juerg. 
 The Journal of Chemical Physics, 152 (19), (2020). 
 CP2K: An electronic structure and molecular dynamics software package -
 Quickstep: Efficient and accurate electronic structure calculations.
 https://doi.org/10.1063/5.0007045

 Schuett, O; VandeVondele, J. 
 Journal of Chemical Theory and Computation, 14, (2018). 
 Machine Learning Adaptive Basis Sets for Efficient Large Scale
 Density Functional Theory Simulation.
 https://doi.org/10.1021/acs.jctc.8b00378

 Schuett, Ole; Messmer, Peter; Hutter, Juerg; VandeVondele, Joost. 
 Electronic Structure Calculations on Graphics Processing Units, John
 Wiley & Sons, Ltd, 173-190 (2016). 
 GPU-Accelerated Sparse Matrix-Matrix Multiplication for
 Linear Scaling Density Functional Theory.
 https://doi.org/10.1002/9781118670712.ch8

 Heinecke, A; Henry, G; Hutchinson, M; Pabst, H. 
 Proceedings of Intl. Supercomputing Conference, 981-991 (2016). 
 LIBXSMM: Accelerating Small Matrix Multiplications
 by Runtime Code Generation.
 https://doi.org/10.1109/SC.2016.83

 Borstnik, U; VandeVondele, J; Weber, V; Hutter, J. 
 PARALLEL COMPUTING, 40 (5-6), 47-58 (2014). 
 Sparse matrix multiplication: The distributed block-compressed sparse
 row library.
 https://doi.org/10.1016/j.parco.2014.03.012

 Hutter, J; Iannuzzi, M; Schiffmann, F; VandeVondele, J. 
 WIREs Comput Mol Sci., 4 (1), 15-25 (2014). 
 CP2K: atomistic simulations of condensed matter systems.
 https://doi.org/10.1002/wcms.1159

 VandeVondele, J; Borstnik, U; Hutter, J. 
 JOURNAL OF CHEMICAL THEORY AND COMPUTATION, 8 (10), 3565-3573 (2012). 
 Linear Scaling Self-Consistent Field Calculations with Millions of Atoms
 in the Condensed Phase.
 https://doi.org/10.1021/ct200897x

 VandeVondele, J; Hutter, J. 
 JOURNAL OF CHEMICAL PHYSICS, 127 (11), 114105 (2007). 
 Gaussian basis sets for accurate calculations on molecular systems in
 gas and condensed phases.
 https://doi.org/10.1063/1.2770708

 Krack, M. 
 THEORETICAL CHEMISTRY ACCOUNTS, 114 (1-3), 145-152 (2005). 
 Pseudopotentials for H to Kr optimized for gradient-corrected
 exchange-correlation functionals.
 https://doi.org/10.1007/s00214-005-0655-y

 VandeVondele, J; Krack, M; Mohamed, F; Parrinello, M; Chassaing, T;
 Hutter, J. COMPUTER PHYSICS COMMUNICATIONS, 167 (2), 103-128 (2005). 
 QUICKSTEP: Fast and accurate density functional calculations using a
 mixed Gaussian and plane waves approach.
 https://doi.org/10.1016/j.cpc.2004.12.014

 Frigo, M; Johnson, SG. 
 PROCEEDINGS OF THE IEEE, 93 (2), 216-231 (2005). 
 The design and implementation of FFTW3.
 https://doi.org/10.1109/JPROC.2004.840301

 Niklasson, AMN; Tymczak, CJ; Challacombe, M. 
 JOURNAL OF CHEMICAL PHYSICS, 118 (19), 8611-8620 (2003). 
 Trace resetting density matrix purification in O(N)
 self-consistent-field theory.
 https://doi.org/10.1063/1.1559913

 Hartwigsen, C; Goedecker, S; Hutter, J. 
 PHYSICAL REVIEW B, 58 (7), 3641-3662 (1998). 
 Relativistic separable dual-space Gaussian pseudopotentials from H to Rn.
 https://doi.org/10.1103/PhysRevB.58.3641

 Lippert, G; Hutter, J; Parrinello, M. 
 MOLECULAR PHYSICS, 92 (3), 477-487 (1997). 
 A hybrid Gaussian and plane wave density functional scheme.
 https://doi.org/10.1080/002689797170220

 Perdew, JP; Burke, K; Ernzerhof, M. 
 PHYSICAL REVIEW LETTERS, 77 (18), 3865-3868 (1996). 
 Generalized gradient approximation made simple.
 https://doi.org/10.1103/PhysRevLett.77.3865

 Goedecker, S; Teter, M; Hutter, J. 
 PHYSICAL REVIEW B, 54 (3), 1703-1710 (1996). 
 Separable dual-space Gaussian pseudopotentials.
 https://doi.org/10.1103/PhysRevB.54.1703


 -------------------------------------------------------------------------------
 -                                                                             -
 -                                T I M I N G                                  -
 -                                                                             -
 -------------------------------------------------------------------------------
 SUBROUTINE                       CALLS  ASD         SELF TIME        TOTAL TIME
                                MAXIMUM       AVERAGE  MAXIMUM  AVERAGE  MAXIMUM
 CP2K                                 1  1.0    0.013    0.013   22.782   22.782
 qs_energies                          1  2.0    0.000    0.000   22.416   22.416
 ls_scf                               1  3.0    0.000    0.000   22.294   22.294
 ls_scf_main                          4  4.0    0.001    0.001   14.948   14.948
 ls_scf_dm_to_ks                      9  5.0    0.000    0.000   14.884   14.884
 qs_ks_update_qs_env                 10  6.0    0.000    0.000   13.395   13.395
 rebuild_ks_matrix                   10  7.0    0.000    0.000   13.395   13.395
 qs_ks_build_kohn_sham_matrix        10  8.0    0.002    0.002   13.395   13.395
 qs_vxc_create                       10  9.0    0.000    0.000    8.661    8.661
 xc_vxc_pw_create                    10 10.0    0.166    0.166    8.661    8.661
 pw_transfer                        191 11.1    0.018    0.018    6.980    6.980
 fft_wrap_pw1pw2                    171 12.3    0.002    0.002    6.810    6.810
 fft_wrap_pw1pw2_200                111 13.7    0.767    0.767    6.639    6.639
 xc_pw_derive                        60 12.0    0.001    0.001    5.118    5.118
 pao_update                           4  4.0    0.005    0.005    5.109    5.109
 xc_rho_set_and_dset_create          10 11.0    0.216    0.216    5.029    5.029
 pao_calc_energy                    412  5.0    0.002    0.002    4.629    4.629
 qs_rho_update_rho_low               10  6.0    0.000    0.000    3.690    3.690
 calculate_rho_elec                  10  7.0    0.034    0.034    3.690    3.690
 dbcsr_multiply_generic           22535  8.4    0.234    0.234    3.671    3.671
 sum_up_and_integrate                10  9.0    0.130    0.130    3.577    3.577
 integrate_v_rspace                  10 10.0    0.001    0.001    3.447    3.447
 xc_pw_divergence                    10 11.0    0.000    0.000    3.344    3.344
 fft3d_s                            172 14.2    2.585    2.585    2.598    2.598
 grid_integrate_task_list            10 11.0    2.594    2.594    2.594    2.594
 pao_dm_trs4                        412  6.0    0.002    0.002    2.426    2.426
 density_matrix_trs4                421  7.0    0.084    0.084    2.346    2.346
 grid_collocate_task_list            10  8.0    2.345    2.345    2.345    2.345
 pao_guess_initial_P                  1  4.0    0.000    0.000    2.206    2.206
 pao_read_preopt_dm                   1  5.0    0.000    0.000    2.206    2.206
 ls_scf_init_matrix_S               416  7.0    0.002    0.002    2.192    2.192
 pao_rebuild_S                      412  6.0    0.001    0.001    2.170    2.170
 matrix_sqrt_Newton_Schulz          416  8.0    0.049    0.049    1.979    1.979
 xc_functional_eval                  10 12.0    0.000    0.000    1.940    1.940
 pbe_lda_eval                        10 13.0    1.939    1.939    1.939    1.939
 pw_gather_s                         81 13.8    1.740    1.740    1.740    1.740
 pw_scatter_s                        90 14.7    1.684    1.684    1.684    1.684
 make_m2s                         45070  9.4    0.086    0.086    1.396    1.396
 multiply_cannon                  22535  9.4    0.552    0.552    1.357    1.357
 density_rs2pw                       10  8.0    0.001    0.001    1.311    1.311
 make_images                      45070 10.4    0.360    0.360    1.242    1.242
 pw_derive                           60 13.0    1.084    1.084    1.084    1.084
 potential_pw2rs                     10 11.0    0.001    0.001    0.852    0.852
 arnoldi_extremal                   837  8.5    0.002    0.002    0.723    0.723
 arnoldi_normal_ev                  837  9.5    0.006    0.006    0.721    0.721
 pw_copy                            120 11.8    0.719    0.719    0.719    0.719
 build_subspace                     837 10.5    0.031    0.031    0.565    0.565
 dbcsr_matrix_vector_mult         20080 11.5    0.064    0.064    0.523    0.523
 pw_axpy                             90 10.3    0.501    0.501    0.501    0.501
 pao_calc_AB                        543  5.8    0.000    0.000    0.476    0.476
 pao_calc_AB_equi                   543  6.8    0.014    0.014    0.476    0.476
 -------------------------------------------------------------------------------

 The number of warnings for this run is : 0
 
 -------------------------------------------------------------------------------
  **** **** ******  **  PROGRAM ENDED AT                 2023-02-01 10:45:42.608
 ***** ** ***  *** **   PROGRAM RAN ON                                    moritz
 **    ****   ******    PROGRAM RAN BY                                       ole
 ***** **    ** ** **   PROGRAM PROCESS ID                                148569
  **** **  *******  **  PROGRAM STOPPED IN /home/ole/git/pao_ml_equivar/2H2O_rot
                                           ations/phi_09
