 DBCSR| CPU Multiplication driver                                           BLAS
 DBCSR| Multrec recursion limit                                              512
 DBCSR| Multiplication stack size                                           1000
 DBCSR| Maximum elements for images                                    UNLIMITED
 DBCSR| Multiplicative factor virtual images                                   1
 DBCSR| Use multiplication densification                                       T
 DBCSR| Multiplication size stacks                                             3


  **** **** ******  **  PROGRAM STARTED AT               2019-03-28 17:33:26.394
 ***** ** ***  *** **   PROGRAM STARTED ON        oleschuett.zrh.corp.google.com
 **    ****   ******    PROGRAM STARTED BY                            oleschuett
 ***** **    ** ** **   PROGRAM PROCESS ID                                 34040
  **** **  *******  **  PROGRAM STARTED IN /usr/local/google/home/oleschuett/git
                                           /pao_ml_equivar/2H2O_rotations/phi_31

 CP2K| version string:                    CP2K version 7.0 (Development Version)
 CP2K| source code revision number:                                git:d9814d431
 CP2K| cp2kflags: libint fftw3 libxc libderiv_max_am1=5 libint_max_am=6         
 CP2K| is freely available from                            https://www.cp2k.org/
 CP2K| Program compiled at                          Mon Mar 25 16:50:07 CET 2019
 CP2K| Program compiled on                        oleschuett.zrh.corp.google.com
 CP2K| Program compiled for                                                local
 CP2K| Data directory path       /usr/local/google/home/oleschuett/git/cp2k/data
 CP2K| Input file name                                            2H2O_pao44.inp

 GLOBAL| Force Environment number                                              1
 GLOBAL| Basis set file name                                        BASIS_MOLOPT
 GLOBAL| Potential file name                                      GTH_POTENTIALS
 GLOBAL| MM Potential file name                                     MM_POTENTIAL
 GLOBAL| Coordinate file name                                         coords.xyz
 GLOBAL| Method name                                                        CP2K
 GLOBAL| Project name                                                 2H2O_pao44
 GLOBAL| Preferred FFT library                                             FFTW3
 GLOBAL| Preferred diagonalization lib.                                       SL
 GLOBAL| Run type                                                         ENERGY
 GLOBAL| All-to-all communication in single precision                          F
 GLOBAL| FFTs using library dependent lengths                                  F
 GLOBAL| Global print level                                                  LOW
 GLOBAL| MPI I/O enabled                                                       T
 GLOBAL| Total number of message passing processes                             1
 GLOBAL| Number of threads for this process                                    1
 GLOBAL| This output is from process                                           0
 GLOBAL| CPU model name :  Intel(R) Xeon(R) CPU E5-1650 v4 @ 3.60GHz

 MEMORY| system memory details [Kb]
 MEMORY|                        rank 0           min           max       average
 MEMORY| MemTotal             65953612      65953612      65953612      65953612
 MEMORY| MemFree               4715344       4715344       4715344       4715344
 MEMORY| Buffers               2543220       2543220       2543220       2543220
 MEMORY| Cached               25366348      25366348      25366348      25366348
 MEMORY| Slab                  3622436       3622436       3622436       3622436
 MEMORY| SReclaimable          2421472       2421472       2421472       2421472
 MEMORY| MemLikelyFree        35046384      35046384      35046384      35046384


 GENERATE|  Preliminary Number of Bonds generated:                             0
 GENERATE|  Achieved consistency in connectivity generation.

 *******************************************************************************
 *******************************************************************************
 **                                                                           **
 **     #####                         ##              ##                      **
 **    ##   ##            ##          ##              ##                      **
 **   ##     ##                       ##            ######                    **
 **   ##     ##  ##   ##  ##   #####  ##  ##   ####   ##    #####    #####    **
 **   ##     ##  ##   ##  ##  ##      ## ##   ##      ##   ##   ##  ##   ##   **
 **   ##  ## ##  ##   ##  ##  ##      ####     ###    ##   ######   ######    **
 **    ##  ###   ##   ##  ##  ##      ## ##      ##   ##   ##       ##        **
 **     #######   #####   ##   #####  ##  ##  ####    ##    #####   ##        **
 **           ##                                                    ##        **
 **                                                                           **
 **                                                ... make the atoms dance   **
 **                                                                           **
 **            Copyright (C) by CP2K developers group (2000 - 2018)           **
 **                                                                           **
 *******************************************************************************


 TOTAL NUMBERS AND MAXIMUM NUMBERS

  Total number of            - Atomic kinds:                                   2
                             - Atoms:                                          6
                             - Shell sets:                                     6
                             - Shells:                                        22
                             - Primitive Cartesian functions:                 42
                             - Cartesian basis functions:                     48
                             - Spherical basis functions:                     46

  Maximum angular momentum of- Orbital basis functions:                        2
                             - Local part of the GTH pseudopotential:          2
                             - Non-local part of the GTH pseudopotential:      0

 ------------------------------ Linear scaling SCF -----------------------------
 eps_scf:                                                              0.100E-07
 eps_filter:                                                           0.100E-07
 mixing_fraction:                                                      0.450E+00
 max_scf:                                                                     25
 fixed chemical potential (mu)                                                 F
 has unit metric:                                                              F
 Computing inv(S):                                                             T
 Computing sqrt(S):                                                            T
 Computing s preconditioner                                                    F
 sign sqrt order:                                                              3
 Extrapolation order:                                                          1
 Use single precision matrices                                                 F
 S preconditioner type                                                      NONE
 Polarized Atomic Orbitals (PAO)                                               T
 Purification method                                   Trace resetting 4th order
 Cluster type                                                             ATOMIC
 Computing Chebyshev                                                       FALSE
 Using PAO                                                                     T
 -------------------------------------------------------------------------------

 
 PAO|                                  EPS_PAO                           0.1E-04
 PAO|                                  MIXING                            0.5E+00
 PAO|                                  MAX_PAO                              1000
 PAO|                                  MAX_CYCLES                           1000
 PAO|                                  PARAMETERIZATION                   DIRECT
 PAO|                                  PRECONDITION                            F
 PAO|                                  REGULARIZATION                    0.0E+00
 PAO|                                  EPS_PGF                           0.1E-09
 PAO|                                  PENALTY_DISTANCE                  0.1E+00
 PAO|                                  PENALTY_STRENGTH                  0.5E-02
 PAO|                                  LINPOT_PRECONDITION_DELTA         0.0E+00
 PAO|                                  LINPOT_INITGUESS_DELT             0.0E+00
 PAO|                                  LINPOT_REGULARIZATION_DELTA       0.0E+00
 PAO|                                  LINPOT_REGULARIZATION_STRENGTH    0.0E+00
 PAO|                                  OPTIMIZER                              CG
 PAO|                                  CG_INIT_STEPS                           2
 PAO|                                  CG_RESET_LIMIT                    0.1E+00
 PAO|                                  CHECK_UNITARY_TOL                -0.1E+01
 PAO|                                  CHECK_GRADIENT_TOL               -0.1E+01
 PAO|                                  NUM_GRADIENT_ORDER                      2
 PAO|                                  NUM_GRADIENT_EPS                  0.1E-07
 PAO|                                  PRINT%RESTART%WRITE_CYCLES            100
 PAO|                                  RESTART_FILE 
 PAO|                                  PREOPT_DM_FILE 2H2O_ref_LS_DM_SPIN_1_RESTART.dm
 PAO|                                  MACHINE_LEARNING%METHOD        GAUSSIAN_P
 PAO|                                  MACHINE_LEARNING%PRIOR               ZERO
 PAO|                                  MACHINE_LEARNING%DESCRIPTOR     POTENTIAL
 PAO|                                  MACHINE_LEARNING%TOLERANCE        0.1E-01
 PAO|                                  MACHINE_LEARNING%GP_NOISE_VAR     0.1E+00
 PAO|                                  MACHINE_LEARNING%GP_SCALE         0.5E-01
 

 Calculating atomic Fock matrix for atomic kind: O

 Electronic structure
    Total number of core electrons                                          2.00
    Total number of valence electrons                                       6.00
    Total number of electrons                                               8.00
    Multiplicity                                                   not specified
    S   [  2.00] 2.00
    P      4.00


 *******************************************************************************
                  Iteration          Convergence                     Energy [au]
 *******************************************************************************
                          1        0.708315                     -15.576645311500
                          2        0.608879                     -15.587933561584
                          3        0.102828E-01                 -15.656849565404
                          4        0.113889E-02                 -15.656866888140
                          5        0.434197E-03                 -15.656867072159
                          6        0.263771E-03                 -15.656867091904
                          7        0.478536E-06                 -15.656867103452

 Energy components [Hartree]           Total Energy ::          -15.656867103452
                                        Band Energy ::           -3.000198112285
                                     Kinetic Energy ::           11.759971203220
                                   Potential Energy ::          -27.416838306672
                                      Virial (-V/T) ::            2.331369510426
                                        Core Energy ::          -26.140716385623
                                          XC Energy ::           -3.154051012914
                                     Coulomb Energy ::           13.637900295084
                       Total Pseudopotential Energy ::          -37.935781716540
                       Local Pseudopotential Energy ::          -39.218907440693
                    Nonlocal Pseudopotential Energy ::            1.283125724153
                                        Confinement ::            0.350941276976

 Orbital energies  State     L     Occupation   Energy[a.u.]          Energy[eV]

                       1     0          2.000      -0.864471          -23.523463

                       1     1          4.000      -0.317814           -8.648154


 Total Electron Density at R=0:                                         0.000068

 Calculating atomic Fock matrix for atomic kind: H

 Electronic structure
    Total number of core electrons                                          0.00
    Total number of valence electrons                                       1.00
    Total number of electrons                                               1.00
    Multiplicity                                                   not specified
    S      1.00


 *******************************************************************************
                  Iteration          Convergence                     Energy [au]
 *******************************************************************************
                          1        0.437545E-02                  -0.424159432110
                          2        0.531356E-03                  -0.424178438213
                          3        0.259176E-06                  -0.424178722480

 Energy components [Hartree]           Total Energy ::           -0.424178722480
                                        Band Energy ::           -0.199015229016
                                     Kinetic Energy ::            0.464007633961
                                   Potential Energy ::           -0.888186356441
                                      Virial (-V/T) ::            1.914163240935
                                        Core Energy ::           -0.479160803564
                                          XC Energy ::           -0.244352904054
                                     Coulomb Energy ::            0.299334985138
                       Total Pseudopotential Energy ::           -0.962295316385
                       Local Pseudopotential Energy ::           -0.962295316385
                    Nonlocal Pseudopotential Energy ::            0.000000000000
                                        Confinement ::            0.191268788606

 Orbital energies  State     L     Occupation   Energy[a.u.]          Energy[eV]

                       1     0          1.000      -0.199015           -5.415480


 Total Electron Density at R=0:                                         0.242907
 PAO| Made initial guess for matrix_X with norm:   4.8989794855663558     

     Lanczos converged:  T threshold:   0.100E-02
     Est. extremal eigenvalues:    0.337E+01   0.112E+00
     Est. condition number :    0.299E+02
     NS sqrt iter    1 1.00000000   0.822E+00       0.002       38.028
     NS sqrt iter    2 1.00000000   0.440E+00       0.002       68.708
     NS sqrt iter    3 1.00000000   0.171E+00       0.002       71.155
     NS sqrt iter    4 1.00000000   0.209E-01       0.002       72.446
     NS sqrt iter    5 1.00000000   0.580E-04       0.001       63.923
     Final NS sqrt iter    5 1.00000000   0.359E-08

 PAO| Read restart DM 2H2O_ref_LS_DM_SPIN_1_RESTART.dm with checksum:    44.753332940329841     
 PAO| Quickstep energy from restart density:  -34.450865032190677     
 PAO| ======================= Iteration:         1 =============================

     Lanczos converged:  T threshold:   0.100E-02
     Est. extremal eigenvalues:    0.337E+01   0.112E+00
     Est. condition number :    0.299E+02
     NS sqrt iter    1 1.00000000   0.822E+00       0.001       54.156
     NS sqrt iter    2 1.00000000   0.440E+00       0.001       74.897
     NS sqrt iter    3 1.00000000   0.171E+00       0.002       66.762
     NS sqrt iter    4 1.00000000   0.209E-01       0.002       68.790
     NS sqrt iter    5 1.00000000   0.580E-04       0.002       60.035
     Final NS sqrt iter    5 1.00000000   0.359E-08

     Est. extremal eigenvalues     -0.91956     1.92009  converged:  T
     TRS4 it   1 1.00000000   0.895E+00       0.001       16.128   0.100E-07
     TRS4 it   2 1.00000000   0.701E+00       0.001       32.256   0.100E-07
     TRS4 it   3 1.00000000   0.502E+00       0.001       32.256   0.100E-07
     TRS4 it   4 1.00000000   0.315E+00       0.001       32.256   0.100E-07
     TRS4 it   5 1.00000000   0.157E+00       0.001       32.256   0.100E-07
     TRS4 it   6 1.00000000   0.493E-01       0.001       32.256   0.100E-07
     TRS4 it   7 1.00000000   0.672E-02       0.001       32.256   0.100E-07
     TRS4 it   8 1.00000000   0.177E-03       0.001       32.256   0.100E-07
     TRS4 it   9 1.00000000   0.140E-06       0.001       32.256   0.100E-07
     TRS4 it  10 1.00000000   0.884E-13       0.001       32.256   0.100E-07
     Final TRS4 iteration   10 1.00000000   0.884E-13
     Chemical potential (mu):      -0.06402
 
 PAO| energy:  -7.6193425080487547      penalty:   5.8548270309371981E-033
 PAO|CG| warming up with steepest descent
 PAO|CG| beta:    0.0000000000000000     
 PAO| norm of gradient:  0.78380196163168459     
 PAO|LS| adapt:  T F F
 PAO|LS| adapt: scan_steps:    0.0000000000000000        0.0000000000000000        0.0000000000000000     
 PAO|LS| adapt: energies:   -7.6193425080487547        0.0000000000000000        0.0000000000000000     
 PAO| ======================= Iteration:         2 =============================

     Lanczos converged:  T threshold:   0.100E-02
     Est. extremal eigenvalues:    0.328E+01   0.125E+00
     Est. condition number :    0.263E+02
     NS sqrt iter    1 1.00000000   0.805E+00       0.001       54.585
     NS sqrt iter    2 1.00000000   0.425E+00       0.001       93.830
     NS sqrt iter    3 1.00000000   0.153E+00       0.001       98.671
     NS sqrt iter    4 1.00000000   0.146E-01       0.001       97.371
     NS sqrt iter    5 1.00000000   0.194E-04       0.001       74.660
     Final NS sqrt iter    5 1.00000000   0.572E-09

     Est. extremal eigenvalues     -0.92323     1.86701  converged:  T
     TRS4 it   1 1.00000000   0.893E+00       0.001       16.128   0.100E-07
     TRS4 it   2 1.00000000   0.683E+00       0.001       32.256   0.100E-07
     TRS4 it   3 1.00000000   0.487E+00       0.001       32.256   0.100E-07
     TRS4 it   4 1.00000000   0.296E+00       0.001       32.256   0.100E-07
     TRS4 it   5 1.00000000   0.138E+00       0.001       32.256   0.100E-07
     TRS4 it   6 1.00000000   0.383E-01       0.001       32.256   0.100E-07
     TRS4 it   7 1.00000000   0.411E-02       0.001       32.256   0.100E-07
     TRS4 it   8 1.00000000   0.668E-04       0.001       32.256   0.100E-07
     TRS4 it   9 1.00000000   0.198E-07       0.001       32.256   0.100E-07
     Final TRS4 iteration    9 1.00000000   0.198E-07
     Chemical potential (mu):      -0.05212
 
 PAO| energy:  -7.6748855500471791      penalty:   2.2544806488610822E-008
 PAO|LS| adapt:  T T F
 PAO|LS| adapt: scan_steps:    0.0000000000000000       0.10000000000000001        0.0000000000000000     
 PAO|LS| adapt: energies:   -7.6193425080487547       -7.6748855500471791        0.0000000000000000     
 PAO| ======================= Iteration:         3 =============================

     Lanczos converged:  T threshold:   0.100E-02
     Est. extremal eigenvalues:    0.319E+01   0.136E+00
     Est. condition number :    0.235E+02
     NS sqrt iter    1 1.00000000   0.787E+00       0.002       38.043
     NS sqrt iter    2 1.00000000   0.408E+00       0.001       75.618
     NS sqrt iter    3 1.00000000   0.136E+00       0.002       67.043
     NS sqrt iter    4 1.00000000   0.101E-01       0.002       70.606
     NS sqrt iter    5 1.00000000   0.682E-05       0.001       73.562
     Final NS sqrt iter    5 1.00000000   0.720E-10

     Est. extremal eigenvalues     -0.92666     1.82409  converged:  T
     TRS4 it   1 1.00000000   0.892E+00       0.000       16.128   0.100E-07
     TRS4 it   2 1.00000000   0.667E+00       0.001       32.256   0.100E-07
     TRS4 it   3 1.00000000   0.473E+00       0.001       32.256   0.100E-07
     TRS4 it   4 1.00000000   0.277E+00       0.001       32.256   0.100E-07
     TRS4 it   5 1.00000000   0.120E+00       0.001       32.256   0.100E-07
     TRS4 it   6 1.00000000   0.289E-01       0.001       32.256   0.100E-07
     TRS4 it   7 1.00000000   0.234E-02       0.001       32.256   0.100E-07
     TRS4 it   8 1.00000000   0.216E-04       0.001       32.256   0.100E-07
     TRS4 it   9 1.00000000   0.208E-08       0.001       32.256   0.100E-07
     Final TRS4 iteration    9 1.00000000   0.208E-08
     Chemical potential (mu):      -0.03925
 
 PAO| energy:  -7.7179834957121800      penalty:   3.6071689927556093E-007
 PAO|LS| adapt:  T T F
 PAO|LS| adapt: scan_steps:    0.0000000000000000       0.20000000000000001        0.0000000000000000     
 PAO|LS| adapt: energies:   -7.6193425080487547       -7.7179834957121800        0.0000000000000000     
 PAO| ======================= Iteration:         4 =============================

     Lanczos converged:  T threshold:   0.100E-02
     Est. extremal eigenvalues:    0.299E+01   0.154E+00
     Est. condition number :    0.195E+02
     NS sqrt iter    1 1.00000000   0.750E+00       0.002       35.785
     NS sqrt iter    2 1.00000000   0.373E+00       0.001       82.810
     NS sqrt iter    3 1.00000000   0.107E+00       0.001       87.853
     NS sqrt iter    4 1.00000000   0.502E-02       0.001       95.241
     NS sqrt iter    5 1.00000000   0.103E-05       0.001       78.961
     Final NS sqrt iter    5 1.00000000   0.178E-11

     Est. extremal eigenvalues     -0.93199     1.76101  converged:  T
     TRS4 it   1 1.00000000   0.889E+00       0.001       16.128   0.100E-07
     TRS4 it   2 1.00000000   0.641E+00       0.001       32.256   0.100E-07
     TRS4 it   3 1.00000000   0.445E+00       0.001       32.256   0.100E-07
     TRS4 it   4 1.00000000   0.241E+00       0.001       32.256   0.100E-07
     TRS4 it   5 1.00000000   0.891E-01       0.001       32.256   0.100E-07
     TRS4 it   6 1.00000000   0.154E-01       0.001       32.256   0.100E-07
     TRS4 it   7 1.00000000   0.630E-03       0.001       32.256   0.100E-07
     TRS4 it   8 1.00000000   0.152E-05       0.001       32.256   0.100E-07
     TRS4 it   9 1.00000000   0.103E-10       0.001       32.256   0.100E-07
     Final TRS4 iteration    9 1.00000000   0.103E-10
     Chemical potential (mu):      -0.01092
 
 PAO| energy:  -7.7652350004176824      penalty:   5.7714703520780487E-006
 PAO|LS| Need extra step
 PAO|LS| adapt:  T T F
 PAO|LS| adapt: scan_steps:    0.0000000000000000       0.40000000000000002        0.0000000000000000     
 PAO|LS| adapt: energies:   -7.6193425080487547       -7.7652350004176824        0.0000000000000000     
 PAO| ======================= Iteration:         5 =============================

     Lanczos converged:  T threshold:   0.100E-02
     Est. extremal eigenvalues:    0.263E+01   0.181E+00
     Est. condition number :    0.145E+02
     NS sqrt iter    1 1.00000000   0.685E+00       0.001       59.037
     NS sqrt iter    2 1.00000000   0.311E+00       0.001       92.074
     NS sqrt iter    3 1.00000000   0.659E-01       0.001      103.222
     NS sqrt iter    4 1.00000000   0.140E-02       0.001      101.600
     NS sqrt iter    5 1.00000000   0.281E-07       0.001       53.298
     Final NS sqrt iter    5 1.00000000   0.314E-08

     Est. extremal eigenvalues     -0.93322     1.68859  converged:  T
     TRS4 it   1 1.00000000   0.886E+00       0.000       16.128   0.100E-07
     TRS4 it   2 1.00000000   0.605E+00       0.001       32.256   0.100E-07
     TRS4 it   3 1.00000000   0.399E+00       0.001       32.256   0.100E-07
     TRS4 it   4 1.00000000   0.186E+00       0.001       32.256   0.100E-07
     TRS4 it   5 1.00000000   0.492E-01       0.001       32.256   0.100E-07
     TRS4 it   6 1.00000000   0.428E-02       0.001       32.256   0.100E-07
     TRS4 it   7 1.00000000   0.415E-04       0.001       32.256   0.100E-07
     TRS4 it   8 1.00000000   0.498E-08       0.001       32.256   0.100E-07
     Final TRS4 iteration    8 1.00000000   0.498E-08
     Chemical potential (mu):       0.03735
 
 PAO| energy:  -7.7104553835612988      penalty:   9.2343525342625311E-005
 PAO|LS| Need extra step
 PAO|LS| adapt:  T T T
 PAO|LS| adapt: scan_steps:    0.0000000000000000       0.40000000000000002       0.80000000000000004     
 PAO|LS| adapt: energies:   -7.6193425080487547       -7.7652350004176824       -7.7104553835612988     
 PAO|LS| adapt: suggested step_size:   0.49080771200769524     
 PAO|LS| adapt: predicted energy  -7.7704060952675178     
 PAO| ======================= Iteration:         6 =============================

     Lanczos converged:  T threshold:   0.100E-02
     Est. extremal eigenvalues:    0.290E+01   0.160E+00
     Est. condition number :    0.181E+02
     NS sqrt iter    1 1.00000000   0.733E+00       0.001       58.840
     NS sqrt iter    2 1.00000000   0.358E+00       0.001       85.118
     NS sqrt iter    3 1.00000000   0.952E-01       0.001       97.043
     NS sqrt iter    4 1.00000000   0.371E-02       0.001       87.840
     NS sqrt iter    5 1.00000000   0.450E-06       0.001       72.406
     Final NS sqrt iter    5 1.00000000   0.937E-11

     Est. extremal eigenvalues     -0.93347     1.73967  converged:  T
     TRS4 it   1 1.00000000   0.888E+00       0.000       16.128   0.100E-07
     TRS4 it   2 1.00000000   0.631E+00       0.001       32.256   0.100E-07
     TRS4 it   3 1.00000000   0.433E+00       0.001       32.256   0.100E-07
     TRS4 it   4 1.00000000   0.227E+00       0.001       32.256   0.100E-07
     TRS4 it   5 1.00000000   0.774E-01       0.001       32.256   0.100E-07
     TRS4 it   6 1.00000000   0.114E-01       0.001       32.256   0.100E-07
     TRS4 it   7 1.00000000   0.329E-03       0.001       32.256   0.100E-07
     TRS4 it   8 1.00000000   0.396E-06       0.001       32.256   0.100E-07
     TRS4 it   9 1.00000000   0.688E-12       0.001       32.256   0.100E-07
     Final TRS4 iteration    9 1.00000000   0.688E-12
     Chemical potential (mu):       0.00276
 
 PAO| energy:  -7.7696674451500769      penalty:   1.3082538327175579E-005
 PAO|CG| warming up with steepest descent
 PAO|CG| beta:    0.0000000000000000     
 PAO| norm of gradient:  0.41725767917649154     
 PAO| energy improvement: -0.15032493710132222     
 PAO| step      6                   -7.769667445  0.261E-01  0.491E+00     0.098
 PAO|LS| adapt:  T F F
 PAO|LS| adapt: scan_steps:    0.0000000000000000        0.0000000000000000        0.0000000000000000     
 PAO|LS| adapt: energies:   -7.7696674451500769        0.0000000000000000        0.0000000000000000     
 PAO| ======================= Iteration:         7 =============================

     Lanczos converged:  T threshold:   0.100E-02
     Est. extremal eigenvalues:    0.281E+01   0.174E+00
     Est. condition number :    0.161E+02
     NS sqrt iter    1 1.00000000   0.715E+00       0.001       48.280
     NS sqrt iter    2 1.00000000   0.337E+00       0.002       71.286
     NS sqrt iter    3 1.00000000   0.796E-01       0.001       80.920
     NS sqrt iter    4 1.00000000   0.226E-02       0.001       92.196
     NS sqrt iter    5 1.00000000   0.111E-06       0.001       73.744
     Final NS sqrt iter    5 1.00000000   0.111E-08

     Est. extremal eigenvalues     -0.93517     1.72535  converged:  T
     TRS4 it   1 1.00000000   0.887E+00       0.000       16.128   0.100E-07
     TRS4 it   2 1.00000000   0.629E+00       0.001       32.256   0.100E-07
     TRS4 it   3 1.00000000   0.433E+00       0.001       32.256   0.100E-07
     TRS4 it   4 1.00000000   0.227E+00       0.001       32.256   0.100E-07
     TRS4 it   5 1.00000000   0.781E-01       0.001       32.256   0.100E-07
     TRS4 it   6 1.00000000   0.113E-01       0.001       32.256   0.100E-07
     TRS4 it   7 1.00000000   0.308E-03       0.001       32.256   0.100E-07
     TRS4 it   8 1.00000000   0.329E-06       0.001       32.256   0.100E-07
     TRS4 it   9 1.00000000   0.467E-12       0.001       32.256   0.100E-07
     Final TRS4 iteration    9 1.00000000   0.467E-12
     Chemical potential (mu):       0.00472
 
 PAO| energy:  -7.7635694475208314      penalty:   1.9784697914753329E-005
 PAO|LS| adapt:  T F T
 PAO|LS| adapt: scan_steps:    0.0000000000000000        0.0000000000000000       0.49080771200769524     
 PAO|LS| adapt: energies:   -7.7696674451500769        0.0000000000000000       -7.7635694475208314     
 PAO| ======================= Iteration:         8 =============================

     Lanczos converged:  T threshold:   0.100E-02
     Est. extremal eigenvalues:    0.286E+01   0.167E+00
     Est. condition number :    0.171E+02
     NS sqrt iter    1 1.00000000   0.724E+00       0.001       53.521
     NS sqrt iter    2 1.00000000   0.348E+00       0.001       97.595
     NS sqrt iter    3 1.00000000   0.872E-01       0.001       97.923
     NS sqrt iter    4 1.00000000   0.291E-02       0.001       99.173
     NS sqrt iter    5 1.00000000   0.229E-06       0.001       80.651
     Final NS sqrt iter    5 1.00000000   0.290E-09

     Est. extremal eigenvalues     -0.93529     1.73194  converged:  T
     TRS4 it   1 1.00000000   0.887E+00       0.000       16.128   0.100E-07
     TRS4 it   2 1.00000000   0.630E+00       0.001       32.256   0.100E-07
     TRS4 it   3 1.00000000   0.432E+00       0.001       32.256   0.100E-07
     TRS4 it   4 1.00000000   0.226E+00       0.001       32.256   0.100E-07
     TRS4 it   5 1.00000000   0.775E-01       0.001       32.256   0.100E-07
     TRS4 it   6 1.00000000   0.114E-01       0.001       32.256   0.100E-07
     TRS4 it   7 1.00000000   0.327E-03       0.001       32.256   0.100E-07
     TRS4 it   8 1.00000000   0.383E-06       0.001       32.256   0.100E-07
     TRS4 it   9 1.00000000   0.641E-12       0.001       32.256   0.100E-07
     Final TRS4 iteration    9 1.00000000   0.641E-12
     Chemical potential (mu):       0.00328
 
 PAO| energy:  -7.7892666356706295      penalty:   1.4181672853190413E-005
 PAO|LS| adapt:  T T T
 PAO|LS| adapt: scan_steps:    0.0000000000000000       0.24540385600384762       0.49080771200769524     
 PAO|LS| adapt: energies:   -7.7696674451500769       -7.7892666356706295       -7.7635694475208314     
 PAO|LS| adapt: suggested step_size:   0.22888518303210859     
 PAO|LS| adapt: predicted energy  -7.7893692530767495     
 PAO| ======================= Iteration:         9 =============================

     Lanczos converged:  T threshold:   0.100E-02
     Est. extremal eigenvalues:    0.286E+01   0.167E+00
     Est. condition number :    0.172E+02
     NS sqrt iter    1 1.00000000   0.725E+00       0.001       60.003
     NS sqrt iter    2 1.00000000   0.348E+00       0.001       90.824
     NS sqrt iter    3 1.00000000   0.878E-01       0.001       95.434
     NS sqrt iter    4 1.00000000   0.296E-02       0.001       95.782
     NS sqrt iter    5 1.00000000   0.240E-06       0.001       74.140
     Final NS sqrt iter    5 1.00000000   0.295E-09

     Est. extremal eigenvalues     -0.93523     1.73243  converged:  T
     TRS4 it   1 1.00000000   0.887E+00       0.000       16.128   0.100E-07
     TRS4 it   2 1.00000000   0.630E+00       0.001       32.256   0.100E-07
     TRS4 it   3 1.00000000   0.432E+00       0.001       32.256   0.100E-07
     TRS4 it   4 1.00000000   0.226E+00       0.001       32.256   0.100E-07
     TRS4 it   5 1.00000000   0.775E-01       0.001       32.256   0.100E-07
     TRS4 it   6 1.00000000   0.114E-01       0.001       32.256   0.100E-07
     TRS4 it   7 1.00000000   0.327E-03       0.001       32.256   0.100E-07
     TRS4 it   8 1.00000000   0.385E-06       0.001       32.256   0.100E-07
     TRS4 it   9 1.00000000   0.648E-12       0.001       32.256   0.100E-07
     Final TRS4 iteration    9 1.00000000   0.648E-12
     Chemical potential (mu):       0.00322
 
 PAO| energy:  -7.7893938726480103      penalty:   1.4005680524107012E-005
 PAO|CG| trace_G_new    3.6792539395347656E-002
 PAO|CG| trace_G_prev   0.17410397083175194     
 PAO|CG| trace_G_mix   -1.4411035305748245E-003
 PAO|CG| trace_D   0.17410397083175194     
 PAO|CG| trace_D_Gnew   1.4411035305748245E-003
 PAO|CG| beta:   0.21960236026362751     
 PAO| norm of gradient:  0.19181381440174650     
 PAO| energy improvement:  -1.9726427497933408E-002
 PAO| step      9                   -7.789393873  0.120E-01  0.229E+00     0.061
 PAO|LS| adapt:  T F F
 PAO|LS| adapt: scan_steps:    0.0000000000000000        0.0000000000000000        0.0000000000000000     
 PAO|LS| adapt: energies:   -7.7893938726480103        0.0000000000000000        0.0000000000000000     
 PAO| ======================= Iteration:        10 =============================

     Lanczos converged:  T threshold:   0.100E-02
     Est. extremal eigenvalues:    0.282E+01   0.173E+00
     Est. condition number :    0.164E+02
     NS sqrt iter    1 1.00000000   0.717E+00       0.001       62.311
     NS sqrt iter    2 1.00000000   0.340E+00       0.001       95.853
     NS sqrt iter    3 1.00000000   0.822E-01       0.001       96.725
     NS sqrt iter    4 1.00000000   0.244E-02       0.001       93.021
     NS sqrt iter    5 1.00000000   0.134E-06       0.001       65.154
     Final NS sqrt iter    5 1.00000000   0.127E-08

     Est. extremal eigenvalues     -0.93612     1.72806  converged:  T
     TRS4 it   1 1.00000000   0.886E+00       0.000       16.128   0.100E-07
     TRS4 it   2 1.00000000   0.628E+00       0.001       32.256   0.100E-07
     TRS4 it   3 1.00000000   0.431E+00       0.001       32.256   0.100E-07
     TRS4 it   4 1.00000000   0.224E+00       0.001       32.256   0.100E-07
     TRS4 it   5 1.00000000   0.755E-01       0.001       32.256   0.100E-07
     TRS4 it   6 1.00000000   0.107E-01       0.001       32.256   0.100E-07
     TRS4 it   7 1.00000000   0.288E-03       0.001       32.256   0.100E-07
     TRS4 it   8 1.00000000   0.290E-06       0.001       32.256   0.100E-07
     TRS4 it   9 1.00000000   0.363E-12       0.001       32.256   0.100E-07
     Final TRS4 iteration    9 1.00000000   0.363E-12
     Chemical potential (mu):       0.00628
 
 PAO| energy:  -7.7944166251403137      penalty:   1.4538110179603861E-005
 PAO|LS| adapt:  T T F
 PAO|LS| adapt: scan_steps:    0.0000000000000000       0.22888518303210859        0.0000000000000000     
 PAO|LS| adapt: energies:   -7.7893938726480103       -7.7944166251403137        0.0000000000000000     
 PAO| ======================= Iteration:        11 =============================

     Lanczos converged:  T threshold:   0.100E-02
     Est. extremal eigenvalues:    0.279E+01   0.178E+00
     Est. condition number :    0.156E+02
     NS sqrt iter    1 1.00000000   0.709E+00       0.001       50.139
     NS sqrt iter    2 1.00000000   0.332E+00       0.002       68.150
     NS sqrt iter    3 1.00000000   0.768E-01       0.002       67.175
     NS sqrt iter    4 1.00000000   0.200E-02       0.002       69.089
     NS sqrt iter    5 1.00000000   0.732E-07       0.001       50.072
     Final NS sqrt iter    5 1.00000000   0.890E-09

     Est. extremal eigenvalues     -0.93604     1.72483  converged:  T
     TRS4 it   1 1.00000000   0.884E+00       0.000       16.128   0.100E-07
     TRS4 it   2 1.00000000   0.627E+00       0.001       32.256   0.100E-07
     TRS4 it   3 1.00000000   0.429E+00       0.001       32.256   0.100E-07
     TRS4 it   4 1.00000000   0.221E+00       0.001       32.256   0.100E-07
     TRS4 it   5 1.00000000   0.736E-01       0.001       32.256   0.100E-07
     TRS4 it   6 1.00000000   0.101E-01       0.001       32.256   0.100E-07
     TRS4 it   7 1.00000000   0.252E-03       0.001       32.256   0.100E-07
     TRS4 it   8 1.00000000   0.216E-06       0.001       32.256   0.100E-07
     TRS4 it   9 1.00000000   0.198E-12       0.001       32.256   0.100E-07
     Final TRS4 iteration    9 1.00000000   0.198E-12
     Chemical potential (mu):       0.00946
 
 PAO| energy:  -7.7930293212976682      penalty:   1.5734675288639503E-005
 PAO|LS| adapt:  T T T
 PAO|LS| adapt: scan_steps:    0.0000000000000000       0.22888518303210859       0.45777036606421717     
 PAO|LS| adapt: energies:   -7.7893938726480103       -7.7944166251403137       -7.7930293212976682     
 PAO|LS| adapt: suggested step_size:   0.29379103456448924     
 PAO|LS| adapt: predicted energy  -7.7946743546787465     
 PAO| ======================= Iteration:        12 =============================

     Lanczos converged:  T threshold:   0.100E-02
     Est. extremal eigenvalues:    0.281E+01   0.174E+00
     Est. condition number :    0.161E+02
     NS sqrt iter    1 1.00000000   0.715E+00       0.001       60.825
     NS sqrt iter    2 1.00000000   0.338E+00       0.001       89.098
     NS sqrt iter    3 1.00000000   0.806E-01       0.002       73.551
     NS sqrt iter    4 1.00000000   0.231E-02       0.001       85.274
     NS sqrt iter    5 1.00000000   0.113E-06       0.001       63.065
     Final NS sqrt iter    5 1.00000000   0.112E-08

     Est. extremal eigenvalues     -0.93619     1.72703  converged:  T
     TRS4 it   1 1.00000000   0.885E+00       0.001       16.128   0.100E-07
     TRS4 it   2 1.00000000   0.628E+00       0.001       32.256   0.100E-07
     TRS4 it   3 1.00000000   0.430E+00       0.001       32.256   0.100E-07
     TRS4 it   4 1.00000000   0.223E+00       0.001       32.256   0.100E-07
     TRS4 it   5 1.00000000   0.750E-01       0.001       32.256   0.100E-07
     TRS4 it   6 1.00000000   0.106E-01       0.001       32.256   0.100E-07
     TRS4 it   7 1.00000000   0.277E-03       0.001       32.256   0.100E-07
     TRS4 it   8 1.00000000   0.267E-06       0.001       32.256   0.100E-07
     TRS4 it   9 1.00000000   0.307E-12       0.001       32.256   0.100E-07
     Final TRS4 iteration    9 1.00000000   0.307E-12
     Chemical potential (mu):       0.00717
 
 PAO| energy:  -7.7946581471028473      penalty:   1.4802333448100947E-005
 PAO|CG| trace_G_new    1.1776405630205234E-002
 PAO|CG| trace_G_prev    3.6792539395347656E-002
 PAO|CG| trace_G_mix   -4.5541611438628120E-004
 PAO|CG| trace_D    4.4555798149960038E-002
 PAO|CG| trace_D_Gnew   2.0723810036147672E-004
 PAO|CG| beta:   0.33245386009257638     
 PAO| norm of gradient:  0.10851914867987693     
 PAO| energy improvement:  -5.2642744548370146E-003
 PAO| step     12                   -7.794658147  0.678E-02  0.294E+00     0.063
 PAO|LS| adapt:  T F F
 PAO|LS| adapt: scan_steps:    0.0000000000000000        0.0000000000000000        0.0000000000000000     
 PAO|LS| adapt: energies:   -7.7946581471028473        0.0000000000000000        0.0000000000000000     
 PAO| ======================= Iteration:        13 =============================

     Lanczos converged:  T threshold:   0.100E-02
     Est. extremal eigenvalues:    0.278E+01   0.179E+00
     Est. condition number :    0.156E+02
     NS sqrt iter    1 1.00000000   0.707E+00       0.001       61.361
     NS sqrt iter    2 1.00000000   0.331E+00       0.001       98.080
     NS sqrt iter    3 1.00000000   0.762E-01       0.001       97.378
     NS sqrt iter    4 1.00000000   0.196E-02       0.001      103.281
     NS sqrt iter    5 1.00000000   0.705E-07       0.001       70.971
     Final NS sqrt iter    5 1.00000000   0.839E-09

     Est. extremal eigenvalues     -0.93667     1.72042  converged:  T
     TRS4 it   1 1.00000000   0.885E+00       0.000       16.128   0.100E-07
     TRS4 it   2 1.00000000   0.625E+00       0.001       32.256   0.100E-07
     TRS4 it   3 1.00000000   0.426E+00       0.001       32.256   0.100E-07
     TRS4 it   4 1.00000000   0.218E+00       0.001       32.256   0.100E-07
     TRS4 it   5 1.00000000   0.715E-01       0.001       32.256   0.100E-07
     TRS4 it   6 1.00000000   0.954E-02       0.001       32.256   0.100E-07
     TRS4 it   7 1.00000000   0.223E-03       0.001       32.256   0.100E-07
     TRS4 it   8 1.00000000   0.168E-06       0.001       32.256   0.100E-07
     TRS4 it   9 1.00000000   0.120E-12       0.001       32.256   0.100E-07
     Final TRS4 iteration    9 1.00000000   0.120E-12
     Chemical potential (mu):       0.01164
 
 PAO| energy:  -7.7967224456631987      penalty:   1.5104888155355619E-005
 PAO|LS| adapt:  T T F
 PAO|LS| adapt: scan_steps:    0.0000000000000000       0.29379103456448924        0.0000000000000000     
 PAO|LS| adapt: energies:   -7.7946581471028473       -7.7967224456631987        0.0000000000000000     
 PAO| ======================= Iteration:        14 =============================

     Lanczos converged:  T threshold:   0.100E-02
     Est. extremal eigenvalues:    0.274E+01   0.183E+00
     Est. condition number :    0.150E+02
     NS sqrt iter    1 1.00000000   0.700E+00       0.001       61.542
     NS sqrt iter    2 1.00000000   0.324E+00       0.001       98.149
     NS sqrt iter    3 1.00000000   0.721E-01       0.001       85.150
     NS sqrt iter    4 1.00000000   0.167E-02       0.001       97.555
     NS sqrt iter    5 1.00000000   0.439E-07       0.001       68.025
     Final NS sqrt iter    5 1.00000000   0.377E-09

     Est. extremal eigenvalues     -0.93665     1.71409  converged:  T
     TRS4 it   1 1.00000000   0.884E+00       0.000       16.128   0.100E-07
     TRS4 it   2 1.00000000   0.622E+00       0.001       32.256   0.100E-07
     TRS4 it   3 1.00000000   0.423E+00       0.001       32.256   0.100E-07
     TRS4 it   4 1.00000000   0.214E+00       0.001       32.256   0.100E-07
     TRS4 it   5 1.00000000   0.681E-01       0.001       32.256   0.100E-07
     TRS4 it   6 1.00000000   0.861E-02       0.001       32.256   0.100E-07
     TRS4 it   7 1.00000000   0.179E-03       0.001       32.256   0.100E-07
     TRS4 it   8 1.00000000   0.106E-06       0.001       32.256   0.100E-07
     TRS4 it   9 1.00000000   0.470E-13       0.001       32.256   0.100E-07
     Final TRS4 iteration    9 1.00000000   0.470E-13
     Chemical potential (mu):       0.01600
 
 PAO| energy:  -7.7960860114838813      penalty:   1.5885521316728231E-005
 PAO|LS| adapt:  T T T
 PAO|LS| adapt: scan_steps:    0.0000000000000000       0.29379103456448924       0.58758206912897848     
 PAO|LS| adapt: energies:   -7.7946581471028473       -7.7967224456631987       -7.7960860114838813     
 PAO|LS| adapt: suggested step_size:   0.37145398646641931     
 PAO|LS| adapt: predicted energy  -7.7968168087901333     
 PAO| ======================= Iteration:        15 =============================

     Lanczos converged:  T threshold:   0.100E-02
     Est. extremal eigenvalues:    0.277E+01   0.180E+00
     Est. condition number :    0.154E+02
     NS sqrt iter    1 1.00000000   0.706E+00       0.001       50.202
     NS sqrt iter    2 1.00000000   0.329E+00       0.001       89.657
     NS sqrt iter    3 1.00000000   0.751E-01       0.002       68.363
     NS sqrt iter    4 1.00000000   0.188E-02       0.001       86.895
     NS sqrt iter    5 1.00000000   0.622E-07       0.001       59.142
     Final NS sqrt iter    5 1.00000000   0.462E-09

     Est. extremal eigenvalues     -0.93671     1.71873  converged:  T
     TRS4 it   1 1.00000000   0.884E+00       0.000       16.128   0.100E-07
     TRS4 it   2 1.00000000   0.624E+00       0.001       32.256   0.100E-07
     TRS4 it   3 1.00000000   0.425E+00       0.001       32.256   0.100E-07
     TRS4 it   4 1.00000000   0.217E+00       0.001       32.256   0.100E-07
     TRS4 it   5 1.00000000   0.705E-01       0.001       32.256   0.100E-07
     TRS4 it   6 1.00000000   0.929E-02       0.001       32.256   0.100E-07
     TRS4 it   7 1.00000000   0.210E-03       0.001       32.256   0.100E-07
     TRS4 it   8 1.00000000   0.149E-06       0.001       32.256   0.100E-07
     TRS4 it   9 1.00000000   0.931E-13       0.001       32.256   0.100E-07
     Final TRS4 iteration    9 1.00000000   0.931E-13
     Chemical potential (mu):       0.01281
 
 PAO| energy:  -7.7968137104753197      penalty:   1.5261703942008591E-005
 PAO|CG| trace_G_new    2.6267975969316289E-003
 PAO|CG| trace_G_prev    1.1776405630205234E-002
 PAO|CG| trace_G_mix    6.2197462217398146E-005
 PAO|CG| trace_D    1.6563166364162125E-002
 PAO|CG| trace_D_Gnew   3.3864423686525574E-005
 PAO|CG| beta:   0.21777443943815106     
 PAO| norm of gradient:   5.1252293577279340E-002
 PAO| energy improvement:  -2.1555633724723577E-003
 PAO| step     15                   -7.796813710  0.320E-02  0.371E+00     0.060
 PAO|LS| adapt:  T F F
 PAO|LS| adapt: scan_steps:    0.0000000000000000        0.0000000000000000        0.0000000000000000     
 PAO|LS| adapt: energies:   -7.7968137104753197        0.0000000000000000        0.0000000000000000     
 PAO| ======================= Iteration:        16 =============================

     Lanczos converged:  T threshold:   0.100E-02
     Est. extremal eigenvalues:    0.276E+01   0.180E+00
     Est. condition number :    0.153E+02
     NS sqrt iter    1 1.00000000   0.704E+00       0.002       41.839
     NS sqrt iter    2 1.00000000   0.327E+00       0.002       71.487
     NS sqrt iter    3 1.00000000   0.744E-01       0.001       81.272
     NS sqrt iter    4 1.00000000   0.182E-02       0.001       93.390
     NS sqrt iter    5 1.00000000   0.562E-07       0.001       66.060
     Final NS sqrt iter    5 1.00000000   0.424E-09

     Est. extremal eigenvalues     -0.93674     1.71763  converged:  T
     TRS4 it   1 1.00000000   0.885E+00       0.000       16.128   0.100E-07
     TRS4 it   2 1.00000000   0.623E+00       0.001       32.256   0.100E-07
     TRS4 it   3 1.00000000   0.424E+00       0.001       32.256   0.100E-07
     TRS4 it   4 1.00000000   0.215E+00       0.001       32.256   0.100E-07
     TRS4 it   5 1.00000000   0.693E-01       0.001       32.256   0.100E-07
     TRS4 it   6 1.00000000   0.898E-02       0.001       32.256   0.100E-07
     TRS4 it   7 1.00000000   0.198E-03       0.001       32.256   0.100E-07
     TRS4 it   8 1.00000000   0.133E-06       0.001       32.256   0.100E-07
     TRS4 it   9 1.00000000   0.749E-13       0.001       32.256   0.100E-07
     Final TRS4 iteration    9 1.00000000   0.749E-13
     Chemical potential (mu):       0.01364
 
 PAO| energy:  -7.7969369194627545      penalty:   1.5042219667306020E-005
 PAO|LS| adapt:  T T F
 PAO|LS| adapt: scan_steps:    0.0000000000000000       0.37145398646641931        0.0000000000000000     
 PAO|LS| adapt: energies:   -7.7968137104753197       -7.7969369194627545        0.0000000000000000     
 PAO| ======================= Iteration:        17 =============================

     Lanczos converged:  T threshold:   0.100E-02
     Est. extremal eigenvalues:    0.275E+01   0.181E+00
     Est. condition number :    0.152E+02
     NS sqrt iter    1 1.00000000   0.702E+00       0.001       50.583
     NS sqrt iter    2 1.00000000   0.326E+00       0.001       93.663
     NS sqrt iter    3 1.00000000   0.737E-01       0.001       79.619
     NS sqrt iter    4 1.00000000   0.177E-02       0.002       68.540
     NS sqrt iter    5 1.00000000   0.509E-07       0.001       47.528
     Final NS sqrt iter    5 1.00000000   0.416E-09

     Est. extremal eigenvalues     -0.93665     1.71660  converged:  T
     TRS4 it   1 1.00000000   0.885E+00       0.000       16.128   0.100E-07
     TRS4 it   2 1.00000000   0.622E+00       0.001       32.256   0.100E-07
     TRS4 it   3 1.00000000   0.423E+00       0.001       32.256   0.100E-07
     TRS4 it   4 1.00000000   0.214E+00       0.001       32.256   0.100E-07
     TRS4 it   5 1.00000000   0.682E-01       0.001       32.256   0.100E-07
     TRS4 it   6 1.00000000   0.869E-02       0.001       32.256   0.100E-07
     TRS4 it   7 1.00000000   0.186E-03       0.001       32.256   0.100E-07
     TRS4 it   8 1.00000000   0.119E-06       0.001       32.256   0.100E-07
     TRS4 it   9 1.00000000   0.606E-13       0.001       32.256   0.100E-07
     Final TRS4 iteration    9 1.00000000   0.606E-13
     Chemical potential (mu):       0.01445
 
 PAO| energy:  -7.7953550013535677      penalty:   1.4949998242851511E-005
 PAO|LS| adapt:  T T T
 PAO|LS| adapt: scan_steps:    0.0000000000000000       0.37145398646641931       0.74290797293283861     
 PAO|LS| adapt: energies:   -7.7968137104753197       -7.7969369194627545       -7.7953550013535677     
 PAO|LS| adapt: suggested step_size:   0.21256749658443935     
 PAO|LS| adapt: predicted energy  -7.7970929072705042     
 PAO| ======================= Iteration:        18 =============================

     Lanczos converged:  T threshold:   0.100E-02
     Est. extremal eigenvalues:    0.277E+01   0.180E+00
     Est. condition number :    0.154E+02
     NS sqrt iter    1 1.00000000   0.704E+00       0.001       61.503
     NS sqrt iter    2 1.00000000   0.328E+00       0.001      100.945
     NS sqrt iter    3 1.00000000   0.747E-01       0.001       85.410
     NS sqrt iter    4 1.00000000   0.185E-02       0.002       66.173
     NS sqrt iter    5 1.00000000   0.587E-07       0.001       70.327
     Final NS sqrt iter    5 1.00000000   0.437E-09

     Est. extremal eigenvalues     -0.93675     1.71809  converged:  T
     TRS4 it   1 1.00000000   0.885E+00       0.000       16.128   0.100E-07
     TRS4 it   2 1.00000000   0.624E+00       0.001       32.256   0.100E-07
     TRS4 it   3 1.00000000   0.425E+00       0.001       32.256   0.100E-07
     TRS4 it   4 1.00000000   0.216E+00       0.001       32.256   0.100E-07
     TRS4 it   5 1.00000000   0.698E-01       0.001       32.256   0.100E-07
     TRS4 it   6 1.00000000   0.911E-02       0.001       32.256   0.100E-07
     TRS4 it   7 1.00000000   0.203E-03       0.001       32.256   0.100E-07
     TRS4 it   8 1.00000000   0.140E-06       0.001       32.256   0.100E-07
     TRS4 it   9 1.00000000   0.826E-13       0.001       32.256   0.100E-07
     Final TRS4 iteration    9 1.00000000   0.826E-13
     Chemical potential (mu):       0.01329
 
 PAO| energy:  -7.7970924488366000      penalty:   1.5120809895191506E-005
 PAO|CG| trace_G_new    7.2574529080632398E-004
 PAO|CG| trace_G_prev    2.6267975969316289E-003
 PAO|CG| trace_G_mix    1.4639110818503194E-006
 PAO|CG| trace_D    3.3975678514047807E-003
 PAO|CG| trace_D_Gnew  -1.7208531289942228E-006
 PAO|CG| beta:   0.27572789794330144     
 PAO| norm of gradient:   2.6939660183571804E-002
 PAO| energy improvement:  -2.7873836128033957E-004
 PAO| step     18                   -7.797092449  0.168E-02  0.213E+00     0.064
 PAO|LS| adapt:  T F F
 PAO|LS| adapt: scan_steps:    0.0000000000000000        0.0000000000000000        0.0000000000000000     
 PAO|LS| adapt: energies:   -7.7970924488366000        0.0000000000000000        0.0000000000000000     
 PAO| ======================= Iteration:        19 =============================

     Lanczos converged:  T threshold:   0.100E-02
     Est. extremal eigenvalues:    0.277E+01   0.180E+00
     Est. condition number :    0.154E+02
     NS sqrt iter    1 1.00000000   0.704E+00       0.002       41.643
     NS sqrt iter    2 1.00000000   0.328E+00       0.002       69.766
     NS sqrt iter    3 1.00000000   0.749E-01       0.002       69.747
     NS sqrt iter    4 1.00000000   0.186E-02       0.003       34.114
     NS sqrt iter    5 1.00000000   0.592E-07       0.001       50.133
     Final NS sqrt iter    5 1.00000000   0.445E-09

     Est. extremal eigenvalues     -0.93675     1.71829  converged:  T
     TRS4 it   1 1.00000000   0.885E+00       0.001       16.128   0.100E-07
     TRS4 it   2 1.00000000   0.624E+00       0.001       32.256   0.100E-07
     TRS4 it   3 1.00000000   0.424E+00       0.001       32.256   0.100E-07
     TRS4 it   4 1.00000000   0.216E+00       0.001       32.256   0.100E-07
     TRS4 it   5 1.00000000   0.697E-01       0.001       32.256   0.100E-07
     TRS4 it   6 1.00000000   0.910E-02       0.001       32.256   0.100E-07
     TRS4 it   7 1.00000000   0.204E-03       0.001       32.256   0.100E-07
     TRS4 it   8 1.00000000   0.142E-06       0.001       32.256   0.100E-07
     TRS4 it   9 1.00000000   0.852E-13       0.001       32.256   0.100E-07
     Final TRS4 iteration    9 1.00000000   0.852E-13
     Chemical potential (mu):       0.01301
 
 PAO| energy:  -7.7972102367111296      penalty:   1.4831513817636234E-005
 PAO|LS| adapt:  T T F
 PAO|LS| adapt: scan_steps:    0.0000000000000000       0.21256749658443935        0.0000000000000000     
 PAO|LS| adapt: energies:   -7.7970924488366000       -7.7972102367111296        0.0000000000000000     
 PAO| ======================= Iteration:        20 =============================

     Lanczos converged:  T threshold:   0.100E-02
     Est. extremal eigenvalues:    0.277E+01   0.180E+00
     Est. condition number :    0.154E+02
     NS sqrt iter    1 1.00000000   0.704E+00       0.001       60.426
     NS sqrt iter    2 1.00000000   0.328E+00       0.001       88.599
     NS sqrt iter    3 1.00000000   0.751E-01       0.001       98.291
     NS sqrt iter    4 1.00000000   0.187E-02       0.001       99.048
     NS sqrt iter    5 1.00000000   0.598E-07       0.001       68.075
     Final NS sqrt iter    5 1.00000000   0.455E-09

     Est. extremal eigenvalues     -0.93674     1.71850  converged:  T
     TRS4 it   1 1.00000000   0.885E+00       0.001       16.128   0.100E-07
     TRS4 it   2 1.00000000   0.624E+00       0.001       32.256   0.100E-07
     TRS4 it   3 1.00000000   0.424E+00       0.001       32.256   0.100E-07
     TRS4 it   4 1.00000000   0.216E+00       0.001       32.256   0.100E-07
     TRS4 it   5 1.00000000   0.696E-01       0.001       32.256   0.100E-07
     TRS4 it   6 1.00000000   0.909E-02       0.001       32.256   0.100E-07
     TRS4 it   7 1.00000000   0.204E-03       0.001       32.256   0.100E-07
     TRS4 it   8 1.00000000   0.144E-06       0.001       32.256   0.100E-07
     TRS4 it   9 1.00000000   0.889E-13       0.001       32.256   0.100E-07
     Final TRS4 iteration    9 1.00000000   0.889E-13
     Chemical potential (mu):       0.01273
 
 PAO| energy:  -7.7972544684930751      penalty:   1.4554632339574232E-005
 PAO|LS| adapt:  T T F
 PAO|LS| adapt: scan_steps:    0.0000000000000000       0.42513499316887871        0.0000000000000000     
 PAO|LS| adapt: energies:   -7.7970924488366000       -7.7972544684930751        0.0000000000000000     
 PAO| ======================= Iteration:        21 =============================

     Lanczos converged:  T threshold:   0.100E-02
     Est. extremal eigenvalues:    0.277E+01   0.180E+00
     Est. condition number :    0.154E+02
     NS sqrt iter    1 1.00000000   0.704E+00       0.001       59.466
     NS sqrt iter    2 1.00000000   0.329E+00       0.001       94.912
     NS sqrt iter    3 1.00000000   0.756E-01       0.001       80.171
     NS sqrt iter    4 1.00000000   0.189E-02       0.002       67.600
     NS sqrt iter    5 1.00000000   0.610E-07       0.001       48.469
     Final NS sqrt iter    5 1.00000000   0.471E-09

     Est. extremal eigenvalues     -0.93674     1.71893  converged:  T
     TRS4 it   1 1.00000000   0.885E+00       0.001       16.128   0.100E-07
     TRS4 it   2 1.00000000   0.623E+00       0.001       32.256   0.100E-07
     TRS4 it   3 1.00000000   0.424E+00       0.001       32.256   0.100E-07
     TRS4 it   4 1.00000000   0.215E+00       0.001       32.256   0.100E-07
     TRS4 it   5 1.00000000   0.694E-01       0.001       32.256   0.100E-07
     TRS4 it   6 1.00000000   0.908E-02       0.001       32.256   0.100E-07
     TRS4 it   7 1.00000000   0.206E-03       0.001       32.256   0.100E-07
     TRS4 it   8 1.00000000   0.148E-06       0.001       32.256   0.100E-07
     TRS4 it   9 1.00000000   0.949E-13       0.001       32.256   0.100E-07
     Final TRS4 iteration    9 1.00000000   0.949E-13
     Chemical potential (mu):       0.01216
 
 PAO| energy:  -7.7971198980861383      penalty:   1.4037535475433510E-005
 PAO|LS| Need extra step
 PAO|LS| adapt:  T T T
 PAO|LS| adapt: scan_steps:    0.0000000000000000       0.42513499316887871       0.85026998633775741     
 PAO|LS| adapt: energies:   -7.7970924488366000       -7.7972544684930751       -7.7971198980861383     
 PAO|LS| adapt: suggested step_size:   0.44480799970976026     
 PAO|LS| adapt: predicted energy  -7.7972547860447214     
 PAO| ======================= Iteration:        22 =============================

     Lanczos converged:  T threshold:   0.100E-02
     Est. extremal eigenvalues:    0.277E+01   0.180E+00
     Est. condition number :    0.154E+02
     NS sqrt iter    1 1.00000000   0.704E+00       0.002       38.977
     NS sqrt iter    2 1.00000000   0.328E+00       0.002       72.113
     NS sqrt iter    3 1.00000000   0.752E-01       0.001       96.492
     NS sqrt iter    4 1.00000000   0.187E-02       0.001       92.567
     NS sqrt iter    5 1.00000000   0.598E-07       0.001       49.005
     Final NS sqrt iter    5 1.00000000   0.456E-09

     Est. extremal eigenvalues     -0.93674     1.71852  converged:  T
     TRS4 it   1 1.00000000   0.885E+00       0.001       16.128   0.100E-07
     TRS4 it   2 1.00000000   0.624E+00       0.001       32.256   0.100E-07
     TRS4 it   3 1.00000000   0.424E+00       0.001       32.256   0.100E-07
     TRS4 it   4 1.00000000   0.216E+00       0.001       32.256   0.100E-07
     TRS4 it   5 1.00000000   0.696E-01       0.001       32.256   0.100E-07
     TRS4 it   6 1.00000000   0.909E-02       0.001       32.256   0.100E-07
     TRS4 it   7 1.00000000   0.204E-03       0.001       32.256   0.100E-07
     TRS4 it   8 1.00000000   0.144E-06       0.001       32.256   0.100E-07
     TRS4 it   9 1.00000000   0.889E-13       0.001       32.256   0.100E-07
     Final TRS4 iteration    9 1.00000000   0.889E-13
     Chemical potential (mu):       0.01270
 
 PAO| energy:  -7.7972548223305065      penalty:   1.4529628534524326E-005
 PAO|CG| trace_G_new    2.2116282675851688E-004
 PAO|CG| trace_G_prev    7.2574529080632398E-004
 PAO|CG| trace_G_mix    2.9770531886322413E-006
 PAO|CG| trace_D    9.8499732961063505E-004
 PAO|CG| trace_D_Gnew  -1.8374716373681215E-006
 PAO|CG| beta:   0.30063684371616650     
 PAO| norm of gradient:   1.4871544195493516E-002
 PAO| energy improvement:  -1.6237349390646472E-004
 PAO| step     22                   -7.797254822  0.929E-03  0.445E+00     0.091
 PAO|LS| adapt:  T F F
 PAO|LS| adapt: scan_steps:    0.0000000000000000        0.0000000000000000        0.0000000000000000     
 PAO|LS| adapt: energies:   -7.7972548223305065        0.0000000000000000        0.0000000000000000     
 PAO| ======================= Iteration:        23 =============================

     Lanczos converged:  T threshold:   0.100E-02
     Est. extremal eigenvalues:    0.277E+01   0.180E+00
     Est. condition number :    0.154E+02
     NS sqrt iter    1 1.00000000   0.704E+00       0.002       42.318
     NS sqrt iter    2 1.00000000   0.329E+00       0.002       66.252
     NS sqrt iter    3 1.00000000   0.752E-01       0.002       67.676
     NS sqrt iter    4 1.00000000   0.187E-02       0.002       71.685
     NS sqrt iter    5 1.00000000   0.599E-07       0.001       56.952
     Final NS sqrt iter    5 1.00000000   0.456E-09

     Est. extremal eigenvalues     -0.93674     1.71843  converged:  T
     TRS4 it   1 1.00000000   0.885E+00       0.000       16.128   0.100E-07
     TRS4 it   2 1.00000000   0.624E+00       0.001       32.256   0.100E-07
     TRS4 it   3 1.00000000   0.424E+00       0.001       32.256   0.100E-07
     TRS4 it   4 1.00000000   0.216E+00       0.001       32.256   0.100E-07
     TRS4 it   5 1.00000000   0.698E-01       0.001       32.256   0.100E-07
     TRS4 it   6 1.00000000   0.914E-02       0.001       32.256   0.100E-07
     TRS4 it   7 1.00000000   0.207E-03       0.001       32.256   0.100E-07
     TRS4 it   8 1.00000000   0.148E-06       0.001       32.256   0.100E-07
     TRS4 it   9 1.00000000   0.931E-13       0.001       32.256   0.100E-07
     Final TRS4 iteration    9 1.00000000   0.931E-13
     Chemical potential (mu):       0.01238
 
 PAO| energy:  -7.7973038866868905      penalty:   1.3847123713184853E-005
 PAO|LS| adapt:  T T F
 PAO|LS| adapt: scan_steps:    0.0000000000000000       0.44480799970976026        0.0000000000000000     
 PAO|LS| adapt: energies:   -7.7972548223305065       -7.7973038866868905        0.0000000000000000     
 PAO| ======================= Iteration:        24 =============================

     Lanczos converged:  T threshold:   0.100E-02
     Est. extremal eigenvalues:    0.277E+01   0.180E+00
     Est. condition number :    0.154E+02
     NS sqrt iter    1 1.00000000   0.704E+00       0.001       55.640
     NS sqrt iter    2 1.00000000   0.329E+00       0.001       94.722
     NS sqrt iter    3 1.00000000   0.753E-01       0.001       93.975
     NS sqrt iter    4 1.00000000   0.187E-02       0.001       89.427
     NS sqrt iter    5 1.00000000   0.600E-07       0.001       49.890
     Final NS sqrt iter    5 1.00000000   0.459E-09

     Est. extremal eigenvalues     -0.93674     1.71834  converged:  T
     TRS4 it   1 1.00000000   0.884E+00       0.001       16.128   0.100E-07
     TRS4 it   2 1.00000000   0.624E+00       0.001       32.256   0.100E-07
     TRS4 it   3 1.00000000   0.424E+00       0.001       32.256   0.100E-07
     TRS4 it   4 1.00000000   0.216E+00       0.001       32.256   0.100E-07
     TRS4 it   5 1.00000000   0.699E-01       0.001       32.256   0.100E-07
     TRS4 it   6 1.00000000   0.918E-02       0.001       32.256   0.100E-07
     TRS4 it   7 1.00000000   0.209E-03       0.001       32.256   0.100E-07
     TRS4 it   8 1.00000000   0.152E-06       0.001       32.256   0.100E-07
     TRS4 it   9 1.00000000   0.992E-13       0.001       32.256   0.100E-07
     Final TRS4 iteration    9 1.00000000   0.992E-13
     Chemical potential (mu):       0.01205
 
 PAO| energy:  -7.7972532117301538      penalty:   1.3192923655676996E-005
 PAO|LS| adapt:  T T T
 PAO|LS| adapt: scan_steps:    0.0000000000000000       0.44480799970976026       0.88961599941952052     
 PAO|LS| adapt: energies:   -7.7972548223305065       -7.7973038866868905       -7.7972532117301538     
 PAO|LS| adapt: suggested step_size:   0.44121659779021649     
 PAO|LS| adapt: predicted energy  -7.7973038899379077     
 PAO| ======================= Iteration:        25 =============================

     Lanczos converged:  T threshold:   0.100E-02
     Est. extremal eigenvalues:    0.277E+01   0.180E+00
     Est. condition number :    0.154E+02
     NS sqrt iter    1 1.00000000   0.704E+00       0.001       59.075
     NS sqrt iter    2 1.00000000   0.329E+00       0.001       85.904
     NS sqrt iter    3 1.00000000   0.752E-01       0.002       72.611
     NS sqrt iter    4 1.00000000   0.187E-02       0.001       78.946
     NS sqrt iter    5 1.00000000   0.599E-07       0.001       60.633
     Final NS sqrt iter    5 1.00000000   0.456E-09

     Est. extremal eigenvalues     -0.93674     1.71843  converged:  T
     TRS4 it   1 1.00000000   0.885E+00       0.000       16.128   0.100E-07
     TRS4 it   2 1.00000000   0.624E+00       0.001       32.256   0.100E-07
     TRS4 it   3 1.00000000   0.424E+00       0.001       32.256   0.100E-07
     TRS4 it   4 1.00000000   0.216E+00       0.001       32.256   0.100E-07
     TRS4 it   5 1.00000000   0.698E-01       0.001       32.256   0.100E-07
     TRS4 it   6 1.00000000   0.914E-02       0.001       32.256   0.100E-07
     TRS4 it   7 1.00000000   0.207E-03       0.001       32.256   0.100E-07
     TRS4 it   8 1.00000000   0.148E-06       0.001       32.256   0.100E-07
     TRS4 it   9 1.00000000   0.930E-13       0.001       32.256   0.100E-07
     Final TRS4 iteration    9 1.00000000   0.930E-13
     Chemical potential (mu):       0.01238
 
 PAO| energy:  -7.7973038886719843      penalty:   1.3852520125791084E-005
 PAO|CG| trace_G_new    7.8590510064886383E-005
 PAO|CG| trace_G_prev    2.2116282675851688E-004
 PAO|CG| trace_G_mix    6.9022546629822550E-007
 PAO|CG| trace_D    3.1129418287159557E-004
 PAO|CG| trace_D_Gnew  -3.5254365166896509E-007
 PAO|CG| beta:   0.35223046178391393     
 PAO| norm of gradient:   8.8651288803314292E-003
 PAO| energy improvement:  -4.9066341477832509E-005
 PAO| step     25                   -7.797303889  0.554E-03  0.441E+00     0.070
 PAO|LS| adapt:  T F F
 PAO|LS| adapt: scan_steps:    0.0000000000000000        0.0000000000000000        0.0000000000000000     
 PAO|LS| adapt: energies:   -7.7973038886719843        0.0000000000000000        0.0000000000000000     
 PAO| ======================= Iteration:        26 =============================

     Lanczos converged:  T threshold:   0.100E-02
     Est. extremal eigenvalues:    0.277E+01   0.180E+00
     Est. condition number :    0.154E+02
     NS sqrt iter    1 1.00000000   0.704E+00       0.001       56.752
     NS sqrt iter    2 1.00000000   0.328E+00       0.001       79.253
     NS sqrt iter    3 1.00000000   0.751E-01       0.001       76.411
     NS sqrt iter    4 1.00000000   0.186E-02       0.001      100.411
     NS sqrt iter    5 1.00000000   0.594E-07       0.001       63.780
     Final NS sqrt iter    5 1.00000000   0.452E-09

     Est. extremal eigenvalues     -0.93675     1.71815  converged:  T
     TRS4 it   1 1.00000000   0.885E+00       0.001       16.128   0.100E-07
     TRS4 it   2 1.00000000   0.624E+00       0.001       32.256   0.100E-07
     TRS4 it   3 1.00000000   0.424E+00       0.001       32.256   0.100E-07
     TRS4 it   4 1.00000000   0.216E+00       0.001       32.256   0.100E-07
     TRS4 it   5 1.00000000   0.697E-01       0.001       32.256   0.100E-07
     TRS4 it   6 1.00000000   0.912E-02       0.001       32.256   0.100E-07
     TRS4 it   7 1.00000000   0.206E-03       0.001       32.256   0.100E-07
     TRS4 it   8 1.00000000   0.146E-06       0.001       32.256   0.100E-07
     TRS4 it   9 1.00000000   0.916E-13       0.001       32.256   0.100E-07
     Final TRS4 iteration    9 1.00000000   0.916E-13
     Chemical potential (mu):       0.01248
 
 PAO| energy:  -7.7973076756253992      penalty:   1.3132377936651527E-005
 PAO|LS| adapt:  T T F
 PAO|LS| adapt: scan_steps:    0.0000000000000000       0.44121659779021649        0.0000000000000000     
 PAO|LS| adapt: energies:   -7.7973038886719843       -7.7973076756253992        0.0000000000000000     
 PAO| ======================= Iteration:        27 =============================

     Lanczos converged:  T threshold:   0.100E-02
     Est. extremal eigenvalues:    0.276E+01   0.180E+00
     Est. condition number :    0.154E+02
     NS sqrt iter    1 1.00000000   0.704E+00       0.001       57.727
     NS sqrt iter    2 1.00000000   0.328E+00       0.001       97.563
     NS sqrt iter    3 1.00000000   0.750E-01       0.001       93.626
     NS sqrt iter    4 1.00000000   0.186E-02       0.001       97.447
     NS sqrt iter    5 1.00000000   0.589E-07       0.001       67.144
     Final NS sqrt iter    5 1.00000000   0.446E-09

     Est. extremal eigenvalues     -0.93675     1.71787  converged:  T
     TRS4 it   1 1.00000000   0.884E+00       0.001       16.128   0.100E-07
     TRS4 it   2 1.00000000   0.623E+00       0.001       32.256   0.100E-07
     TRS4 it   3 1.00000000   0.424E+00       0.001       32.256   0.100E-07
     TRS4 it   4 1.00000000   0.216E+00       0.001       32.256   0.100E-07
     TRS4 it   5 1.00000000   0.696E-01       0.001       32.256   0.100E-07
     TRS4 it   6 1.00000000   0.910E-02       0.001       32.256   0.100E-07
     TRS4 it   7 1.00000000   0.205E-03       0.001       32.256   0.100E-07
     TRS4 it   8 1.00000000   0.145E-06       0.001       32.256   0.100E-07
     TRS4 it   9 1.00000000   0.892E-13       0.001       32.256   0.100E-07
     Final TRS4 iteration    9 1.00000000   0.892E-13
     Chemical potential (mu):       0.01259
 
 PAO| energy:  -7.7972494732538733      penalty:   1.2435645707924962E-005
 PAO|LS| adapt:  T T T
 PAO|LS| adapt: scan_steps:    0.0000000000000000       0.44121659779021649       0.88243319558043298     
 PAO|LS| adapt: energies:   -7.7973038886719843       -7.7973076756253992       -7.7972494732538733     
 PAO|LS| adapt: suggested step_size:   0.24756240273942390     
 PAO|LS| adapt: predicted energy  -7.7973136464875807     
 PAO| ======================= Iteration:        28 =============================

     Lanczos converged:  T threshold:   0.100E-02
     Est. extremal eigenvalues:    0.277E+01   0.180E+00
     Est. condition number :    0.154E+02
     NS sqrt iter    1 1.00000000   0.704E+00       0.001       50.138
     NS sqrt iter    2 1.00000000   0.328E+00       0.001       90.252
     NS sqrt iter    3 1.00000000   0.752E-01       0.001       73.868
     NS sqrt iter    4 1.00000000   0.186E-02       0.001       76.427
     NS sqrt iter    5 1.00000000   0.596E-07       0.001       60.680
     Final NS sqrt iter    5 1.00000000   0.454E-09

     Est. extremal eigenvalues     -0.93675     1.71828  converged:  T
     TRS4 it   1 1.00000000   0.885E+00       0.001       16.128   0.100E-07
     TRS4 it   2 1.00000000   0.624E+00       0.001       32.256   0.100E-07
     TRS4 it   3 1.00000000   0.424E+00       0.001       32.256   0.100E-07
     TRS4 it   4 1.00000000   0.216E+00       0.001       32.256   0.100E-07
     TRS4 it   5 1.00000000   0.697E-01       0.001       32.256   0.100E-07
     TRS4 it   6 1.00000000   0.913E-02       0.001       32.256   0.100E-07
     TRS4 it   7 1.00000000   0.206E-03       0.001       32.256   0.100E-07
     TRS4 it   8 1.00000000   0.147E-06       0.001       30.481   0.100E-07
     TRS4 it   9 1.00000000   0.932E-13       0.001       32.256   0.100E-07
     Final TRS4 iteration    9 1.00000000   0.932E-13
     Chemical potential (mu):       0.01244
 
 PAO| energy:  -7.7973136374818619      penalty:   1.3445554115812451E-005
 PAO|CG| trace_G_new    3.0755730968610862E-005
 PAO|CG| trace_G_prev    7.8590510064886383E-005
 PAO|CG| trace_G_mix    4.5556209095623989E-008
 PAO|CG| trace_D    1.1745998021406065E-004
 PAO|CG| trace_D_Gnew  -2.4005965812074669E-008
 PAO|CG| beta:   0.39076187104728183     
 PAO| norm of gradient:   5.5457849731675377E-003
 PAO| energy improvement:  -9.7488098775855292E-006
 PAO| step     28                   -7.797313637  0.347E-03  0.248E+00     0.068
 PAO|LS| adapt:  T F F
 PAO|LS| adapt: scan_steps:    0.0000000000000000        0.0000000000000000        0.0000000000000000     
 PAO|LS| adapt: energies:   -7.7973136374818619        0.0000000000000000        0.0000000000000000     
 PAO| ======================= Iteration:        29 =============================

     Lanczos converged:  T threshold:   0.100E-02
     Est. extremal eigenvalues:    0.277E+01   0.180E+00
     Est. condition number :    0.154E+02
     NS sqrt iter    1 1.00000000   0.704E+00       0.002       38.332
     NS sqrt iter    2 1.00000000   0.328E+00       0.002       66.637
     NS sqrt iter    3 1.00000000   0.751E-01       0.002       66.031
     NS sqrt iter    4 1.00000000   0.186E-02       0.002       65.012
     NS sqrt iter    5 1.00000000   0.594E-07       0.002       47.310
     Final NS sqrt iter    5 1.00000000   0.451E-09

     Est. extremal eigenvalues     -0.93675     1.71820  converged:  T
     TRS4 it   1 1.00000000   0.885E+00       0.001       16.128   0.100E-07
     TRS4 it   2 1.00000000   0.623E+00       0.001       32.256   0.100E-07
     TRS4 it   3 1.00000000   0.424E+00       0.001       32.256   0.100E-07
     TRS4 it   4 1.00000000   0.216E+00       0.001       32.256   0.100E-07
     TRS4 it   5 1.00000000   0.696E-01       0.001       30.302   0.100E-07
     TRS4 it   6 1.00000000   0.910E-02       0.001       32.256   0.100E-07
     TRS4 it   7 1.00000000   0.205E-03       0.001       32.256   0.100E-07
     TRS4 it   8 1.00000000   0.145E-06       0.006        5.729   0.100E-07
     TRS4 it   9 1.00000000   0.909E-13       0.001       29.036   0.100E-07
     Final TRS4 iteration    9 1.00000000   0.909E-13
     Chemical potential (mu):       0.01256
 
 PAO| energy:  -7.7973203498351626      penalty:   1.3020437259659433E-005
 PAO|LS| adapt:  T T F
 PAO|LS| adapt: scan_steps:    0.0000000000000000       0.24756240273942390        0.0000000000000000     
 PAO|LS| adapt: energies:   -7.7973136374818619       -7.7973203498351626        0.0000000000000000     
 PAO| ======================= Iteration:        30 =============================

     Lanczos converged:  T threshold:   0.100E-02
     Est. extremal eigenvalues:    0.276E+01   0.180E+00
     Est. condition number :    0.154E+02
     NS sqrt iter    1 1.00000000   0.704E+00       0.002       38.524
     NS sqrt iter    2 1.00000000   0.328E+00       0.002       63.374
     NS sqrt iter    3 1.00000000   0.750E-01       0.002       62.797
     NS sqrt iter    4 1.00000000   0.186E-02       0.002       58.427
     NS sqrt iter    5 1.00000000   0.593E-07       0.002       44.410
     Final NS sqrt iter    5 1.00000000   0.448E-09

     Est. extremal eigenvalues     -0.93675     1.71813  converged:  T
     TRS4 it   1 1.00000000   0.885E+00       0.001       16.128   0.100E-07
     TRS4 it   2 1.00000000   0.623E+00       0.001       30.907   0.100E-07
     TRS4 it   3 1.00000000   0.424E+00       0.001       30.849   0.100E-07
     TRS4 it   4 1.00000000   0.216E+00       0.001       32.256   0.100E-07
     TRS4 it   5 1.00000000   0.696E-01       0.001       31.122   0.100E-07
     TRS4 it   6 1.00000000   0.908E-02       0.001       31.101   0.100E-07
     TRS4 it   7 1.00000000   0.204E-03       0.001       32.256   0.100E-07
     TRS4 it   8 1.00000000   0.144E-06       0.001       32.256   0.100E-07
     TRS4 it   9 1.00000000   0.876E-13       0.001       32.256   0.100E-07
     Final TRS4 iteration    9 1.00000000   0.876E-13
     Chemical potential (mu):       0.01268
 
 PAO| energy:  -7.7973252543928666      penalty:   1.2602913195851830E-005
 PAO|LS| adapt:  T T F
 PAO|LS| adapt: scan_steps:    0.0000000000000000       0.49512480547884780        0.0000000000000000     
 PAO|LS| adapt: energies:   -7.7973136374818619       -7.7973252543928666        0.0000000000000000     
 PAO| ======================= Iteration:        31 =============================

     Lanczos converged:  T threshold:   0.100E-02
     Est. extremal eigenvalues:    0.276E+01   0.180E+00
     Est. condition number :    0.154E+02
     NS sqrt iter    1 1.00000000   0.703E+00       0.002       40.032
     NS sqrt iter    2 1.00000000   0.328E+00       0.002       64.434
     NS sqrt iter    3 1.00000000   0.749E-01       0.002       65.588
     NS sqrt iter    4 1.00000000   0.185E-02       0.002       65.005
     NS sqrt iter    5 1.00000000   0.590E-07       0.002       43.197
     Final NS sqrt iter    5 1.00000000   0.442E-09

     Est. extremal eigenvalues     -0.93675     1.71798  converged:  T
     TRS4 it   1 1.00000000   0.885E+00       0.001       16.128   0.100E-07
     TRS4 it   2 1.00000000   0.623E+00       0.001       32.256   0.100E-07
     TRS4 it   3 1.00000000   0.424E+00       0.001       32.256   0.100E-07
     TRS4 it   4 1.00000000   0.215E+00       0.001       32.256   0.100E-07
     TRS4 it   5 1.00000000   0.694E-01       0.001       32.256   0.100E-07
     TRS4 it   6 1.00000000   0.904E-02       0.001       32.256   0.100E-07
     TRS4 it   7 1.00000000   0.202E-03       0.001       32.256   0.100E-07
     TRS4 it   8 1.00000000   0.140E-06       0.001       32.256   0.100E-07
     TRS4 it   9 1.00000000   0.832E-13       0.001       32.256   0.100E-07
     Final TRS4 iteration    9 1.00000000   0.832E-13
     Chemical potential (mu):       0.01292
 
 PAO| energy:  -7.7973296406522490      penalty:   1.1790495676897657E-005
 PAO|LS| Need extra step
 PAO|LS| adapt:  T T F
 PAO|LS| adapt: scan_steps:    0.0000000000000000       0.99024961095769559        0.0000000000000000     
 PAO|LS| adapt: energies:   -7.7973136374818619       -7.7973296406522490        0.0000000000000000     
 PAO| ======================= Iteration:        32 =============================

     Lanczos converged:  T threshold:   0.100E-02
     Est. extremal eigenvalues:    0.276E+01   0.180E+00
     Est. condition number :    0.154E+02
     NS sqrt iter    1 1.00000000   0.703E+00       0.002       40.830
     NS sqrt iter    2 1.00000000   0.327E+00       0.002       68.128
     NS sqrt iter    3 1.00000000   0.746E-01       0.002       69.643
     NS sqrt iter    4 1.00000000   0.184E-02       0.002       66.172
     NS sqrt iter    5 1.00000000   0.585E-07       0.010        7.400
     Final NS sqrt iter    5 1.00000000   0.432E-09

     Est. extremal eigenvalues     -0.93676     1.71766  converged:  T
     TRS4 it   1 1.00000000   0.885E+00       0.001       16.128   0.100E-07
     TRS4 it   2 1.00000000   0.623E+00       0.001       32.256   0.100E-07
     TRS4 it   3 1.00000000   0.424E+00       0.005        6.316   0.100E-07
     TRS4 it   4 1.00000000   0.215E+00       0.001       32.256   0.100E-07
     TRS4 it   5 1.00000000   0.691E-01       0.001       32.256   0.100E-07
     TRS4 it   6 1.00000000   0.896E-02       0.001       29.130   0.100E-07
     TRS4 it   7 1.00000000   0.198E-03       0.001       32.256   0.100E-07
     TRS4 it   8 1.00000000   0.134E-06       0.001       27.022   0.100E-07
     TRS4 it   9 1.00000000   0.766E-13       0.001       32.256   0.100E-07
     Final TRS4 iteration    9 1.00000000   0.766E-13
     Chemical potential (mu):       0.01341
 
 PAO| energy:  -7.7973167198097668      penalty:   1.0255158084850934E-005
 PAO|LS| Need extra step
 PAO|LS| adapt:  T T T
 PAO|LS| adapt: scan_steps:    0.0000000000000000       0.99024961095769559        1.9804992219153912     
 PAO|LS| adapt: energies:   -7.7973136374818619       -7.7973296406522490       -7.7973167198097668     
 PAO|LS| adapt: suggested step_size:    1.0430132786839235     
 PAO|LS| adapt: predicted energy  -7.7973296817113225     
 PAO| ======================= Iteration:        33 =============================

     Lanczos converged:  T threshold:   0.100E-02
     Est. extremal eigenvalues:    0.276E+01   0.180E+00
     Est. condition number :    0.154E+02
     NS sqrt iter    1 1.00000000   0.703E+00       0.002       41.294
     NS sqrt iter    2 1.00000000   0.328E+00       0.002       66.426
     NS sqrt iter    3 1.00000000   0.749E-01       0.002       66.140
     NS sqrt iter    4 1.00000000   0.185E-02       0.015        7.283
     NS sqrt iter    5 1.00000000   0.590E-07       0.003       22.917
     Final NS sqrt iter    5 1.00000000   0.442E-09

     Est. extremal eigenvalues     -0.93675     1.71796  converged:  T
     TRS4 it   1 1.00000000   0.885E+00       0.007        2.270   0.100E-07
     TRS4 it   2 1.00000000   0.623E+00       0.001       30.555   0.100E-07
     TRS4 it   3 1.00000000   0.424E+00       0.001       32.256   0.100E-07
     TRS4 it   4 1.00000000   0.215E+00       0.001       30.206   0.100E-07
     TRS4 it   5 1.00000000   0.694E-01       0.001       32.256   0.100E-07
     TRS4 it   6 1.00000000   0.904E-02       0.001       26.839   0.100E-07
[...]
 PAO| ======================= Iteration:       406 =============================

     Lanczos converged:  T threshold:   0.100E-02
     Est. extremal eigenvalues:    0.249E+01   0.191E+00
     Est. condition number :    0.130E+02
     NS sqrt iter    1 1.00000000   0.630E+00       0.002       39.793
     NS sqrt iter    2 1.00000000   0.274E+00       0.002       67.373
     NS sqrt iter    3 1.00000000   0.481E-01       0.002       67.718
     NS sqrt iter    4 1.00000000   0.736E-03       0.002       67.596
     NS sqrt iter    5 1.00000000   0.523E-08       0.001       29.014
     Final NS sqrt iter    5 1.00000000   0.312E-09

     Est. extremal eigenvalues     -0.93643     1.62559  converged:  T
     TRS4 it   1 1.00000000   0.881E+00       0.001       16.128   0.100E-07
     TRS4 it   2 1.00000000   0.632E+00       0.001       31.371   0.100E-07
     TRS4 it   3 1.00000000   0.453E+00       0.001       32.256   0.100E-07
     TRS4 it   4 1.00000000   0.275E+00       0.001       32.256   0.100E-07
     TRS4 it   5 1.00000000   0.135E+00       0.001       32.256   0.100E-07
     TRS4 it   6 1.00000000   0.413E-01       0.001       32.256   0.100E-07
     TRS4 it   7 1.00000000   0.533E-02       0.001       32.256   0.100E-07
     TRS4 it   8 1.00000000   0.120E-03       0.001       32.256   0.100E-07
     TRS4 it   9 1.00000000   0.646E-07       0.001       32.256   0.100E-07
     Final TRS4 iteration    9 1.00000000   0.646E-07
     Chemical potential (mu):      -0.07292
 
 PAO| energy:  -7.7963545532683112      penalty:   2.6970529930010349E-008
 PAO|LS| Need extra step
 PAO|LS| adapt:  T T T
 PAO|LS| adapt: scan_steps:    0.0000000000000000       0.20000000000000001       0.40000000000000002     
 PAO|LS| adapt: energies:   -7.7963545491436559       -7.7963545544454060       -7.7963545532683112     
 PAO|LS| adapt: suggested step_size:   0.26366343497614864     
 PAO|LS| adapt: predicted energy  -7.7963545547736430     
 PAO| ======================= Iteration:       407 =============================

     Lanczos converged:  T threshold:   0.100E-02
     Est. extremal eigenvalues:    0.249E+01   0.191E+00
     Est. condition number :    0.130E+02
     NS sqrt iter    1 1.00000000   0.630E+00       0.002       42.860
     NS sqrt iter    2 1.00000000   0.274E+00       0.002       68.686
     NS sqrt iter    3 1.00000000   0.481E-01       0.002       69.403
     NS sqrt iter    4 1.00000000   0.736E-03       0.002       69.570
     NS sqrt iter    5 1.00000000   0.523E-08       0.001       29.606
     Final NS sqrt iter    5 1.00000000   0.312E-09

     Est. extremal eigenvalues     -0.93643     1.62559  converged:  T
     TRS4 it   1 1.00000000   0.881E+00       0.001       16.128   0.100E-07
     TRS4 it   2 1.00000000   0.632E+00       0.001       32.256   0.100E-07
     TRS4 it   3 1.00000000   0.453E+00       0.001       32.256   0.100E-07
     TRS4 it   4 1.00000000   0.275E+00       0.001       32.256   0.100E-07
     TRS4 it   5 1.00000000   0.135E+00       0.001       32.256   0.100E-07
     TRS4 it   6 1.00000000   0.413E-01       0.001       32.256   0.100E-07
     TRS4 it   7 1.00000000   0.533E-02       0.001       32.256   0.100E-07
     TRS4 it   8 1.00000000   0.120E-03       0.001       32.256   0.100E-07
     TRS4 it   9 1.00000000   0.646E-07       0.001       32.256   0.100E-07
     Final TRS4 iteration    9 1.00000000   0.646E-07
     Chemical potential (mu):      -0.07292
 
 PAO| energy:  -7.7963545547736555      penalty:   2.7270117537880933E-008
 PAO|CG| warming up with steepest descent
 PAO|CG| beta:    0.0000000000000000     
 PAO| norm of gradient:   1.3950636510314221E-004
 PAO| energy improvement:  -5.6299995776498690E-009
 PAO| step    407                   -7.796354555  0.872E-05  0.264E+00     0.102
 PAO| converged after          407  steps :-)
 PAO| Recalculating energy after mixing.

     Lanczos converged:  T threshold:   0.100E-02
     Est. extremal eigenvalues:    0.249E+01   0.191E+00
     Est. condition number :    0.130E+02
     NS sqrt iter    1 1.00000000   0.630E+00       0.002       36.950
     NS sqrt iter    2 1.00000000   0.274E+00       0.002       68.408
     NS sqrt iter    3 1.00000000   0.481E-01       0.002       68.746
     NS sqrt iter    4 1.00000000   0.736E-03       0.002       67.410
     NS sqrt iter    5 1.00000000   0.523E-08       0.001       28.590
     Final NS sqrt iter    5 1.00000000   0.312E-09

     Est. extremal eigenvalues     -0.93643     1.62559  converged:  T
     TRS4 it   1 1.00000000   0.881E+00       0.001       16.128   0.100E-07
     TRS4 it   2 1.00000000   0.632E+00       0.001       28.060   0.100E-07
     TRS4 it   3 1.00000000   0.453E+00       0.001       28.090   0.100E-07
     TRS4 it   4 1.00000000   0.275E+00       0.001       28.988   0.100E-07
     TRS4 it   5 1.00000000   0.135E+00       0.001       29.659   0.100E-07
     TRS4 it   6 1.00000000   0.413E-01       0.001       30.121   0.100E-07
     TRS4 it   7 1.00000000   0.533E-02       0.001       27.200   0.100E-07
     TRS4 it   8 1.00000000   0.120E-03       0.001       26.843   0.100E-07
     TRS4 it   9 1.00000000   0.646E-07       0.001       32.256   0.100E-07
     Final TRS4 iteration    9 1.00000000   0.646E-07
     Chemical potential (mu):      -0.07292
 
 PAO| energy:  -7.7963545533661405      penalty:   2.7561374712984710E-008
 PAO| Writing restart file.
     Est. extremal eigenvalues     -0.93643     1.62559  converged:  T
     TRS4 it   1 1.00000000   0.881E+00       0.001       16.128   0.100E-07
     TRS4 it   2 1.00000000   0.632E+00       0.001       32.256   0.100E-07
     TRS4 it   3 1.00000000   0.453E+00       0.001       32.256   0.100E-07
     TRS4 it   4 1.00000000   0.275E+00       0.001       32.256   0.100E-07
     TRS4 it   5 1.00000000   0.135E+00       0.001       32.256   0.100E-07
     TRS4 it   6 1.00000000   0.413E-01       0.001       32.256   0.100E-07
     TRS4 it   7 1.00000000   0.533E-02       0.001       32.256   0.100E-07
     TRS4 it   8 1.00000000   0.120E-03       0.001       32.256   0.100E-07
     TRS4 it   9 1.00000000   0.646E-07       0.001       32.256   0.100E-07
     Final TRS4 iteration    9 1.00000000   0.646E-07
     Chemical potential (mu):      -0.07292

 SCF     1       -34.450327127       -34.450327127    2.262454

*********************************************************
 Using MIXING_FRACTION=0.450 to mix KS matrix:  iscf=  2
 KS_nw=0.450*KS + 0.550*KS_old
*********************************************************
     Est. extremal eigenvalues     -0.93644     1.62559  converged:  T
     TRS4 it   1 1.00000000   0.881E+00       0.001       16.128   0.100E-07
     TRS4 it   2 1.00000000   0.632E+00       0.001       32.256   0.100E-07
     TRS4 it   3 1.00000000   0.453E+00       0.001       32.256   0.100E-07
     TRS4 it   4 1.00000000   0.275E+00       0.001       32.256   0.100E-07
     TRS4 it   5 1.00000000   0.135E+00       0.001       23.366   0.100E-07
     TRS4 it   6 1.00000000   0.413E-01       0.001       32.256   0.100E-07
     TRS4 it   7 1.00000000   0.533E-02       0.001       32.256   0.100E-07
     TRS4 it   8 1.00000000   0.120E-03       0.001       32.256   0.100E-07
     TRS4 it   9 1.00000000   0.646E-07       0.001       32.256   0.100E-07
     Final TRS4 iteration    9 1.00000000   0.646E-07
     Chemical potential (mu):      -0.07292

 SCF     2       -34.450327127        -0.000000000    2.465221

 PAO| Storing density matrix for ASPC guess in slot:           1

 ENERGY| Total FORCE_EVAL ( QS ) energy (a.u.):              -34.450327126760719


 -------------------------------------------------------------------------------
 -                                                                             -
 -                                DBCSR STATISTICS                             -
 -                                                                             -
 -------------------------------------------------------------------------------
 COUNTER                                    TOTAL       BLAS       SMM       ACC
 flops     5 x     5 x     4                20000     100.0%      0.0%      0.0%
 flops    13 x     5 x     4                20800     100.0%      0.0%      0.0%
 flops     5 x    13 x     4                20800     100.0%      0.0%      0.0%
 flops    13 x    13 x     4                40560     100.0%      0.0%      0.0%
 flops     4 x     4 x     5              3198720     100.0%      0.0%      0.0%
 flops     5 x     4 x     5              3913600     100.0%      0.0%      0.0%
 flops     4 x     4 x    13              4158336     100.0%      0.0%      0.0%
 flops    13 x     4 x     5              5087680     100.0%      0.0%      0.0%
 flops     5 x     4 x    13              5087680     100.0%      0.0%      0.0%
 flops     5 x     4 x     4              6529280     100.0%      0.0%      0.0%
 flops    13 x     4 x    13              6613984     100.0%      0.0%      0.0%
 flops    13 x     4 x     4              8805888     100.0%      0.0%      0.0%
 flops     4 x     4 x     4            407962240     100.0%      0.0%      0.0%
 flops inhomo. stacks                           0       0.0%      0.0%      0.0%
 flops total                       451.459568E+06     100.0%      0.0%      0.0%
 flops max/rank                    451.459568E+06     100.0%      0.0%      0.0%
 matmuls inhomo. stacks                         0       0.0%      0.0%      0.0%
 matmuls total                            3323407     100.0%      0.0%      0.0%
 number of processed stacks                 26547     100.0%      0.0%      0.0%
 average stack size                                   125.2       0.0       0.0
 marketing flops                   732.390336E+06
 -------------------------------------------------------------------------------
 # multiplications                          22063
 max memory usage/rank             334.311424E+06
 # max total images/rank                        1
 # max 3D layers                                1
 # MPI messages exchanged                       0
 MPI messages size (bytes):
  total size                         0.000000E+00
  min size                           0.000000E+00
  max size                           0.000000E+00
  average size                       0.000000E+00
 MPI breakdown and total messages size (bytes):
             size <=      128                   0                        0
       128 < size <=     8192                   0                        0
      8192 < size <=    32768                   0                        0
     32768 < size <=   131072                   0                        0
    131072 < size <=  4194304                   0                        0
   4194304 < size <= 16777216                   0                        0
  16777216 < size                               0                        0
 -------------------------------------------------------------------------------

 MEMORY| Estimated peak process memory [MiB]                                 319

 -------------------------------------------------------------------------------
 -                                                                             -
 -                           R E F E R E N C E S                               -
 -                                                                             -
 -------------------------------------------------------------------------------
 
 CP2K version 7.0 (Development Version), the CP2K developers group (2018).
 CP2K is freely available from https://www.cp2k.org/ .

 Schuett, O; VandeVondele, J. 
 Journal of Chemical Theory and Computation, 14, (2018). 
 Machine Learning Adaptive Basis Sets for Efficient Large Scale Density Functional Theory Simulation.
 https://dx.doi.org/10.1021/acs.jctc.8b00378


 Schuett, Ole; Messmer, Peter; Hutter, Juerg; VandeVondele, Joost. 
 Electronic Structure Calculations on Graphics Processing Units, John Wiley & Sons, Ltd, 173-190 (2016). 
 GPU-Accelerated Sparse Matrix-Matrix Multiplication for Linear Scaling Density Functional Theory.
 https://dx.doi.org/10.1002/9781118670712.ch8


 Borstnik, U; VandeVondele, J; Weber, V; Hutter, J. 
 PARALLEL COMPUTING, 40 (5-6), 47-58 (2014). 
 Sparse matrix multiplication: The distributed block-compressed sparse
 row library.
 https://dx.doi.org/10.1016/j.parco.2014.03.012


 Hutter, J; Iannuzzi, M; Schiffmann, F; VandeVondele, J. 
 WILEY INTERDISCIPLINARY REVIEWS-COMPUTATIONAL MOLECULAR SCIENCE, 4 (1), 15-25 (2014). 
 CP2K: atomistic simulations of condensed matter systems.
 https://dx.doi.org/10.1002/wcms.1159


 VandeVondele, J; Borstnik, U; Hutter, J. 
 JOURNAL OF CHEMICAL THEORY AND COMPUTATION, 8 (10), 3565-3573 (2012). 
 Linear Scaling Self-Consistent Field Calculations with Millions of Atoms
 in the Condensed Phase.
 https://dx.doi.org/10.1021/ct200897x


 VandeVondele, J; Hutter, J. 
 JOURNAL OF CHEMICAL PHYSICS, 127 (11), 114105 (2007). 
 Gaussian basis sets for accurate calculations on molecular systems in
 gas and condensed phases.
 https://dx.doi.org/10.1063/1.2770708


 Krack, M. 
 THEORETICAL CHEMISTRY ACCOUNTS, 114 (1-3), 145-152 (2005). 
 Pseudopotentials for H to Kr optimized for gradient-corrected
 exchange-correlation functionals.
 https://dx.doi.org/10.1007/s00214-005-0655-y


 VandeVondele, J; Krack, M; Mohamed, F; Parrinello, M; Chassaing, T;
 Hutter, J. COMPUTER PHYSICS COMMUNICATIONS, 167 (2), 103-128 (2005). 
 QUICKSTEP: Fast and accurate density functional calculations using a
 mixed Gaussian and plane waves approach.
 https://dx.doi.org/10.1016/j.cpc.2004.12.014


 Frigo, M; Johnson, SG. 
 PROCEEDINGS OF THE IEEE, 93 (2), 216-231 (2005). 
 The design and implementation of FFTW3.
 https://dx.doi.org/10.1109/JPROC.2004.840301


 Niklasson, AMN; Tymczak, CJ; Challacombe, M. 
 JOURNAL OF CHEMICAL PHYSICS, 118 (19), 8611-8620 (2003). 
 Trace resetting density matrix purification in O(N)
 self-consistent-field theory.
 https://dx.doi.org/10.1063/1.1559913


 Hartwigsen, C; Goedecker, S; Hutter, J. 
 PHYSICAL REVIEW B, 58 (7), 3641-3662 (1998). 
 Relativistic separable dual-space Gaussian pseudopotentials from H to Rn.
 https://dx.doi.org/10.1103/PhysRevB.58.3641


 Lippert, G; Hutter, J; Parrinello, M. 
 MOLECULAR PHYSICS, 92 (3), 477-487 (1997). 
 A hybrid Gaussian and plane wave density functional scheme.
 https://dx.doi.org/10.1080/002689797170220


 Perdew, JP; Burke, K; Ernzerhof, M. 
 PHYSICAL REVIEW LETTERS, 77 (18), 3865-3868 (1996). 
 Generalized gradient approximation made simple.
 https://dx.doi.org/10.1103/PhysRevLett.77.3865


 Goedecker, S; Teter, M; Hutter, J. 
 PHYSICAL REVIEW B, 54 (3), 1703-1710 (1996). 
 Separable dual-space Gaussian pseudopotentials.
 https://dx.doi.org/10.1103/PhysRevB.54.1703


 -------------------------------------------------------------------------------
 -                                                                             -
 -                                T I M I N G                                  -
 -                                                                             -
 -------------------------------------------------------------------------------
 SUBROUTINE                       CALLS  ASD         SELF TIME        TOTAL TIME
                                MAXIMUM       AVERAGE  MAXIMUM  AVERAGE  MAXIMUM
 CP2K                                 1  1.0    0.014    0.014   34.306   34.306
 qs_energies                          1  2.0    0.000    0.000   33.930   33.930
 ls_scf                               1  3.0    0.000    0.000   33.816   33.816
 ls_scf_main                          4  4.0    0.001    0.001   20.328   20.328
 ls_scf_dm_to_ks                      9  5.0    0.000    0.000   20.213   20.213
 qs_ks_update_qs_env                 10  6.0    0.000    0.000   15.609   15.609
 rebuild_ks_matrix                   10  7.0    0.000    0.000   15.608   15.608
 qs_ks_build_kohn_sham_matrix        10  8.0    0.001    0.001   15.608   15.608
 pao_update                           4  4.0    0.012    0.012   11.468   11.468
 pao_calc_energy                    410  5.0    0.005    0.005   10.322   10.322
 qs_vxc_create                       10  9.0    0.000    0.000    9.430    9.430
 xc_vxc_pw_create                    10 10.0    0.119    0.119    9.430    9.430
 dbcsr_multiply_generic           22063  8.4    0.547    0.547    8.815    8.815
 xc_rho_set_and_dset_create          10 11.0    0.031    0.031    6.855    6.855
 qs_rho_update_rho                   10  6.0    0.000    0.000    6.544    6.544
 calculate_rho_elec                  10  7.0    5.151    5.151    6.544    6.544
 pw_transfer                        191 10.6    0.013    0.013    6.308    6.308
 fft_wrap_pw1pw2                    171 11.7    0.002    0.002    6.220    6.220
 fft_wrap_pw1pw2_200                111 12.8    0.320    0.320    5.952    5.952
 sum_up_and_integrate                10  9.0    0.018    0.018    5.302    5.302
 integrate_v_rspace                  10 10.0    4.568    4.568    5.284    5.284
 pao_dm_trs4                        410  6.0    0.004    0.004    5.265    5.265
 density_matrix_trs4                419  7.0    0.188    0.188    5.073    5.073
 ls_scf_init_matrix_S               414  7.0    0.005    0.005    5.047    5.047
 pao_rebuild_S                      410  6.0    0.003    0.003    5.006    5.006
 xc_functional_eval                  10 12.0    0.000    0.000    4.931    4.931
 pbe_lda_eval                        10 13.0    4.931    4.931    4.931    4.931
 matrix_sqrt_Newton_Schulz          414  8.0    0.127    0.127    4.568    4.568
 multiply_cannon                  22063  9.4    1.410    1.410    4.174    4.174
 fft3d_s                            172 13.6    3.410    3.410    3.425    3.425
 make_m2s                         44126  9.4    0.198    0.198    2.782    2.782
 make_images                      44126 10.4    0.666    0.666    2.457    2.457
 pao_guess_initial_P                  1  4.0    0.000    0.000    1.946    1.946
 pao_read_preopt_dm                   1  5.0    0.000    0.000    1.946    1.946
 multiply_cannon_multrec          22063 10.4    1.455    1.455    1.596    1.596
 pw_gather_s                         81 13.1    1.459    1.459    1.459    1.459
 density_rs2pw                       10  8.0    0.001    0.001    1.379    1.379
 arnoldi_extremal                   833  8.5    0.004    0.004    1.282    1.282
 arnoldi_normal_ev                  833  9.5    0.015    0.015    1.277    1.277
 pao_calc_AB                        541  5.8    0.001    0.001    1.125    1.125
 pao_calc_AB_direct                 541  6.8    0.031    0.031    1.124    1.124
 pao_calc_grad_lnv_wrt_AB           130  7.0    0.009    0.009    1.058    1.058
 pw_scatter_s                        90 14.2    1.003    1.003    1.003    1.003
 build_subspace                     833 10.5    0.065    0.065    0.949    0.949
 dbcsr_matrix_vector_mult         19979 11.5    0.140    0.140    0.856    0.856
 dbcsr_finalize                   52146  9.6    0.131    0.131    0.810    0.810
 dbcsr_create_new                168782 10.7    0.395    0.395    0.770    0.770
 potential_pw2rs                     10 11.0    0.003    0.003    0.714    0.714
 -------------------------------------------------------------------------------

 The number of warnings for this run is : 0
 
 -------------------------------------------------------------------------------
  **** **** ******  **  PROGRAM ENDED AT                 2019-03-28 17:34:00.781
 ***** ** ***  *** **   PROGRAM RAN ON            oleschuett.zrh.corp.google.com
 **    ****   ******    PROGRAM RAN BY                                oleschuett
 ***** **    ** ** **   PROGRAM PROCESS ID                                 34040
  **** **  *******  **  PROGRAM STOPPED IN /usr/local/google/home/oleschuett/git
                                           /pao_ml_equivar/2H2O_rotations/phi_31
