 DBCSR| CPU Multiplication driver                                           XSMM (U)
 DBCSR| Multrec recursion limit                                              512 (U)
 DBCSR| Multiplication stack size                                           1000 (D)
 DBCSR| Maximum elements for images                                    UNLIMITED (U)
 DBCSR| Multiplicative factor virtual images                                   1 (U)
 DBCSR| Use multiplication densification                                       T (D)
 DBCSR| Multiplication size stacks                                             3 (U)
 DBCSR| Use memory pool for CPU allocation                                     F (U)
 DBCSR| Number of 3D layers                                               SINGLE (U)
 DBCSR| Use MPI memory allocation                                              F (U)
 DBCSR| Use RMA algorithm                                                      F (U)
 DBCSR| Use Communication thread                                               T (U)
 DBCSR| Communication thread load                                             87 (D)
 DBCSR| MPI: My process id                                                     0
 DBCSR| MPI: Number of processes                                              32
 DBCSR| OMP: Current number of threads                                         1
 DBCSR| OMP: Max number of threads                                             1
 DBCSR| Split modifier for TAS multiplication algorithm                  1.0E+00 (U)


  **** **** ******  **  PROGRAM STARTED AT               2024-09-24 01:52:38.309
 ***** ** ***  *** **   PROGRAM STARTED ON                                moritz
 **    ****   ******    PROGRAM STARTED BY                                   ole
 ***** **    ** ** **   PROGRAM PROCESS ID                                166442
  **** **  *******  **  PROGRAM STARTED IN /home/ole/git/pao_ml_equivar/64H2O_MD
                                           /Frame2900

 CP2K| version string:                 CP2K version 2024.3 (Development Version)
 CP2K| source code revision number:                                  git:3f890bb
 CP2K| cp2kflags: omp libint fftw3 libxc libgrpp pexsi elpa parallel scalapack c
 CP2K|            osma quip deepmd xsmm plumed2 spglib libdftd4 sirius libvori l
 CP2K|            libbqb libvdwxc hdf5
 CP2K| is freely available from                            https://www.cp2k.org/
 CP2K| Program compiled at                          Mo 23 Sep 2024 17:17:04 CEST
 CP2K| Program compiled on                                                moritz
 CP2K| Program compiled for                                                local
 CP2K| Data directory path                               /home/ole/git/cp2k/data
 CP2K| Input file name                                           64H2O_pao44.inp

 GLOBAL| Force Environment number                                              1
 GLOBAL| Basis set file name                                        BASIS_MOLOPT
 GLOBAL| Potential file name                                      GTH_POTENTIALS
 GLOBAL| MM Potential file name                                     MM_POTENTIAL
 GLOBAL| Coordinate file name                                         coords.xyz
 GLOBAL| Method name                                                        CP2K
 GLOBAL| Project name                                                64H2O_pao44
 GLOBAL| Run type                                                         ENERGY
 GLOBAL| FFT library                                                       FFTW3
 GLOBAL| Diagonalization library                                            ELPA
 GLOBAL| DGEMM library                                                      BLAS
 GLOBAL| Minimum number of eigenvectors for ELPA usage                        16
 GLOBAL| Orthonormality check for eigenvectors                          DISABLED
 GLOBAL| Matrix multiplication library                                     COSMA
 GLOBAL| All-to-all communication in single precision                          F
 GLOBAL| FFTs using library dependent lengths                                  F
 GLOBAL| Grid backend                                                       AUTO
 GLOBAL| Global print level                                                  LOW
 GLOBAL| MPI I/O enabled                                                       T
 GLOBAL| Total number of message passing processes                            32
 GLOBAL| Number of threads for this process                                    1
 GLOBAL| This output is from process                                           0
 GLOBAL| Stack size for threads created by OpenMP (OMP_STACKSIZE)        default
 GLOBAL| CPU model name           AMD Ryzen Threadripper 3970X 32-Core Processor
 GLOBAL| CPUID                                                              1002

 MEMORY| system memory details [Kb]
 MEMORY|                        rank 0           min           max       average
 MEMORY| MemTotal            131752136     131752136     131752136     131752136
 MEMORY| MemFree             114318448     114318448     114318448     114318448
 MEMORY| Buffers               2002796       2002796       2002796       2002796
 MEMORY| Cached                8650168       8650168       8650172       8650168
 MEMORY| Slab                  1643300       1643300       1643300       1643300
 MEMORY| SReclaimable          1144096       1144096       1144096       1144096
 MEMORY| MemLikelyFree       126115508     126115508     126115512     126115508


 GENERATE|  Preliminary Number of Bonds generated:                             0
 GENERATE|  Achieved consistency in connectivity generation.

 *******************************************************************************
 *******************************************************************************
 **                                                                           **
 **     #####                         ##              ##                      **
 **    ##   ##            ##          ##              ##                      **
 **   ##     ##                       ##            ######                    **
 **   ##     ##  ##   ##  ##   #####  ##  ##   ####   ##    #####    #####    **
 **   ##     ##  ##   ##  ##  ##      ## ##   ##      ##   ##   ##  ##   ##   **
 **   ##  ## ##  ##   ##  ##  ##      ####     ###    ##   ######   ######    **
 **    ##  ###   ##   ##  ##  ##      ## ##      ##   ##   ##       ##        **
 **     #######   #####   ##   #####  ##  ##  ####    ##    #####   ##        **
 **           ##                                                    ##        **
 **                                                                           **
 **                                                ... make the atoms dance   **
 **                                                                           **
 **            Copyright (C) by CP2K developers group (2000-2024)             **
 **                      J. Chem. Phys. 152, 194103 (2020)                    **
 **                                                                           **
 *******************************************************************************


 TOTAL NUMBERS AND MAXIMUM NUMBERS

  Total number of            - Atomic kinds:                                   2
                             - Atoms:                                        192
                             - Shell sets:                                   192
                             - Shells:                                       704
                             - Primitive Cartesian functions:               1344
                             - Cartesian basis functions:                   1536
                             - Spherical basis functions:                   1472

  Maximum angular momentum of- Orbital basis functions:                        2
                             - Local part of the GTH pseudopotential:          2
                             - Non-local part of the GTH pseudopotential:      0

 ------------------------------ Linear scaling SCF -----------------------------
 eps_scf:                                                              0.100E-07
 eps_filter:                                                           0.100E-11
 mixing_fraction:                                                      0.450E+00
 max_scf:                                                                     25
 fixed chemical potential (mu)                                                 F
 has unit metric:                                                              F
 Computing inv(S):                                                             T
 Computing sqrt(S):                                                            T
 Computing S preconditioner                                                    F
 S sqrt method:                                                     NEWTONSCHULZ
 S sqrt order:                                                                 3
 Extrapolation order:                                                          1
 S preconditioner type                                                      NONE
 Polarized Atomic Orbitals (PAO)                                               T
 Purification method                                   Trace resetting 4th order
 Cluster type                                                             ATOMIC
 Computing Chebyshev                                                       FALSE
 Using PAO                                                                     T
 -------------------------------------------------------------------------------

 
 PAO|                                  EPS_PAO                           0.5E-06
 PAO|                                  MIXING                            0.5E+00
 PAO|                                  MAX_PAO                              1500
 PAO|                                  MAX_CYCLES                           1000
 PAO|                                  PARAMETERIZATION              EQUIVARIANT
 PAO|                                  PRECONDITION                            F
 PAO|                                  REGULARIZATION                    0.0E+00
 PAO|                                  EPS_PGF                           0.1E-09
 PAO|                                  PENALTY_DISTANCE                  0.1E+00
 PAO|                                  PENALTY_STRENGTH                  0.5E-02
 PAO|                                  LINPOT_PRECONDITION_DELTA         0.0E+00
 PAO|                                  LINPOT_INITGUESS_DELT             0.0E+00
 PAO|                                  LINPOT_REGULARIZATION_DELTA       0.0E+00
 PAO|                                  LINPOT_REGULARIZATION_STRENGTH    0.0E+00
 PAO|                                  OPTIMIZER                              CG
 PAO|                                  CG_INIT_STEPS                           2
 PAO|                                  CG_RESET_LIMIT                    0.1E+00
 PAO|                                  CHECK_UNITARY_TOL                -0.1E+01
 PAO|                                  CHECK_GRADIENT_TOL               -0.1E+01
 PAO|                                  NUM_GRADIENT_ORDER                      2
 PAO|                                  NUM_GRADIENT_EPS                  0.1E-07
 PAO|                                  PRINT%RESTART%WRITE_CYCLES            100
 PAO|                                  RESTART_FILE 
 PAO|                                  PREOPT_DM_FILE 64H2O_ref_LS_DM_SPIN_1_RESTART.dm
 PAO|                                  MACHINE_LEARNING%METHOD       GAUSSIAN_PR
 PAO|                                  MACHINE_LEARNING%PRIOR               ZERO
 PAO|                                  MACHINE_LEARNING%DESCRIPTOR     POTENTIAL
 PAO|                                  MACHINE_LEARNING%TOLERANCE        0.1E-01
 PAO|                                  MACHINE_LEARNING%GP_NOISE_VAR     0.1E+00
 PAO|                                  MACHINE_LEARNING%GP_SCALE         0.5E-01
 

 Calculating atomic Fock matrix for atomic kind: O

 Electronic structure
    Total number of core electrons                                          2.00
    Total number of valence electrons                                       6.00
    Total number of electrons                                               8.00
    Multiplicity                                                   not specified
    S   [  2.00] 2.00
    P      4.00


 *******************************************************************************
                  Iteration          Convergence                     Energy [au]
 *******************************************************************************
                          1        0.708315                     -15.576645311500
                          2        0.608879                     -15.587933561584
                          3        0.102828E-01                 -15.656849565404
                          4        0.113889E-02                 -15.656866888140
                          5        0.434197E-03                 -15.656867072159
                          6        0.263771E-03                 -15.656867091904
                          7        0.478536E-06                 -15.656867103452

 Energy components [Hartree]           Total Energy ::          -15.656867103452
                                        Band Energy ::           -3.000198112285
                                     Kinetic Energy ::           11.759971203220
                                   Potential Energy ::          -27.416838306672
                                      Virial (-V/T) ::            2.331369510426
                                        Core Energy ::          -26.140716385623
                                          XC Energy ::           -3.154051012914
                                     Coulomb Energy ::           13.637900295084
                       Total Pseudopotential Energy ::          -37.935781716540
                       Local Pseudopotential Energy ::          -39.218907440693
                    Nonlocal Pseudopotential Energy ::            1.283125724153
                                        Confinement ::            0.350941276976

 Orbital energies  State     L     Occupation   Energy[a.u.]          Energy[eV]

                       1     0          2.000      -0.864471          -23.523463

                       1     1          4.000      -0.317814           -8.648154


 Total Electron Density at R=0:                                         0.000068

 Calculating atomic Fock matrix for atomic kind: H

 Electronic structure
    Total number of core electrons                                          0.00
    Total number of valence electrons                                       1.00
    Total number of electrons                                               1.00
    Multiplicity                                                   not specified
    S      1.00


 *******************************************************************************
                  Iteration          Convergence                     Energy [au]
 *******************************************************************************
                          1        0.437545E-02                  -0.424159432110
                          2        0.531356E-03                  -0.424178438213
                          3        0.259176E-06                  -0.424178722480

 Energy components [Hartree]           Total Energy ::           -0.424178722480
                                        Band Energy ::           -0.199015229016
                                     Kinetic Energy ::            0.464007633961
                                   Potential Energy ::           -0.888186356441
                                      Virial (-V/T) ::            1.914163240935
                                        Core Energy ::           -0.479160803564
                                          XC Energy ::           -0.244352904054
                                     Coulomb Energy ::            0.299334985138
                       Total Pseudopotential Energy ::           -0.962295316385
                       Local Pseudopotential Energy ::           -0.962295316385
                    Nonlocal Pseudopotential Energy ::            0.000000000000
                                        Confinement ::            0.191268788606

 Orbital energies  State     L     Occupation   Energy[a.u.]          Energy[eV]

                       1     0          1.000      -0.199015           -5.415480


 Total Electron Density at R=0:                                         0.242907
 PAO| Made initial guess for matrix_X with norm:   27.712812921102035     

     Lanczos converged:  F threshold:   0.100E-02
     Est. extremal eigenvalues:    0.664E+01   0.901E-01
     Est. condition number :    0.737E+02

 Order=           3
     NS sqrt iter    1 1.00000000   0.163E+01       0.021     2722.877
     NS sqrt iter    2 1.00000000   0.871E+00       0.034     3368.838
     NS sqrt iter    3 1.00000000   0.350E+00       0.034     3368.707
     NS sqrt iter    4 1.00000000   0.102E+00       0.033     3382.030
     NS sqrt iter    5 1.00000000   0.453E-02       0.033     3385.743
     NS sqrt iter    6 1.00000000   0.748E-06       0.029     2941.018
     Symmetrizing Results
     Final NS sqrt iter    6 1.00000000   0.603E-12

 PAO| Read restart DM 64H2O_ref_LS_DM_SPIN_1_RESTART.dm with checksum:    6223.9162833465498     
 PAO| Quickstep energy from restart density:  -1103.1245482436416     
 PAO| ======================= Iteration:         1 =============================

     Lanczos converged:  F threshold:   0.100E-02
     Est. extremal eigenvalues:    0.664E+01   0.901E-01
     Est. condition number :    0.737E+02

 Order=           3
     NS sqrt iter    1 1.00000000   0.163E+01       0.021     2743.950
     NS sqrt iter    2 1.00000000   0.871E+00       0.034     3350.122
     NS sqrt iter    3 1.00000000   0.350E+00       0.033     3393.253
     NS sqrt iter    4 1.00000000   0.102E+00       0.033     3403.685
     NS sqrt iter    5 1.00000000   0.453E-02       0.034     3357.587
     NS sqrt iter    6 1.00000000   0.748E-06       0.029     2925.937
     Symmetrizing Results
     Final NS sqrt iter    6 1.00000000   0.603E-12

     Est. extremal eigenvalues     -0.83793     2.64156  converged:  T
     TRS4 it   1 1.00000000   0.275E+02       0.007     2130.765   0.100E-11
     TRS4 it   2 1.00000000   0.238E+02       0.013     2205.059   0.100E-11
     TRS4 it   3 1.00000000   0.163E+02       0.013     2219.170   0.100E-11
     TRS4 it   4 1.00000000   0.102E+02       0.013     2190.708   0.100E-11
     TRS4 it   5 1.00000000   0.502E+01       0.013     2204.021   0.100E-11
     TRS4 it   6 1.00000000   0.172E+01       0.013     2218.344   0.100E-11
     TRS4 it   7 1.00000000   0.354E+00       0.013     2179.296   0.100E-11
     TRS4 it   8 1.00000000   0.285E-01       0.013     2208.072   0.100E-11
     TRS4 it   9 1.00000000   0.354E-03       0.013     2195.789   0.100E-11
     TRS4 it  10 1.00000000   0.635E-07       0.013     2172.338   0.100E-11
     TRS4 it  11 1.00000000   0.195E-13       0.013     2216.295   0.100E-11
     Final TRS4 iteration   11 1.00000000   0.195E-13
     Chemical potential (mu):       0.01212
 
 PAO| energy:  -186.43577820875441      penalty:   1.5241039207902828E-031
 PAO|CG| warming up with steepest descent
 PAO|CG| beta:    0.0000000000000000     
 PAO| norm of gradient:   3.9823063896022823     
 PAO|LS| adapt:  T F F
 PAO|LS| adapt: scan_steps:    0.0000000000000000        0.0000000000000000        0.0000000000000000     
 PAO|LS| adapt: energies:   -186.43577820875441        0.0000000000000000        0.0000000000000000     
 PAO| ======================= Iteration:         2 =============================

     Lanczos converged:  F threshold:   0.100E-02
     Est. extremal eigenvalues:    0.641E+01   0.961E-01
     Est. condition number :    0.667E+02

 Order=           3
     NS sqrt iter    1 1.00000000   0.159E+01       0.021     2682.723
     NS sqrt iter    2 1.00000000   0.841E+00       0.033     3401.733
     NS sqrt iter    3 1.00000000   0.329E+00       0.034     3376.796
     NS sqrt iter    4 1.00000000   0.872E-01       0.033     3391.368
     NS sqrt iter    5 1.00000000   0.292E-02       0.033     3408.047
     NS sqrt iter    6 1.00000000   0.237E-06       0.029     2942.431
     Symmetrizing Results
     Final NS sqrt iter    6 1.00000000   0.120E-12

     Est. extremal eigenvalues     -0.84131     2.63418  converged:  T
     TRS4 it   1 1.00000000   0.277E+02       0.007     2102.193   0.100E-11
     TRS4 it   2 1.00000000   0.238E+02       0.013     2207.358   0.100E-11
     TRS4 it   3 1.00000000   0.161E+02       0.013     2189.021   0.100E-11
     TRS4 it   4 1.00000000   0.100E+02       0.013     2208.550   0.100E-11
     TRS4 it   5 1.00000000   0.480E+01       0.013     2194.091   0.100E-11
     TRS4 it   6 1.00000000   0.158E+01       0.013     2216.353   0.100E-11
     TRS4 it   7 1.00000000   0.305E+00       0.013     2208.649   0.100E-11
     TRS4 it   8 1.00000000   0.208E-01       0.013     2214.942   0.100E-11
     TRS4 it   9 1.00000000   0.174E-03       0.013     2174.896   0.100E-11
     TRS4 it  10 1.00000000   0.170E-07       0.013     2200.594   0.100E-11
     TRS4 it  11 1.00000000   0.213E-13       0.013     2199.947   0.100E-11
     Final TRS4 iteration   11 1.00000000   0.213E-13
     Chemical potential (mu):       0.01769
 
 PAO| energy:  -187.89243528109978      penalty:   4.7173168405470649E-007
 PAO|LS| adapt:  T T F
 PAO|LS| adapt: scan_steps:    0.0000000000000000       0.10000000000000001        0.0000000000000000     
 PAO|LS| adapt: energies:   -186.43577820875441       -187.89243528109978        0.0000000000000000     
 PAO| ======================= Iteration:         3 =============================

     Lanczos converged:  F threshold:   0.100E-02
     Est. extremal eigenvalues:    0.618E+01   0.102E+00
     Est. condition number :    0.608E+02

 Order=           3
     NS sqrt iter    1 1.00000000   0.154E+01       0.021     2705.956
     NS sqrt iter    2 1.00000000   0.810E+00       0.033     3389.303
     NS sqrt iter    3 1.00000000   0.309E+00       0.033     3394.219
     NS sqrt iter    4 1.00000000   0.738E-01       0.033     3397.315
     NS sqrt iter    5 1.00000000   0.190E-02       0.033     3398.448
     NS sqrt iter    6 1.00000000   0.776E-07       0.029     2945.488
     Symmetrizing Results
     Final NS sqrt iter    6 1.00000000   0.186E-13

     Est. extremal eigenvalues     -0.84450     2.62956  converged:  T
     TRS4 it   1 1.00000000   0.279E+02       0.007     2128.470   0.100E-11
     TRS4 it   2 1.00000000   0.237E+02       0.013     2208.211   0.100E-11
     TRS4 it   3 1.00000000   0.160E+02       0.013     2203.970   0.100E-11
     TRS4 it   4 1.00000000   0.986E+01       0.013     2205.685   0.100E-11
     TRS4 it   5 1.00000000   0.460E+01       0.013     2205.697   0.100E-11
     TRS4 it   6 1.00000000   0.145E+01       0.013     2221.401   0.100E-11
     TRS4 it   7 1.00000000   0.260E+00       0.013     2188.707   0.100E-11
     TRS4 it   8 1.00000000   0.148E-01       0.013     2195.647   0.100E-11
     TRS4 it   9 1.00000000   0.803E-04       0.013     2185.626   0.100E-11
     TRS4 it  10 1.00000000   0.405E-08       0.013     2218.148   0.100E-11
     TRS4 it  11 1.00000000   0.711E-14       0.013     2212.126   0.100E-11
     Final TRS4 iteration   11 1.00000000   0.711E-14
     Chemical potential (mu):       0.02398
 
 PAO| energy:  -189.07392430220415      penalty:   7.5477069450959492E-006
 PAO|LS| adapt:  T T F
 PAO|LS| adapt: scan_steps:    0.0000000000000000       0.20000000000000001        0.0000000000000000     
 PAO|LS| adapt: energies:   -186.43577820875441       -189.07392430220415        0.0000000000000000     
 PAO| ======================= Iteration:         4 =============================

     Lanczos converged:  F threshold:   0.100E-02
     Est. extremal eigenvalues:    0.574E+01   0.112E+00
     Est. condition number :    0.513E+02

 Order=           3
     NS sqrt iter    1 1.00000000   0.145E+01       0.021     2719.744
     NS sqrt iter    2 1.00000000   0.751E+00       0.033     3388.181
     NS sqrt iter    3 1.00000000   0.270E+00       0.034     3368.806
     NS sqrt iter    4 1.00000000   0.529E-01       0.033     3408.704
     NS sqrt iter    5 1.00000000   0.819E-03       0.033     3423.614
     NS sqrt iter    6 1.00000000   0.825E-08       0.029     2925.248
     Symmetrizing Results
     Final NS sqrt iter    6 1.00000000   0.590E-14

     Est. extremal eigenvalues     -0.84971     2.62798  converged:  T
     TRS4 it   1 1.00000000   0.283E+02       0.007     2151.955   0.100E-11
     TRS4 it   2 1.00000000   0.237E+02       0.013     2238.750   0.100E-11
     TRS4 it   3 1.00000000   0.159E+02       0.013     2209.402   0.100E-11
     TRS4 it   4 1.00000000   0.953E+01       0.013     2230.335   0.100E-11
     TRS4 it   5 1.00000000   0.423E+01       0.013     2228.327   0.100E-11
     TRS4 it   6 1.00000000   0.122E+01       0.013     2211.005   0.100E-11
     TRS4 it   7 1.00000000   0.187E+00       0.013     2218.859   0.100E-11
     TRS4 it   8 1.00000000   0.723E-02       0.013     2202.714   0.100E-11
     TRS4 it   9 1.00000000   0.160E-04       0.013     2215.580   0.100E-11
     TRS4 it  10 1.00000000   0.188E-09       0.013     2226.323   0.100E-11
     Final TRS4 iteration   10 1.00000000   0.188E-09
     Chemical potential (mu):       0.04271
 
 PAO| energy:  -190.56777309892365      penalty:   1.2076331112330023E-004
 PAO|LS| Need extra step
 PAO|LS| adapt:  T T F
 PAO|LS| adapt: scan_steps:    0.0000000000000000       0.40000000000000002        0.0000000000000000     
 PAO|LS| adapt: energies:   -186.43577820875441       -190.56777309892365        0.0000000000000000     
 PAO| ======================= Iteration:         5 =============================

     Lanczos converged:  F threshold:   0.100E-02
     Est. extremal eigenvalues:    0.499E+01   0.128E+00
     Est. condition number :    0.389E+02

 Order=           3
     NS sqrt iter    1 1.00000000   0.131E+01       0.021     2749.569
     NS sqrt iter    2 1.00000000   0.653E+00       0.033     3384.496
     NS sqrt iter    3 1.00000000   0.210E+00       0.033     3395.817
     NS sqrt iter    4 1.00000000   0.283E-01       0.034     3371.459
     NS sqrt iter    5 1.00000000   0.165E-03       0.033     3398.090
     NS sqrt iter    6 1.00000000   0.962E-10       0.025     2519.304
     Symmetrizing Results
     Final NS sqrt iter    6 1.00000000   0.166E-11

     Est. extremal eigenvalues     -0.85324     2.62840  converged:  T
     TRS4 it   1 1.00000000   0.289E+02       0.007     2129.547   0.100E-11
     TRS4 it   2 1.00000000   0.237E+02       0.013     2242.590   0.100E-11
     TRS4 it   3 1.00000000   0.156E+02       0.013     2183.392   0.100E-11
     TRS4 it   4 1.00000000   0.904E+01       0.013     2182.496   0.100E-11
     TRS4 it   5 1.00000000   0.371E+01       0.013     2189.729   0.100E-11
     TRS4 it   6 1.00000000   0.917E+00       0.013     2220.845   0.100E-11
     TRS4 it   7 1.00000000   0.105E+00       0.013     2204.651   0.100E-11
     TRS4 it   8 1.00000000   0.216E-02       0.013     2230.668   0.100E-11
     TRS4 it   9 1.00000000   0.129E-05       0.013     2192.335   0.100E-11
     TRS4 it  10 1.00000000   0.121E-11       0.013     2205.680   0.100E-11
     Final TRS4 iteration   10 1.00000000   0.121E-11
     Chemical potential (mu):       0.06510
 
 PAO| energy:  -190.20211784370221      penalty:   1.9322129779869228E-003
 PAO|LS| Need extra step
 PAO|LS| adapt:  T T T
 PAO|LS| adapt: scan_steps:    0.0000000000000000       0.40000000000000002       0.80000000000000004     
 PAO|LS| adapt: energies:   -186.43577820875441       -190.56777309892365       -190.20211784370221     
 PAO|LS| adapt: suggested step_size:   0.56748032920291291     
 PAO|LS| adapt: predicted energy  -190.96201547514306     
 PAO| ======================= Iteration:         6 =============================

     Lanczos converged:  F threshold:   0.100E-02
     Est. extremal eigenvalues:    0.539E+01   0.120E+00
     Est. condition number :    0.451E+02

 Order=           3
     NS sqrt iter    1 1.00000000   0.138E+01       0.021     2719.144
     NS sqrt iter    2 1.00000000   0.706E+00       0.033     3384.239
     NS sqrt iter    3 1.00000000   0.242E+00       0.033     3402.471
     NS sqrt iter    4 1.00000000   0.402E-01       0.034     3380.269
     NS sqrt iter    5 1.00000000   0.412E-03       0.034     3375.067
     NS sqrt iter    6 1.00000000   0.124E-08       0.029     2839.511
     Symmetrizing Results
     Final NS sqrt iter    6 1.00000000   0.173E-13

     Est. extremal eigenvalues     -0.85241     2.62940  converged:  T
     TRS4 it   1 1.00000000   0.286E+02       0.007     2150.687   0.100E-11
     TRS4 it   2 1.00000000   0.237E+02       0.013     2197.949   0.100E-11
     TRS4 it   3 1.00000000   0.158E+02       0.013     2202.992   0.100E-11
     TRS4 it   4 1.00000000   0.930E+01       0.013     2228.926   0.100E-11
     TRS4 it   5 1.00000000   0.398E+01       0.013     2208.523   0.100E-11
     TRS4 it   6 1.00000000   0.107E+01       0.013     2223.618   0.100E-11
     TRS4 it   7 1.00000000   0.144E+00       0.013     2204.815   0.100E-11
     TRS4 it   8 1.00000000   0.411E-02       0.013     2220.862   0.100E-11
     TRS4 it   9 1.00000000   0.476E-05       0.013     2226.378   0.100E-11
     TRS4 it  10 1.00000000   0.166E-10       0.013     2195.066   0.100E-11
     Final TRS4 iteration   10 1.00000000   0.166E-10
     Chemical potential (mu):       0.05321
 
 PAO| energy:  -190.93568844823963      penalty:   4.8921334433086922E-004
 PAO|CG| warming up with steepest descent
 PAO|CG| beta:    0.0000000000000000     
 PAO| norm of gradient:   2.1056782934921308     
 PAO| energy improvement:  -4.4999102394852173     
 PAO| step      6                 -190.935688448  0.411E-02  0.567E+00     2.431
 PAO|LS| adapt:  T F F
 PAO|LS| adapt: scan_steps:    0.0000000000000000        0.0000000000000000        0.0000000000000000     
 PAO|LS| adapt: energies:   -190.93568844823963        0.0000000000000000        0.0000000000000000     
 PAO| ======================= Iteration:         7 =============================

     Lanczos converged:  F threshold:   0.100E-02
     Est. extremal eigenvalues:    0.522E+01   0.128E+00
     Est. condition number :    0.407E+02

 Order=           3
     NS sqrt iter    1 1.00000000   0.135E+01       0.021     2707.358
     NS sqrt iter    2 1.00000000   0.680E+00       0.033     3412.339
     NS sqrt iter    3 1.00000000   0.224E+00       0.033     3382.004
     NS sqrt iter    4 1.00000000   0.327E-01       0.033     3383.188
     NS sqrt iter    5 1.00000000   0.232E-03       0.033     3381.108
     NS sqrt iter    6 1.00000000   0.231E-09       0.027     2673.503
     Symmetrizing Results
     Final NS sqrt iter    6 1.00000000   0.748E-12

     Est. extremal eigenvalues     -0.85300     2.61514  converged:  T
     TRS4 it   1 1.00000000   0.287E+02       0.007     2156.838   0.100E-11
     TRS4 it   2 1.00000000   0.237E+02       0.013     2202.389   0.100E-11
     TRS4 it   3 1.00000000   0.158E+02       0.013     2199.259   0.100E-11
     TRS4 it   4 1.00000000   0.943E+01       0.013     2205.604   0.100E-11
     TRS4 it   5 1.00000000   0.408E+01       0.013     2216.759   0.100E-11
     TRS4 it   6 1.00000000   0.110E+01       0.013     2206.567   0.100E-11
     TRS4 it   7 1.00000000   0.146E+00       0.013     2191.212   0.100E-11
     TRS4 it   8 1.00000000   0.419E-02       0.013     2208.511   0.100E-11
     TRS4 it   9 1.00000000   0.515E-05       0.013     2219.072   0.100E-11
     TRS4 it  10 1.00000000   0.209E-10       0.013     2212.781   0.100E-11
     Final TRS4 iteration   10 1.00000000   0.209E-10
     Chemical potential (mu):       0.05589
 
 PAO| energy:  -189.98490863676537      penalty:   6.9173817653078089E-004
 PAO|LS| adapt:  T F T
 PAO|LS| adapt: scan_steps:    0.0000000000000000        0.0000000000000000       0.56748032920291291     
 PAO|LS| adapt: energies:   -190.93568844823963        0.0000000000000000       -189.98490863676537     
 PAO| ======================= Iteration:         8 =============================

     Lanczos converged:  F threshold:   0.100E-02
     Est. extremal eigenvalues:    0.531E+01   0.124E+00
     Est. condition number :    0.429E+02

 Order=           3
     NS sqrt iter    1 1.00000000   0.137E+01       0.021     2749.682
     NS sqrt iter    2 1.00000000   0.693E+00       0.033     3397.799
     NS sqrt iter    3 1.00000000   0.233E+00       0.033     3409.801
     NS sqrt iter    4 1.00000000   0.363E-01       0.033     3380.753
     NS sqrt iter    5 1.00000000   0.311E-03       0.034     3377.436
     NS sqrt iter    6 1.00000000   0.545E-09       0.028     2762.583
     Symmetrizing Results
     Final NS sqrt iter    6 1.00000000   0.150E-12

     Est. extremal eigenvalues     -0.85354     2.62270  converged:  T
     TRS4 it   1 1.00000000   0.286E+02       0.007     2130.462   0.100E-11
     TRS4 it   2 1.00000000   0.237E+02       0.013     2237.644   0.100E-11
     TRS4 it   3 1.00000000   0.158E+02       0.013     2202.760   0.100E-11
     TRS4 it   4 1.00000000   0.933E+01       0.013     2232.505   0.100E-11
     TRS4 it   5 1.00000000   0.400E+01       0.013     2207.851   0.100E-11
     TRS4 it   6 1.00000000   0.108E+01       0.013     2242.069   0.100E-11
     TRS4 it   7 1.00000000   0.143E+00       0.013     2195.584   0.100E-11
     TRS4 it   8 1.00000000   0.407E-02       0.013     2233.525   0.100E-11
     TRS4 it   9 1.00000000   0.475E-05       0.013     2216.814   0.100E-11
     TRS4 it  10 1.00000000   0.168E-10       0.013     2204.579   0.100E-11
     Final TRS4 iteration   10 1.00000000   0.168E-10
     Chemical potential (mu):       0.05328
 
 PAO| energy:  -191.31334920955808      penalty:   5.1935755057297124E-004
 PAO|LS| adapt:  T T T
 PAO|LS| adapt: scan_steps:    0.0000000000000000       0.28374016460145646       0.56748032920291291     
 PAO|LS| adapt: energies:   -190.93568844823963       -191.31334920955808       -189.98490863676537     
 PAO|LS| adapt: suggested step_size:   0.20467850079120151     
 PAO|LS| adapt: predicted energy  -191.37958078618200     
 PAO| ======================= Iteration:         9 =============================

     Lanczos converged:  F threshold:   0.100E-02
     Est. extremal eigenvalues:    0.533E+01   0.123E+00
     Est. condition number :    0.435E+02

 Order=           3
     NS sqrt iter    1 1.00000000   0.137E+01       0.021     2697.656
     NS sqrt iter    2 1.00000000   0.696E+00       0.033     3408.334
     NS sqrt iter    3 1.00000000   0.235E+00       0.033     3397.951
     NS sqrt iter    4 1.00000000   0.374E-01       0.034     3372.254
     NS sqrt iter    5 1.00000000   0.337E-03       0.033     3392.985
     NS sqrt iter    6 1.00000000   0.688E-09       0.028     2803.560
     Symmetrizing Results
     Final NS sqrt iter    6 1.00000000   0.209E-13

     Est. extremal eigenvalues     -0.85340     2.62465  converged:  T
     TRS4 it   1 1.00000000   0.286E+02       0.007     2108.735   0.100E-11
     TRS4 it   2 1.00000000   0.237E+02       0.013     2245.816   0.100E-11
     TRS4 it   3 1.00000000   0.158E+02       0.013     2207.791   0.100E-11
     TRS4 it   4 1.00000000   0.931E+01       0.013     2235.980   0.100E-11
     TRS4 it   5 1.00000000   0.399E+01       0.013     2230.797   0.100E-11
     TRS4 it   6 1.00000000   0.107E+01       0.013     2201.556   0.100E-11
     TRS4 it   7 1.00000000   0.143E+00       0.013     2204.895   0.100E-11
     TRS4 it   8 1.00000000   0.407E-02       0.013     2248.155   0.100E-11
     TRS4 it   9 1.00000000   0.472E-05       0.013     2214.396   0.100E-11
     TRS4 it  10 1.00000000   0.165E-10       0.013     2234.422   0.100E-11
     Final TRS4 iteration   10 1.00000000   0.165E-10
     Chemical potential (mu):       0.05302
 
 PAO| energy:  -191.38400930944846      penalty:   5.0141080143697525E-004
 PAO|CG| trace_G_new   0.70613324493838692     
 PAO|CG| trace_G_prev    4.4338810756839324     
 PAO|CG| trace_G_mix   -4.2292316348455830E-002
 PAO|CG| trace_D    4.4338810756839324     
 PAO|CG| trace_D_Gnew   4.2292316348455830E-002
 PAO|CG| beta:   0.16879694076400031     
 PAO| norm of gradient:  0.84031734775523159     
 PAO| energy improvement: -0.44832086120882764     
 PAO| step      9                 -191.384009309  0.164E-02  0.205E+00     1.504
 PAO|LS| adapt:  T F F
 PAO|LS| adapt: scan_steps:    0.0000000000000000        0.0000000000000000        0.0000000000000000     
 PAO|LS| adapt: energies:   -191.38400930944846        0.0000000000000000        0.0000000000000000     
 PAO| ======================= Iteration:        10 =============================

     Lanczos converged:  F threshold:   0.100E-02
     Est. extremal eigenvalues:    0.527E+01   0.126E+00
     Est. condition number :    0.418E+02

 Order=           3
     NS sqrt iter    1 1.00000000   0.136E+01       0.021     2737.761
     NS sqrt iter    2 1.00000000   0.687E+00       0.033     3389.841
     NS sqrt iter    3 1.00000000   0.230E+00       0.034     3376.054
     NS sqrt iter    4 1.00000000   0.349E-01       0.034     3368.520
     NS sqrt iter    5 1.00000000   0.273E-03       0.033     3414.774
     NS sqrt iter    6 1.00000000   0.365E-09       0.028     2707.438
     Symmetrizing Results
     Final NS sqrt iter    6 1.00000000   0.380E-12

     Est. extremal eigenvalues     -0.85395     2.61134  converged:  T
     TRS4 it   1 1.00000000   0.286E+02       0.007     2139.775   0.100E-11
     TRS4 it   2 1.00000000   0.237E+02       0.013     2194.773   0.100E-11
     TRS4 it   3 1.00000000   0.158E+02       0.013     2203.287   0.100E-11
     TRS4 it   4 1.00000000   0.929E+01       0.013     2205.404   0.100E-11
     TRS4 it   5 1.00000000   0.397E+01       0.013     2226.525   0.100E-11
     TRS4 it   6 1.00000000   0.106E+01       0.013     2193.859   0.100E-11
     TRS4 it   7 1.00000000   0.139E+00       0.013     2244.399   0.100E-11
     TRS4 it   8 1.00000000   0.385E-02       0.013     2224.320   0.100E-11
     TRS4 it   9 1.00000000   0.423E-05       0.013     2212.757   0.100E-11
     TRS4 it  10 1.00000000   0.132E-10       0.013     2198.625   0.100E-11
     Final TRS4 iteration   10 1.00000000   0.132E-10
     Chemical potential (mu):       0.05385
 
 PAO| energy:  -191.48133497006927      penalty:   5.0340890077642632E-004
 PAO|LS| adapt:  T T F
 PAO|LS| adapt: scan_steps:    0.0000000000000000       0.20467850079120151        0.0000000000000000     
 PAO|LS| adapt: energies:   -191.38400930944846       -191.48133497006927        0.0000000000000000     
 PAO| ======================= Iteration:        11 =============================

     Lanczos converged:  F threshold:   0.100E-02
     Est. extremal eigenvalues:    0.521E+01   0.130E+00
     Est. condition number :    0.402E+02

 Order=           3
     NS sqrt iter    1 1.00000000   0.135E+01       0.021     2732.834
     NS sqrt iter    2 1.00000000   0.678E+00       0.033     3382.245
     NS sqrt iter    3 1.00000000   0.224E+00       0.033     3394.092
     NS sqrt iter    4 1.00000000   0.325E-01       0.034     3377.541
     NS sqrt iter    5 1.00000000   0.221E-03       0.033     3427.218
     NS sqrt iter    6 1.00000000   0.191E-09       0.027     2584.965
     Symmetrizing Results
     Final NS sqrt iter    6 1.00000000   0.973E-12

     Est. extremal eigenvalues     -0.85403     2.59774  converged:  T
     TRS4 it   1 1.00000000   0.286E+02       0.007     2153.622   0.100E-11
     TRS4 it   2 1.00000000   0.236E+02       0.013     2225.482   0.100E-11
     TRS4 it   3 1.00000000   0.157E+02       0.013     2244.088   0.100E-11
     TRS4 it   4 1.00000000   0.927E+01       0.013     2202.825   0.100E-11
     TRS4 it   5 1.00000000   0.394E+01       0.013     2204.793   0.100E-11
     TRS4 it   6 1.00000000   0.104E+01       0.013     2222.666   0.100E-11
     TRS4 it   7 1.00000000   0.135E+00       0.013     2200.764   0.100E-11
     TRS4 it   8 1.00000000   0.361E-02       0.013     2228.819   0.100E-11
     TRS4 it   9 1.00000000   0.374E-05       0.013     2233.942   0.100E-11
     TRS4 it  10 1.00000000   0.104E-10       0.013     2218.140   0.100E-11
     Final TRS4 iteration   10 1.00000000   0.104E-10
     Chemical potential (mu):       0.05475
 
 PAO| energy:  -191.48960427662823      penalty:   5.1487399342076113E-004
 PAO|LS| adapt:  T T F
 PAO|LS| adapt: scan_steps:    0.0000000000000000       0.40935700158240301        0.0000000000000000     
 PAO|LS| adapt: energies:   -191.38400930944846       -191.48960427662823        0.0000000000000000     
 PAO| ======================= Iteration:        12 =============================

     Lanczos converged:  F threshold:   0.100E-02
     Est. extremal eigenvalues:    0.510E+01   0.136E+00
     Est. condition number :    0.374E+02

 Order=           3
     NS sqrt iter    1 1.00000000   0.133E+01       0.021     2682.058
     NS sqrt iter    2 1.00000000   0.661E+00       0.033     3412.312
     NS sqrt iter    3 1.00000000   0.213E+00       0.033     3395.696
     NS sqrt iter    4 1.00000000   0.282E-01       0.033     3390.061
     NS sqrt iter    5 1.00000000   0.144E-03       0.033     3388.441
     NS sqrt iter    6 1.00000000   0.518E-10       0.022     2349.575
     Symmetrizing Results
     Final NS sqrt iter    6 1.00000000   0.213E-11

     Est. extremal eigenvalues     -0.85285     2.57087  converged:  T
     TRS4 it   1 1.00000000   0.286E+02       0.007     2136.241   0.100E-11
     TRS4 it   2 1.00000000   0.234E+02       0.013     2237.138   0.100E-11
     TRS4 it   3 1.00000000   0.157E+02       0.013     2211.108   0.100E-11
     TRS4 it   4 1.00000000   0.919E+01       0.013     2210.416   0.100E-11
     TRS4 it   5 1.00000000   0.387E+01       0.013     2244.276   0.100E-11
     TRS4 it   6 1.00000000   0.101E+01       0.013     2220.502   0.100E-11
     TRS4 it   7 1.00000000   0.125E+00       0.013     2235.590   0.100E-11
     TRS4 it   8 1.00000000   0.312E-02       0.013     2203.130   0.100E-11
     TRS4 it   9 1.00000000   0.282E-05       0.013     2220.386   0.100E-11
     TRS4 it  10 1.00000000   0.605E-11       0.013     2174.005   0.100E-11
     Final TRS4 iteration   10 1.00000000   0.605E-11
     Chemical potential (mu):       0.05674
 
 PAO| energy:  -191.25429464434322      penalty:   5.7255912482881150E-004
 PAO|LS| Need extra step
 PAO|LS| adapt:  T T T
 PAO|LS| adapt: scan_steps:    0.0000000000000000       0.40935700158240301       0.81871400316480603     
 PAO|LS| adapt: energies:   -191.38400930944846       -191.48960427662823       -191.25429464434322     
 PAO|LS| adapt: suggested step_size:   0.33147655284085881     
 PAO|LS| adapt: predicted energy  -191.49577385250436     
 PAO| ======================= Iteration:        13 =============================

     Lanczos converged:  F threshold:   0.100E-02
     Est. extremal eigenvalues:    0.524E+01   0.128E+00
     Est. condition number :    0.408E+02

 Order=           3
     NS sqrt iter    1 1.00000000   0.135E+01       0.021     2700.320
     NS sqrt iter    2 1.00000000   0.682E+00       0.034     3365.571
     NS sqrt iter    3 1.00000000   0.226E+00       0.034     3376.052
     NS sqrt iter    4 1.00000000   0.334E-01       0.033     3399.209
     NS sqrt iter    5 1.00000000   0.240E-03       0.033     3389.048
     NS sqrt iter    6 1.00000000   0.245E-09       0.027     2661.647
     Symmetrizing Results
     Final NS sqrt iter    6 1.00000000   0.766E-12

     Est. extremal eigenvalues     -0.85405     2.60294  converged:  T
     TRS4 it   1 1.00000000   0.286E+02       0.007     2134.774   0.100E-11
     TRS4 it   2 1.00000000   0.236E+02       0.013     2178.972   0.100E-11
     TRS4 it   3 1.00000000   0.157E+02       0.013     2199.157   0.100E-11
     TRS4 it   4 1.00000000   0.928E+01       0.013     2222.642   0.100E-11
     TRS4 it   5 1.00000000   0.395E+01       0.013     2217.948   0.100E-11
     TRS4 it   6 1.00000000   0.105E+01       0.013     2205.757   0.100E-11
     TRS4 it   7 1.00000000   0.137E+00       0.013     2222.848   0.100E-11
     TRS4 it   8 1.00000000   0.370E-02       0.013     2213.711   0.100E-11
     TRS4 it   9 1.00000000   0.393E-05       0.013     2207.329   0.100E-11
     TRS4 it  10 1.00000000   0.115E-10       0.013     2227.487   0.100E-11
     Final TRS4 iteration   10 1.00000000   0.115E-10
     Chemical potential (mu):       0.05440
 
 PAO| energy:  -191.49671622389820      penalty:   5.0932298345907209E-004
 PAO|CG| trace_G_new   0.26582339210871986     
 PAO|CG| trace_G_prev   0.70613324493838692     
 PAO|CG| trace_G_mix   -1.1366280817235886E-002
 PAO|CG| trace_D   0.81818756283830041     
 PAO|CG| trace_D_Gnew   1.1147578538205539E-002
 PAO|CG| beta:   0.39254584727864172     
 PAO| norm of gradient:  0.51558063589386272     
 PAO| energy improvement: -0.11270691444974545     
 PAO| step     13                 -191.496716224  0.101E-02  0.331E+00     1.958
 PAO|LS| adapt:  T F F
 PAO|LS| adapt: scan_steps:    0.0000000000000000        0.0000000000000000        0.0000000000000000     
 PAO|LS| adapt: energies:   -191.49671622389820        0.0000000000000000        0.0000000000000000     
 PAO| ======================= Iteration:        14 =============================

     Lanczos converged:  F threshold:   0.100E-02
     Est. extremal eigenvalues:    0.516E+01   0.131E+00
     Est. condition number :    0.393E+02

 Order=           3
     NS sqrt iter    1 1.00000000   0.133E+01       0.021     2728.646
     NS sqrt iter    2 1.00000000   0.670E+00       0.034     3370.736
     NS sqrt iter    3 1.00000000   0.219E+00       0.033     3383.490
     NS sqrt iter    4 1.00000000   0.309E-01       0.034     3376.279
     NS sqrt iter    5 1.00000000   0.193E-03       0.033     3397.687
     NS sqrt iter    6 1.00000000   0.129E-09       0.026     2555.052
     Symmetrizing Results
     Final NS sqrt iter    6 1.00000000   0.138E-11

     Est. extremal eigenvalues     -0.85443     2.59640  converged:  T
     TRS4 it   1 1.00000000   0.286E+02       0.007     2106.699   0.100E-11
     TRS4 it   2 1.00000000   0.236E+02       0.013     2223.448   0.100E-11
     TRS4 it   3 1.00000000   0.157E+02       0.013     2220.348   0.100E-11
     TRS4 it   4 1.00000000   0.922E+01       0.013     2214.660   0.100E-11
     TRS4 it   5 1.00000000   0.389E+01       0.013     2216.428   0.100E-11
     TRS4 it   6 1.00000000   0.102E+01       0.013     2223.885   0.100E-11
     TRS4 it   7 1.00000000   0.129E+00       0.013     2197.047   0.100E-11
     TRS4 it   8 1.00000000   0.329E-02       0.013     2247.269   0.100E-11
     TRS4 it   9 1.00000000   0.311E-05       0.013     2215.682   0.100E-11
     TRS4 it  10 1.00000000   0.719E-11       0.013     2195.393   0.100E-11
     Final TRS4 iteration   10 1.00000000   0.719E-11
     Chemical potential (mu):       0.05620
 
 PAO| energy:  -191.54668749038402      penalty:   5.1048895922845016E-004
 PAO|LS| adapt:  T T F
 PAO|LS| adapt: scan_steps:    0.0000000000000000       0.33147655284085881        0.0000000000000000     
 PAO|LS| adapt: energies:   -191.49671622389820       -191.54668749038402        0.0000000000000000     
 PAO| ======================= Iteration:        15 =============================

     Lanczos converged:  F threshold:   0.100E-02
     Est. extremal eigenvalues:    0.508E+01   0.134E+00
     Est. condition number :    0.379E+02

 Order=           3
     NS sqrt iter    1 1.00000000   0.132E+01       0.021     2714.591
     NS sqrt iter    2 1.00000000   0.659E+00       0.033     3414.698
     NS sqrt iter    3 1.00000000   0.213E+00       0.033     3392.700
     NS sqrt iter    4 1.00000000   0.286E-01       0.034     3354.657
     NS sqrt iter    5 1.00000000   0.156E-03       0.034     3372.642
     NS sqrt iter    6 1.00000000   0.689E-10       0.023     2417.826
     Symmetrizing Results
     Final NS sqrt iter    6 1.00000000   0.193E-11

     Est. extremal eigenvalues     -0.85441     2.58958  converged:  T
     TRS4 it   1 1.00000000   0.287E+02       0.007     2156.491   0.100E-11
     TRS4 it   2 1.00000000   0.235E+02       0.013     2187.450   0.100E-11
     TRS4 it   3 1.00000000   0.157E+02       0.013     2241.719   0.100E-11
     TRS4 it   4 1.00000000   0.916E+01       0.013     2195.870   0.100E-11
     TRS4 it   5 1.00000000   0.383E+01       0.013     2200.791   0.100E-11
     TRS4 it   6 1.00000000   0.987E+00       0.013     2231.428   0.100E-11
     TRS4 it   7 1.00000000   0.121E+00       0.013     2205.326   0.100E-11
     TRS4 it   8 1.00000000   0.293E-02       0.013     2229.139   0.100E-11
     TRS4 it   9 1.00000000   0.248E-05       0.013     2208.404   0.100E-11
     TRS4 it  10 1.00000000   0.462E-11       0.013     2213.661   0.100E-11
     Final TRS4 iteration   10 1.00000000   0.462E-11
     Chemical potential (mu):       0.05788
 
 PAO| energy:  -191.52437325483407      penalty:   5.2626019376234869E-004
 PAO|LS| adapt:  T T T
 PAO|LS| adapt: scan_steps:    0.0000000000000000       0.33147655284085881       0.66295310568171761     
 PAO|LS| adapt: energies:   -191.49671622389820       -191.54668749038402       -191.52437325483407     
 PAO|LS| adapt: suggested step_size:   0.39488938818300484     
 PAO|LS| adapt: predicted energy  -191.54801021648166     
 PAO| ======================= Iteration:        16 =============================

     Lanczos converged:  F threshold:   0.100E-02
     Est. extremal eigenvalues:    0.514E+01   0.132E+00
     Est. condition number :    0.390E+02

 Order=           3
     NS sqrt iter    1 1.00000000   0.133E+01       0.021     2715.987
     NS sqrt iter    2 1.00000000   0.668E+00       0.033     3395.360
     NS sqrt iter    3 1.00000000   0.218E+00       0.034     3374.514
     NS sqrt iter    4 1.00000000   0.305E-01       0.033     3384.855
     NS sqrt iter    5 1.00000000   0.185E-03       0.034     3362.947
     NS sqrt iter    6 1.00000000   0.115E-09       0.025     2533.970
     Symmetrizing Results
     Final NS sqrt iter    6 1.00000000   0.151E-11

     Est. extremal eigenvalues     -0.85445     2.59511  converged:  T
     TRS4 it   1 1.00000000   0.287E+02       0.007     2165.671   0.100E-11
     TRS4 it   2 1.00000000   0.236E+02       0.013     2208.086   0.100E-11
     TRS4 it   3 1.00000000   0.157E+02       0.013     2220.573   0.100E-11
     TRS4 it   4 1.00000000   0.921E+01       0.013     2191.842   0.100E-11
     TRS4 it   5 1.00000000   0.388E+01       0.013     2221.733   0.100E-11
     TRS4 it   6 1.00000000   0.101E+01       0.013     2232.657   0.100E-11
     TRS4 it   7 1.00000000   0.127E+00       0.013     2205.967   0.100E-11
     TRS4 it   8 1.00000000   0.322E-02       0.013     2214.998   0.100E-11
     TRS4 it   9 1.00000000   0.298E-05       0.013     2221.703   0.100E-11
     TRS4 it  10 1.00000000   0.660E-11       0.013     2232.642   0.100E-11
     Final TRS4 iteration   10 1.00000000   0.660E-11
     Chemical potential (mu):       0.05653
 
 PAO| energy:  -191.54795869710088      penalty:   5.1233515641699941E-004
 PAO|CG| trace_G_new    9.9533570408597963E-002
 PAO|CG| trace_G_prev   0.26582339210871986     
 PAO|CG| trace_G_mix    4.1119477874827790E-003
 PAO|CG| trace_D   0.38314787689470786     
 PAO|CG| trace_D_Gnew   7.5286995808370783E-004
 PAO|CG| beta:   0.35896623643297887     
 PAO| norm of gradient:  0.31548941409910725     
 PAO| energy improvement:  -5.1242473202677274E-002
 PAO| step     16                 -191.547958697  0.616E-03  0.395E+00     1.496
 PAO|LS| adapt:  T F F
 PAO|LS| adapt: scan_steps:    0.0000000000000000        0.0000000000000000        0.0000000000000000     
 PAO|LS| adapt: energies:   -191.54795869710088        0.0000000000000000        0.0000000000000000     
 PAO| ======================= Iteration:        17 =============================

     Lanczos converged:  F threshold:   0.100E-02
     Est. extremal eigenvalues:    0.510E+01   0.133E+00
     Est. condition number :    0.384E+02

 Order=           3
     NS sqrt iter    1 1.00000000   0.132E+01       0.021     2705.862
     NS sqrt iter    2 1.00000000   0.663E+00       0.033     3380.504
     NS sqrt iter    3 1.00000000   0.215E+00       0.034     3360.068
     NS sqrt iter    4 1.00000000   0.295E-01       0.034     3342.404
     NS sqrt iter    5 1.00000000   0.170E-03       0.033     3384.735
     NS sqrt iter    6 1.00000000   0.879E-10       0.024     2491.764
     Symmetrizing Results
     Final NS sqrt iter    6 1.00000000   0.178E-11

     Est. extremal eigenvalues     -0.85450     2.59298  converged:  T
     TRS4 it   1 1.00000000   0.287E+02       0.007     2130.306   0.100E-11
     TRS4 it   2 1.00000000   0.235E+02       0.013     2213.509   0.100E-11
     TRS4 it   3 1.00000000   0.157E+02       0.013     2205.143   0.100E-11
     TRS4 it   4 1.00000000   0.916E+01       0.013     2222.479   0.100E-11
     TRS4 it   5 1.00000000   0.384E+01       0.013     2219.252   0.100E-11
     TRS4 it   6 1.00000000   0.991E+00       0.013     2191.341   0.100E-11
     TRS4 it   7 1.00000000   0.122E+00       0.013     2189.822   0.100E-11
     TRS4 it   8 1.00000000   0.298E-02       0.013     2213.514   0.100E-11
     TRS4 it   9 1.00000000   0.256E-05       0.013     2221.785   0.100E-11
     TRS4 it  10 1.00000000   0.495E-11       0.013     2203.040   0.100E-11
     Final TRS4 iteration   10 1.00000000   0.495E-11
     Chemical potential (mu):       0.05762
 
 PAO| energy:  -191.55235535611223      penalty:   5.0407794448901447E-004
 PAO|LS| adapt:  T T F
 PAO|LS| adapt: scan_steps:    0.0000000000000000       0.39488938818300484        0.0000000000000000     
 PAO|LS| adapt: energies:   -191.54795869710088       -191.55235535611223        0.0000000000000000     
 PAO| ======================= Iteration:        18 =============================

     Lanczos converged:  F threshold:   0.100E-02
     Est. extremal eigenvalues:    0.506E+01   0.134E+00
     Est. condition number :    0.379E+02

 Order=           3
     NS sqrt iter    1 1.00000000   0.131E+01       0.021     2687.794
     NS sqrt iter    2 1.00000000   0.657E+00       0.034     3378.179
     NS sqrt iter    3 1.00000000   0.213E+00       0.033     3388.149
     NS sqrt iter    4 1.00000000   0.286E-01       0.034     3346.514
     NS sqrt iter    5 1.00000000   0.156E-03       0.034     3380.389
     NS sqrt iter    6 1.00000000   0.678E-10       0.023     2433.267
     Symmetrizing Results
     Final NS sqrt iter    6 1.00000000   0.196E-11

     Est. extremal eigenvalues     -0.85438     2.59075  converged:  T
     TRS4 it   1 1.00000000   0.287E+02       0.007     2144.002   0.100E-11
     TRS4 it   2 1.00000000   0.235E+02       0.013     2203.971   0.100E-11
     TRS4 it   3 1.00000000   0.156E+02       0.013     2218.843   0.100E-11
     TRS4 it   4 1.00000000   0.911E+01       0.013     2232.205   0.100E-11
     TRS4 it   5 1.00000000   0.380E+01       0.013     2215.336   0.100E-11
     TRS4 it   6 1.00000000   0.971E+00       0.013     2244.628   0.100E-11
     TRS4 it   7 1.00000000   0.118E+00       0.013     2182.312   0.100E-11
     TRS4 it   8 1.00000000   0.277E-02       0.013     2223.724   0.100E-11
     TRS4 it   9 1.00000000   0.221E-05       0.013     2186.927   0.100E-11
     TRS4 it  10 1.00000000   0.367E-11       0.013     2217.419   0.100E-11
     Final TRS4 iteration   10 1.00000000   0.367E-11
     Chemical potential (mu):       0.05876
 
 PAO| energy:  -191.48699715708184      penalty:   5.0303090238823088E-004
 PAO|LS| adapt:  T T T
 PAO|LS| adapt: scan_steps:    0.0000000000000000       0.39488938818300484       0.78977877636600968     
 PAO|LS| adapt: energies:   -191.54795869710088       -191.55235535611223       -191.48699715708184     
 PAO|LS| adapt: suggested step_size:   0.22233463058885639     
 PAO|LS| adapt: predicted energy  -191.55901494489541     
 PAO| ======================= Iteration:        19 =============================

     Lanczos converged:  F threshold:   0.100E-02
     Est. extremal eigenvalues:    0.512E+01   0.132E+00
     Est. condition number :    0.387E+02

 Order=           3
     NS sqrt iter    1 1.00000000   0.133E+01       0.021     2716.600
     NS sqrt iter    2 1.00000000   0.665E+00       0.033     3385.729
     NS sqrt iter    3 1.00000000   0.216E+00       0.034     3368.535
     NS sqrt iter    4 1.00000000   0.299E-01       0.034     3345.407
     NS sqrt iter    5 1.00000000   0.176E-03       0.033     3394.661
     NS sqrt iter    6 1.00000000   0.986E-10       0.025     2502.714
     Symmetrizing Results
     Final NS sqrt iter    6 1.00000000   0.171E-11

     Est. extremal eigenvalues     -0.85450     2.59393  converged:  T
     TRS4 it   1 1.00000000   0.287E+02       0.007     2129.952   0.100E-11
     TRS4 it   2 1.00000000   0.236E+02       0.013     2208.932   0.100E-11
     TRS4 it   3 1.00000000   0.157E+02       0.013     2188.044   0.100E-11
     TRS4 it   4 1.00000000   0.918E+01       0.013     2199.050   0.100E-11
     TRS4 it   5 1.00000000   0.386E+01       0.013     2218.162   0.100E-11
     TRS4 it   6 1.00000000   0.100E+01       0.013     2213.161   0.100E-11
     TRS4 it   7 1.00000000   0.125E+00       0.013     2218.847   0.100E-11
     TRS4 it   8 1.00000000   0.308E-02       0.013     2189.533   0.100E-11
     TRS4 it   9 1.00000000   0.274E-05       0.013     2209.807   0.100E-11
     TRS4 it  10 1.00000000   0.561E-11       0.013     2224.315   0.100E-11
     Final TRS4 iteration   10 1.00000000   0.561E-11
     Chemical potential (mu):       0.05714
 
 PAO| energy:  -191.55900285149872      penalty:   5.0681081828523038E-004
 PAO|CG| trace_G_new    2.1253263821435317E-002
 PAO|CG| trace_G_prev    9.9533570408597963E-002
 PAO|CG| trace_G_mix   -3.2137682732135569E-004
 PAO|CG| trace_D   0.14836425421347485     
 PAO|CG| trace_D_Gnew  -4.3097381316104747E-005
 PAO|CG| beta:   0.21675742726991537     
 PAO| norm of gradient:  0.14578499175647444     
 PAO| energy improvement:  -1.1044154397836792E-002
 PAO| step     19                 -191.559002851  0.285E-03  0.222E+00     1.496
 PAO|LS| adapt:  T F F
 PAO|LS| adapt: scan_steps:    0.0000000000000000        0.0000000000000000        0.0000000000000000     
 PAO|LS| adapt: energies:   -191.55900285149872        0.0000000000000000        0.0000000000000000     
 PAO| ======================= Iteration:        20 =============================

     Lanczos converged:  F threshold:   0.100E-02
     Est. extremal eigenvalues:    0.511E+01   0.132E+00
     Est. condition number :    0.387E+02

 Order=           3
     NS sqrt iter    1 1.00000000   0.132E+01       0.021     2681.123
     NS sqrt iter    2 1.00000000   0.664E+00       0.033     3391.834
     NS sqrt iter    3 1.00000000   0.216E+00       0.034     3358.263
     NS sqrt iter    4 1.00000000   0.299E-01       0.033     3399.718
     NS sqrt iter    5 1.00000000   0.176E-03       0.033     3398.181
     NS sqrt iter    6 1.00000000   0.972E-10       0.025     2505.936
     Symmetrizing Results
     Final NS sqrt iter    6 1.00000000   0.171E-11

     Est. extremal eigenvalues     -0.85450     2.59265  converged:  T
     TRS4 it   1 1.00000000   0.287E+02       0.007     2173.272   0.100E-11
     TRS4 it   2 1.00000000   0.235E+02       0.013     2219.525   0.100E-11
     TRS4 it   3 1.00000000   0.157E+02       0.013     2223.310   0.100E-11
     TRS4 it   4 1.00000000   0.917E+01       0.013     2214.572   0.100E-11
     TRS4 it   5 1.00000000   0.385E+01       0.013     2216.010   0.100E-11
     TRS4 it   6 1.00000000   0.995E+00       0.013     2220.485   0.100E-11
     TRS4 it   7 1.00000000   0.124E+00       0.013     2194.434   0.100E-11
     TRS4 it   8 1.00000000   0.304E-02       0.013     2220.478   0.100E-11
     TRS4 it   9 1.00000000   0.266E-05       0.013     2245.032   0.100E-11
     TRS4 it  10 1.00000000   0.528E-11       0.013     2205.900   0.100E-11
     Final TRS4 iteration   10 1.00000000   0.528E-11
     Chemical potential (mu):       0.05734
 
 PAO| energy:  -191.56282179478632      penalty:   4.9687430379814258E-004
 PAO|LS| adapt:  T T F
 PAO|LS| adapt: scan_steps:    0.0000000000000000       0.22233463058885639        0.0000000000000000     
 PAO|LS| adapt: energies:   -191.55900285149872       -191.56282179478632        0.0000000000000000     
 PAO| ======================= Iteration:        21 =============================

     Lanczos converged:  F threshold:   0.100E-02
     Est. extremal eigenvalues:    0.510E+01   0.132E+00
     Est. condition number :    0.386E+02

 Order=           3
     NS sqrt iter    1 1.00000000   0.132E+01       0.021     2742.350
     NS sqrt iter    2 1.00000000   0.664E+00       0.033     3392.314
     NS sqrt iter    3 1.00000000   0.216E+00       0.033     3419.190
     NS sqrt iter    4 1.00000000   0.299E-01       0.033     3418.280
     NS sqrt iter    5 1.00000000   0.175E-03       0.033     3385.233
     NS sqrt iter    6 1.00000000   0.958E-10       0.024     2533.713
     Symmetrizing Results
     Final NS sqrt iter    6 1.00000000   0.170E-11

     Est. extremal eigenvalues     -0.85451     2.59136  converged:  T
     TRS4 it   1 1.00000000   0.287E+02       0.007     2121.954   0.100E-11
     TRS4 it   2 1.00000000   0.235E+02       0.013     2208.283   0.100E-11
     TRS4 it   3 1.00000000   0.157E+02       0.013     2230.416   0.100E-11
     TRS4 it   4 1.00000000   0.916E+01       0.013     2196.138   0.100E-11
     TRS4 it   5 1.00000000   0.384E+01       0.013     2207.937   0.100E-11
     TRS4 it   6 1.00000000   0.991E+00       0.013     2189.318   0.100E-11
     TRS4 it   7 1.00000000   0.123E+00       0.013     2203.153   0.100E-11
     TRS4 it   8 1.00000000   0.299E-02       0.013     2200.982   0.100E-11
     TRS4 it   9 1.00000000   0.258E-05       0.013     2231.150   0.100E-11
     TRS4 it  10 1.00000000   0.499E-11       0.013     2232.698   0.100E-11
     Final TRS4 iteration   10 1.00000000   0.499E-11
     Chemical potential (mu):       0.05753
 
 PAO| energy:  -191.56481071231224      penalty:   4.8738193940221406E-004
 PAO|LS| adapt:  T T F
 PAO|LS| adapt: scan_steps:    0.0000000000000000       0.44466926117771277        0.0000000000000000     
 PAO|LS| adapt: energies:   -191.55900285149872       -191.56481071231224        0.0000000000000000     
 PAO| ======================= Iteration:        22 =============================

     Lanczos converged:  F threshold:   0.100E-02
     Est. extremal eigenvalues:    0.509E+01   0.132E+00
     Est. condition number :    0.385E+02

 Order=           3
     NS sqrt iter    1 1.00000000   0.132E+01       0.021     2698.308
     NS sqrt iter    2 1.00000000   0.663E+00       0.033     3397.420
     NS sqrt iter    3 1.00000000   0.216E+00       0.033     3396.789
     NS sqrt iter    4 1.00000000   0.299E-01       0.033     3381.961
     NS sqrt iter    5 1.00000000   0.174E-03       0.034     3377.849
     NS sqrt iter    6 1.00000000   0.933E-10       0.025     2501.764
     Symmetrizing Results
     Final NS sqrt iter    6 1.00000000   0.172E-11

     Est. extremal eigenvalues     -0.85450     2.58874  converged:  T
     TRS4 it   1 1.00000000   0.287E+02       0.007     2131.560   0.100E-11
     TRS4 it   2 1.00000000   0.235E+02       0.013     2216.412   0.100E-11
     TRS4 it   3 1.00000000   0.156E+02       0.013     2230.804   0.100E-11
     TRS4 it   4 1.00000000   0.913E+01       0.013     2232.633   0.100E-11
     TRS4 it   5 1.00000000   0.382E+01       0.013     2231.707   0.100E-11
     TRS4 it   6 1.00000000   0.982E+00       0.013     2222.562   0.100E-11
     TRS4 it   7 1.00000000   0.121E+00       0.013     2197.361   0.100E-11
     TRS4 it   8 1.00000000   0.290E-02       0.013     2220.687   0.100E-11
     TRS4 it   9 1.00000000   0.243E-05       0.013     2216.162   0.100E-11
     TRS4 it  10 1.00000000   0.444E-11       0.013     2214.294   0.100E-11
     Final TRS4 iteration   10 1.00000000   0.444E-11
     Chemical potential (mu):       0.05793
 
 PAO| energy:  -191.56321924509479      penalty:   4.6970016563398356E-004
 PAO|LS| Need extra step
 PAO|LS| adapt:  T T T
 PAO|LS| adapt: scan_steps:    0.0000000000000000       0.44466926117771277       0.88933852235542554     
 PAO|LS| adapt: energies:   -191.55900285149872       -191.56481071231224       -191.56321924509479     
 PAO|LS| adapt: suggested step_size:   0.57136324050597487     
 PAO|LS| adapt: predicted energy  -191.56511104321532     
 PAO| ======================= Iteration:        23 =============================

     Lanczos converged:  F threshold:   0.100E-02
     Est. extremal eigenvalues:    0.510E+01   0.132E+00
     Est. condition number :    0.386E+02

 Order=           3
     NS sqrt iter    1 1.00000000   0.132E+01       0.021     2720.232
     NS sqrt iter    2 1.00000000   0.664E+00       0.033     3397.005
     NS sqrt iter    3 1.00000000   0.216E+00       0.034     3358.645
     NS sqrt iter    4 1.00000000   0.299E-01       0.033     3384.685
     NS sqrt iter    5 1.00000000   0.175E-03       0.033     3383.634
     NS sqrt iter    6 1.00000000   0.951E-10       0.025     2500.698
     Symmetrizing Results
     Final NS sqrt iter    6 1.00000000   0.171E-11

     Est. extremal eigenvalues     -0.85450     2.59062  converged:  T
     TRS4 it   1 1.00000000   0.287E+02       0.007     2118.555   0.100E-11
     TRS4 it   2 1.00000000   0.235E+02       0.013     2221.053   0.100E-11
     TRS4 it   3 1.00000000   0.157E+02       0.013     2167.005   0.100E-11
     TRS4 it   4 1.00000000   0.915E+01       0.013     2239.964   0.100E-11
     TRS4 it   5 1.00000000   0.383E+01       0.013     2215.180   0.100E-11
     TRS4 it   6 1.00000000   0.988E+00       0.013     2213.692   0.100E-11
     TRS4 it   7 1.00000000   0.122E+00       0.013     2217.175   0.100E-11
     TRS4 it   8 1.00000000   0.296E-02       0.013     2221.424   0.100E-11
     TRS4 it   9 1.00000000   0.253E-05       0.013     2189.918   0.100E-11
     TRS4 it  10 1.00000000   0.481E-11       0.013     2222.762   0.100E-11
     Final TRS4 iteration   10 1.00000000   0.481E-11
     Chemical potential (mu):       0.05764
 
 PAO| energy:  -191.56511798044403      penalty:   4.8216848253926440E-004
 PAO|CG| trace_G_new    1.6723136604256301E-002
 PAO|CG| trace_G_prev    2.1253263821435317E-002
 PAO|CG| trace_G_mix    1.0256370262939983E-004
 PAO|CG| trace_D    2.8242660994034434E-002
 PAO|CG| trace_D_Gnew  -4.5147681366916983E-005
 PAO|CG| beta:   0.78202449474437707     
 PAO| norm of gradient:  0.12931796705893694     
 PAO| energy improvement:  -6.1151289453107438E-003
 PAO| step     23                 -191.565117980  0.253E-03  0.571E+00     1.944
 PAO|LS| adapt:  T F F
 PAO|LS| adapt: scan_steps:    0.0000000000000000        0.0000000000000000        0.0000000000000000     
 PAO|LS| adapt: energies:   -191.56511798044403        0.0000000000000000        0.0000000000000000     
 PAO| ======================= Iteration:        24 =============================

     Lanczos converged:  F threshold:   0.100E-02
     Est. extremal eigenvalues:    0.509E+01   0.132E+00
     Est. condition number :    0.385E+02

 Order=           3
     NS sqrt iter    1 1.00000000   0.132E+01       0.021     2682.418
     NS sqrt iter    2 1.00000000   0.662E+00       0.033     3400.973
     NS sqrt iter    3 1.00000000   0.216E+00       0.033     3382.615
     NS sqrt iter    4 1.00000000   0.298E-01       0.033     3408.310
     NS sqrt iter    5 1.00000000   0.174E-03       0.034     3352.995
     NS sqrt iter    6 1.00000000   0.933E-10       0.025     2481.200
     Symmetrizing Results
     Final NS sqrt iter    6 1.00000000   0.171E-11

     Est. extremal eigenvalues     -0.85451     2.58694  converged:  T
     TRS4 it   1 1.00000000   0.287E+02       0.007     2137.724   0.100E-11
     TRS4 it   2 1.00000000   0.235E+02       0.013     2210.272   0.100E-11
     TRS4 it   3 1.00000000   0.156E+02       0.013     2195.923   0.100E-11
     TRS4 it   4 1.00000000   0.912E+01       0.013     2230.045   0.100E-11
     TRS4 it   5 1.00000000   0.381E+01       0.013     2251.960   0.100E-11
     TRS4 it   6 1.00000000   0.978E+00       0.013     2222.496   0.100E-11
     TRS4 it   7 1.00000000   0.120E+00       0.013     2236.111   0.100E-11
     TRS4 it   8 1.00000000   0.286E-02       0.013     2225.259   0.100E-11
     TRS4 it   9 1.00000000   0.238E-05       0.013     2221.715   0.100E-11
     TRS4 it  10 1.00000000   0.432E-11       0.013     2229.918   0.100E-11
     Final TRS4 iteration   10 1.00000000   0.432E-11
     Chemical potential (mu):       0.05802
 
 PAO| energy:  -191.56865832339065      penalty:   4.4372330952160147E-004
 PAO|LS| adapt:  T T F
 PAO|LS| adapt: scan_steps:    0.0000000000000000       0.57136324050597487        0.0000000000000000     
 PAO|LS| adapt: energies:   -191.56511798044403       -191.56865832339065        0.0000000000000000     
 PAO| ======================= Iteration:        25 =============================

     Lanczos converged:  F threshold:   0.100E-02
     Est. extremal eigenvalues:    0.507E+01   0.132E+00
     Est. condition number :    0.384E+02

 Order=           3
     NS sqrt iter    1 1.00000000   0.131E+01       0.021     2691.149
     NS sqrt iter    2 1.00000000   0.661E+00       0.033     3403.700
     NS sqrt iter    3 1.00000000   0.215E+00       0.033     3387.490
     NS sqrt iter    4 1.00000000   0.298E-01       0.034     3373.914
     NS sqrt iter    5 1.00000000   0.174E-03       0.034     3363.983
     NS sqrt iter    6 1.00000000   0.920E-10       0.025     2513.722
     Symmetrizing Results
     Final NS sqrt iter    6 1.00000000   0.169E-11

     Est. extremal eigenvalues     -0.85449     2.58307  converged:  T
     TRS4 it   1 1.00000000   0.287E+02       0.007     2163.764   0.100E-11
     TRS4 it   2 1.00000000   0.235E+02       0.013     2188.680   0.100E-11
     TRS4 it   3 1.00000000   0.156E+02       0.013     2217.004   0.100E-11
     TRS4 it   4 1.00000000   0.909E+01       0.013     2203.221   0.100E-11
     TRS4 it   5 1.00000000   0.378E+01       0.013     2222.076   0.100E-11
     TRS4 it   6 1.00000000   0.968E+00       0.013     2256.593   0.100E-11
     TRS4 it   7 1.00000000   0.118E+00       0.013     2179.256   0.100E-11
     TRS4 it   8 1.00000000   0.277E-02       0.013     2205.234   0.100E-11
     TRS4 it   9 1.00000000   0.224E-05       0.013     2222.732   0.100E-11
     TRS4 it  10 1.00000000   0.383E-11       0.013     2231.121   0.100E-11
     Final TRS4 iteration   10 1.00000000   0.383E-11
     Chemical potential (mu):       0.05839
 
 PAO| energy:  -191.55990453582893      penalty:   4.0951480261637943E-004
 PAO|LS| adapt:  T T T
 PAO|LS| adapt: scan_steps:    0.0000000000000000       0.57136324050597487        1.1427264810119497     
 PAO|LS| adapt: energies:   -191.56511798044403       -191.56865832339065       -191.55990453582893     
 PAO|LS| adapt: suggested step_size:   0.45021719412804173     
 PAO|LS| adapt: predicted energy  -191.56893467482453     
 PAO| ======================= Iteration:        26 =============================

     Lanczos converged:  F threshold:   0.100E-02
     Est. extremal eigenvalues:    0.509E+01   0.132E+00
     Est. condition number :    0.385E+02

 Order=           3
     NS sqrt iter    1 1.00000000   0.132E+01       0.021     2709.578
     NS sqrt iter    2 1.00000000   0.662E+00       0.033     3382.312
     NS sqrt iter    3 1.00000000   0.216E+00       0.034     3364.589
     NS sqrt iter    4 1.00000000   0.298E-01       0.034     3353.580
     NS sqrt iter    5 1.00000000   0.174E-03       0.034     3365.418
     NS sqrt iter    6 1.00000000   0.936E-10       0.025     2485.967
     Symmetrizing Results
     Final NS sqrt iter    6 1.00000000   0.171E-11

     Est. extremal eigenvalues     -0.85451     2.58774  converged:  T
     TRS4 it   1 1.00000000   0.287E+02       0.007     2146.819   0.100E-11
     TRS4 it   2 1.00000000   0.235E+02       0.013     2232.477   0.100E-11
     TRS4 it   3 1.00000000   0.156E+02       0.013     2208.699   0.100E-11
     TRS4 it   4 1.00000000   0.913E+01       0.013     2212.459   0.100E-11
     TRS4 it   5 1.00000000   0.381E+01       0.013     2205.216   0.100E-11
     TRS4 it   6 1.00000000   0.980E+00       0.013     2203.888   0.100E-11
     TRS4 it   7 1.00000000   0.120E+00       0.013     2212.410   0.100E-11
     TRS4 it   8 1.00000000   0.288E-02       0.013     2235.168   0.100E-11
     TRS4 it   9 1.00000000   0.241E-05       0.013     2216.474   0.100E-11
     TRS4 it  10 1.00000000   0.440E-11       0.013     2208.413   0.100E-11
     Final TRS4 iteration   10 1.00000000   0.440E-11
     Chemical potential (mu):       0.05794
 
 PAO| energy:  -191.56892320292852      penalty:   4.5151405587147029E-004
 PAO|CG| trace_G_new    1.3881633239108194E-002
 PAO|CG| trace_G_prev    1.6723136604256301E-002
 PAO|CG| trace_G_mix    2.7991050627464305E-004
 PAO|CG| trace_D    3.4065896798472391E-002
 PAO|CG| trace_D_Gnew  -8.5545994957041610E-005
 PAO|CG| beta:   0.81334758273586660     
 PAO| norm of gradient:  0.11782034306140937     
 PAO| energy improvement:  -3.8052224844875582E-003
 PAO| step     26                 -191.568923203  0.230E-03  0.450E+00     1.496
 PAO|LS| adapt:  T F F
 PAO|LS| adapt: scan_steps:    0.0000000000000000        0.0000000000000000        0.0000000000000000     
 PAO|LS| adapt: energies:   -191.56892320292852        0.0000000000000000        0.0000000000000000     
 PAO| ======================= Iteration:        27 =============================

     Lanczos converged:  F threshold:   0.100E-02
     Est. extremal eigenvalues:    0.507E+01   0.132E+00
     Est. condition number :    0.384E+02

 Order=           3
     NS sqrt iter    1 1.00000000   0.131E+01       0.021     2701.030
     NS sqrt iter    2 1.00000000   0.660E+00       0.034     3378.538
     NS sqrt iter    3 1.00000000   0.215E+00       0.034     3340.794
     NS sqrt iter    4 1.00000000   0.297E-01       0.033     3406.737
     NS sqrt iter    5 1.00000000   0.174E-03       0.033     3381.393
     NS sqrt iter    6 1.00000000   0.929E-10       0.025     2495.846
     Symmetrizing Results
     Final NS sqrt iter    6 1.00000000   0.170E-11

     Est. extremal eigenvalues     -0.85451     2.58539  converged:  T
     TRS4 it   1 1.00000000   0.287E+02       0.007     2170.858   0.100E-11
     TRS4 it   2 1.00000000   0.235E+02       0.013     2207.736   0.100E-11
     TRS4 it   3 1.00000000   0.156E+02       0.013     2204.246   0.100E-11
     TRS4 it   4 1.00000000   0.910E+01       0.013     2249.210   0.100E-11
     TRS4 it   5 1.00000000   0.379E+01       0.013     2218.511   0.100E-11
     TRS4 it   6 1.00000000   0.970E+00       0.013     2204.453   0.100E-11
     TRS4 it   7 1.00000000   0.118E+00       0.013     2219.423   0.100E-11
     TRS4 it   8 1.00000000   0.279E-02       0.013     2229.502   0.100E-11
     TRS4 it   9 1.00000000   0.228E-05       0.013     2232.053   0.100E-11
     TRS4 it  10 1.00000000   0.400E-11       0.013     2198.095   0.100E-11
     Final TRS4 iteration   10 1.00000000   0.400E-11
     Chemical potential (mu):       0.05832
 
 PAO| energy:  -191.57163931887953      penalty:   4.1297959756697025E-004
 PAO|LS| adapt:  T T F
 PAO|LS| adapt: scan_steps:    0.0000000000000000       0.45021719412804173        0.0000000000000000     
 PAO|LS| adapt: energies:   -191.56892320292852       -191.57163931887953        0.0000000000000000     
 PAO| ======================= Iteration:        28 =============================

     Lanczos converged:  F threshold:   0.100E-02
     Est. extremal eigenvalues:    0.505E+01   0.132E+00
     Est. condition number :    0.384E+02

 Order=           3
     NS sqrt iter    1 1.00000000   0.131E+01       0.021     2683.726
     NS sqrt iter    2 1.00000000   0.658E+00       0.034     3370.976
     NS sqrt iter    3 1.00000000   0.214E+00       0.033     3387.077
     NS sqrt iter    4 1.00000000   0.296E-01       0.033     3387.603
     NS sqrt iter    5 1.00000000   0.173E-03       0.033     3383.781
     NS sqrt iter    6 1.00000000   0.926E-10       0.025     2497.131
     Symmetrizing Results
     Final NS sqrt iter    6 1.00000000   0.170E-11

     Est. extremal eigenvalues     -0.85451     2.58287  converged:  T
     TRS4 it   1 1.00000000   0.287E+02       0.007     2108.479   0.100E-11
     TRS4 it   2 1.00000000   0.235E+02       0.013     2226.549   0.100E-11
     TRS4 it   3 1.00000000   0.156E+02       0.013     2196.575   0.100E-11
     TRS4 it   4 1.00000000   0.908E+01       0.013     2197.741   0.100E-11
     TRS4 it   5 1.00000000   0.377E+01       0.013     2241.442   0.100E-11
     TRS4 it   6 1.00000000   0.961E+00       0.013     2216.421   0.100E-11
     TRS4 it   7 1.00000000   0.116E+00       0.013     2227.253   0.100E-11
     TRS4 it   8 1.00000000   0.270E-02       0.013     2204.072   0.100E-11
     TRS4 it   9 1.00000000   0.215E-05       0.013     2222.291   0.100E-11
     TRS4 it  10 1.00000000   0.364E-11       0.013     2227.718   0.100E-11
     Final TRS4 iteration   10 1.00000000   0.364E-11
     Chemical potential (mu):       0.05868
 
 PAO| energy:  -191.56715192098173      penalty:   3.7808816458807066E-004
 PAO|LS| adapt:  T T T
 PAO|LS| adapt: scan_steps:    0.0000000000000000       0.45021719412804173       0.90043438825608346     
 PAO|LS| adapt: energies:   -191.56892320292852       -191.57163931887953       -191.56715192098173     
 PAO|LS| adapt: suggested step_size:   0.39486493099449271     
 PAO|LS| adapt: predicted energy  -191.57169376174937     
 PAO| ======================= Iteration:        29 =============================

     Lanczos converged:  F threshold:   0.100E-02
     Est. extremal eigenvalues:    0.507E+01   0.132E+00
     Est. condition number :    0.385E+02

 Order=           3
     NS sqrt iter    1 1.00000000   0.131E+01       0.021     2742.722
     NS sqrt iter    2 1.00000000   0.661E+00       0.033     3394.664
     NS sqrt iter    3 1.00000000   0.215E+00       0.033     3415.773
     NS sqrt iter    4 1.00000000   0.297E-01       0.033     3422.238
     NS sqrt iter    5 1.00000000   0.174E-03       0.033     3396.606
     NS sqrt iter    6 1.00000000   0.929E-10       0.025     2496.861
     Symmetrizing Results
     Final NS sqrt iter    6 1.00000000   0.169E-11

     Est. extremal eigenvalues     -0.85451     2.58569  converged:  T
     TRS4 it   1 1.00000000   0.287E+02       0.009     1669.030   0.100E-11
     TRS4 it   2 1.00000000   0.235E+02       0.016     1782.373   0.100E-11
     TRS4 it   3 1.00000000   0.156E+02       0.016     1769.550   0.100E-11
     TRS4 it   4 1.00000000   0.911E+01       0.016     1778.852   0.100E-11
     TRS4 it   5 1.00000000   0.379E+01       0.016     1761.466   0.100E-11
     TRS4 it   6 1.00000000   0.972E+00       0.016     1774.894   0.100E-11
     TRS4 it   7 1.00000000   0.118E+00       0.016     1772.072   0.100E-11
     TRS4 it   8 1.00000000   0.280E-02       0.016     1787.143   0.100E-11
     TRS4 it   9 1.00000000   0.229E-05       0.016     1789.006   0.100E-11
[...]
     TRS4 it   3 1.00000000   0.158E+02       0.013     2186.848   0.100E-11
     TRS4 it   4 1.00000000   0.945E+01       0.013     2203.623   0.100E-11
     TRS4 it   5 1.00000000   0.429E+01       0.013     2181.822   0.100E-11
     TRS4 it   6 1.00000000   0.135E+01       0.013     2212.822   0.100E-11
     TRS4 it   7 1.00000000   0.240E+00       0.013     2231.929   0.100E-11
     TRS4 it   8 1.00000000   0.119E-01       0.013     2223.658   0.100E-11
     TRS4 it   9 1.00000000   0.437E-04       0.013     2207.452   0.100E-11
     TRS4 it  10 1.00000000   0.129E-08       0.013     2174.524   0.100E-11
     TRS4 it  11 1.00000000   0.195E-13       0.013     2226.861   0.100E-11
     Final TRS4 iteration   11 1.00000000   0.195E-13
     Chemical potential (mu):       0.03085
 
 PAO| energy:  -191.18737565919287      penalty:   1.5373884417936213E-008
 PAO| Writing restart file.
     Est. extremal eigenvalues     -0.85523     2.60328  converged:  T
     TRS4 it   1 1.00000000   0.290E+02       0.007     2143.969   0.100E-11
     TRS4 it   2 1.00000000   0.238E+02       0.013     2203.113   0.100E-11
     TRS4 it   3 1.00000000   0.158E+02       0.013     2234.296   0.100E-11
     TRS4 it   4 1.00000000   0.945E+01       0.013     2219.407   0.100E-11
     TRS4 it   5 1.00000000   0.429E+01       0.013     2227.046   0.100E-11
     TRS4 it   6 1.00000000   0.135E+01       0.013     2233.444   0.100E-11
     TRS4 it   7 1.00000000   0.240E+00       0.013     2205.712   0.100E-11
     TRS4 it   8 1.00000000   0.119E-01       0.013     2196.680   0.100E-11
     TRS4 it   9 1.00000000   0.437E-04       0.013     2219.629   0.100E-11
     TRS4 it  10 1.00000000   0.129E-08       0.013     2240.237   0.100E-11
     TRS4 it  11 1.00000000   0.195E-13       0.013     2191.364   0.100E-11
     Final TRS4 iteration   11 1.00000000   0.195E-13
     Chemical potential (mu):       0.03085

 SCF     1     -1103.030827010     -1103.030827010    1.753561

*********************************************************
 Using MIXING_FRACTION=0.450 to mix KS matrix:  iscf=  2
 KS_nw=0.450*KS + 0.550*KS_old
*********************************************************
     Est. extremal eigenvalues     -0.85523     2.60328  converged:  T
     TRS4 it   1 1.00000000   0.290E+02       0.007     2137.316   0.100E-11
     TRS4 it   2 1.00000000   0.238E+02       0.013     2204.465   0.100E-11
     TRS4 it   3 1.00000000   0.158E+02       0.013     2203.966   0.100E-11
     TRS4 it   4 1.00000000   0.945E+01       0.013     2201.476   0.100E-11
     TRS4 it   5 1.00000000   0.429E+01       0.013     2205.750   0.100E-11
     TRS4 it   6 1.00000000   0.135E+01       0.013     2214.808   0.100E-11
     TRS4 it   7 1.00000000   0.240E+00       0.013     2219.972   0.100E-11
     TRS4 it   8 1.00000000   0.119E-01       0.013     2212.527   0.100E-11
     TRS4 it   9 1.00000000   0.437E-04       0.013     2243.642   0.100E-11
     TRS4 it  10 1.00000000   0.129E-08       0.013     2202.915   0.100E-11
     TRS4 it  11 1.00000000   0.444E-13       0.013     2169.781   0.100E-11
     Final TRS4 iteration   11 1.00000000   0.444E-13
     Chemical potential (mu):       0.03085

 SCF     2     -1103.030827011        -0.000000000    1.753745


 SCF run converged in     2 steps.

 PAO| Storing density matrix for ASPC guess in slot:           1

 ENERGY| Total FORCE_EVAL ( QS ) energy [a.u.]:            -1103.030827010533358

 -------------------------------------------------------------------------------
 -                                                                             -
 -                                DBCSR STATISTICS                             -
 -                                                                             -
 -------------------------------------------------------------------------------
 COUNTER                                    TOTAL       BLAS       SMM       ACC
 flops     5 x     5 x     4             23116800       0.0%    100.0%      0.0%     
 flops    13 x     5 x     4             29818880       0.0%    100.0%      0.0%     
 flops     5 x    13 x     4             29818880       0.0%    100.0%      0.0%     
 flops    13 x    13 x     4             39370240       0.0%    100.0%      0.0%     
 flops     4 x     4 x     5           6334709760       0.0%    100.0%      0.0%     
 flops     5 x     4 x     5           7824998400       0.0%    100.0%      0.0%     
 flops     4 x     4 x    13           8235122688       0.0%    100.0%      0.0%     
 flops    13 x     4 x     5          10172497920       0.0%    100.0%      0.0%     
 flops     5 x     4 x    13          10172497920       0.0%    100.0%      0.0%     
 flops    13 x     4 x    13          13224247296       0.0%    100.0%      0.0%     
 flops     5 x     4 x     4         392815686720       0.0%    100.0%      0.0%     
 flops    13 x     4 x     4         514079202624       0.0%    100.0%      0.0%     
 flops     4 x     4 x     4       29440716404736       0.0%    100.0%      0.0%     
 flops inhomo. stacks                           0       0.0%      0.0%      0.0%
 flops total                        30.403697E+12       0.0%    100.0%      0.0%
 flops max/rank                    959.062470E+09       0.0%    100.0%      0.0%
 matmuls inhomo. stacks                         0       0.0%      0.0%      0.0%
 matmuls total                       233844140796       0.0%    100.0%      0.0%
 number of processed stacks             238865066       0.0%    100.0%      0.0%
 average stack size                                     0.0     979.0       0.0
 marketing flops                    52.219781E+12
 -------------------------------------------------------------------------------
 # multiplications                          49014
 max memory usage/rank             616.656896E+06
 # max total images/rank                        2
 # max 3D layers                                1
 # MPI messages exchanged                20389824
 MPI messages size (bytes):
  total size                         2.431581E+12
  min size                           0.000000E+00
  max size                         541.696000E+03
  average size                     119.254656E+03
 MPI breakdown and total messages size (bytes):
             size <=      128              869154                     3072
       128 < size <=     8192              336273               1182068864
      8192 < size <=    32768                1899                 30602496
     32768 < size <=   131072             8541144             631513239552
    131072 < size <=  4194304            10641354            1799231319552
   4194304 < size <= 16777216                   0                        0
  16777216 < size                               0                        0
 -------------------------------------------------------------------------------

 *** WARNING in dbcsr_mm.F:301 :: Using a non-square number of MPI ranks ***
 *** might lead to poor performance. Used ranks: 32 Suggested: 36 64     ***

 -------------------------------------------------------------------------------
 -                                                                             -
 -                      DBCSR MESSAGE PASSING PERFORMANCE                      -
 -                                                                             -
 -------------------------------------------------------------------------------
 ROUTINE             CALLS      AVE VOLUME [Bytes]
 MP_Bcast               14                     12.
 MP_Allreduce       295182                     37.
 MP_Alltoall        126482                  14552.
 MP_ISend          1640648                  55518.
 MP_IRecv          1604548                  56828.
 -------------------------------------------------------------------------------

 -------------------------------------------------------------------------------
 -                                                                             -
 -                                DBM STATISTICS                               -
 -                                                                             -
 -------------------------------------------------------------------------------
    M  x    N  x    K                                          COUNT     PERCENT
 -------------------------------------------------------------------------------

 -------------------------------------------------------------------------------
 -                                                                             -
 -                                GRID STATISTICS                              -
 -                                                                             -
 -------------------------------------------------------------------------------
 LP    KERNEL             BACKEND                              COUNT     PERCENT
 2     collocate ortho    CPU                               11469234      28.82%
 2     integrate ortho    CPU                               11469234      28.82%
 3     collocate ortho    CPU                                7374962      18.53%
 3     integrate ortho    CPU                                7374962      18.53%
 4     collocate ortho    CPU                                1048530       2.64%
 4     integrate ortho    CPU                                1048530       2.64%
 0     collocate general  CPU                                   6144       0.02%
 -------------------------------------------------------------------------------

 MEMORY| Estimated peak process memory [MiB]                                 589

 -------------------------------------------------------------------------------
 -                                                                             -
 -                         MESSAGE PASSING PERFORMANCE                         -
 -                                                                             -
 -------------------------------------------------------------------------------

 ROUTINE             CALLS      AVE VOLUME [Bytes]
 MP_Group                5
 MP_Bcast           349065                   2002.
 MP_Allreduce       867608                    514.
 MP_Sync                 5
 MP_Alltoall           369                4405932.
 MP_SendRecv          1302                  18832.
 MP_ISendRecv         1302                  18832.
 MP_Wait              3696
 MP_ISend             2166                 108220.
 MP_IRecv             2166                 108236.
 -------------------------------------------------------------------------------


 -------------------------------------------------------------------------------
 -                                                                             -
 -                           R E F E R E N C E S                               -
 -                                                                             -
 -------------------------------------------------------------------------------
 
 CP2K version 2024.3 (Development Version), the CP2K developers group (2024).
 CP2K is freely available from https://www.cp2k.org/ .
 
 T. D. Kuehne, M. Iannuzzi, M. Del Ben, V. V. Rybkin, P. Seewald, F. Stein, T. 
 Laino, R. Z. Khaliullin, O. Schuett, F. Schiffmann, D. Golze, J. Wilhelm, S. 
 Chulkov, M. H. Bani-Hashemian, V. Weber, U. Borstnik, M. Taillefumier, A. S. 
 Jakobovits, A. Lazzaro, H. Pabst, T. Mueller, R. Schade, M. Guidon, S. 
 Andermatt, N. Holmberg, G. K. Schenter, A. Hehn, A. Bussy, F. Belleflamme, G. 
 Tabacchi, A. Gloess, M. Lass, I. Bethune, C. J. Mundy, C. Plessl, M. Watkins, 
 J. VandeVondele, M. Krack, J. Hutter.
 J. Chem. Phys. 152, 194103 (2020).
 CP2K: An electronic structure and molecular dynamics software package - 
 Quickstep: Efficient and accurate electronic structure calculations.
 https://doi.org/10.1063/5.0007045

 O. Schuett, J. VandeVondele.
 J. Chem. Theory Comput. 14, 4168-4175 (2018).
 Machine Learning Adaptive Basis Sets for Efficient Large Scale Density 
 Functional Theory Simulation.
 https://doi.org/10.1021/acs.jctc.8b00378

 O. Schuett, P. Messmer, J. Hutter, J. VandeVondele.
 Electronic Structure Calculations on Graphics Processing Units, 173-190 (2016).
 GPU-Accelerated Sparse Matrix-Matrix Multiplication for Linear Scaling Density 
 Functional Theory.
 https://doi.org/10.1002/9781118670712.ch8

 A. Heinecke, G. Henry, M. Hutchinson, H. Pabst.
 Proceedings of Intl. Supercomputing Conference, 981-991 (2016).
 LIBXSMM: Accelerating Small Matrix Multiplications by Runtime Code Generation.
 https://doi.org/10.1109/SC.2016.83

 J. Hutter, M. Iannuzzi, F. Schiffmann, J. VandeVondele.
 WIREs Comput Mol Sci. 4, 15-25 (2014).
 CP2K: atomistic simulations of condensed matter systems.
 https://doi.org/10.1002/wcms.1159

 U. Borstnik, J. VandeVondele, V. Weber, J. Hutter.
 Parallel Comput. 40, 47-58 (2014).
 Sparse matrix multiplication: The distributed block-compressed sparse row 
 library.
 https://doi.org/10.1016/j.parco.2014.03.012

 A. Marek, V. Blum, R. Johanni, V. Havu, B. Lang, T. Auckenthaler, A. Heinecke, 
 H. Bungartz, H. Lederer.
 J. Phys. Condens. Matter 26, 213201 (2014).
 The ELPA library: scalable parallel eigenvalue solutions for electronic 
 structure theory and computational science.
 https://doi.org/10.1088/0953-8984/26/21/213201

 J. VandeVondele, U. Borstnik, J. Hutter.
 J. Chem. Theory Comput. 8, 3565-3573 (2012).
 Linear Scaling Self-Consistent Field Calculations with Millions of Atoms in the 
 Condensed Phase.
 https://doi.org/10.1021/ct200897x

 J. VandeVondele, J. Hutter.
 J. Chem. Phys. 127, 114105 (2007).
 Gaussian basis sets for accurate calculations on molecular systems in gas and 
 condensed phases.
 https://doi.org/10.1063/1.2770708

 J. VandeVondele, M. Krack, F. Mohamed, M. Parrinello, T. Chassaing, J. Hutter.
 Comput. Phys. Commun. 167, 103-128 (2005).
 QUICKSTEP: Fast and accurate density functional calculations using a mixed 
 Gaussian and plane waves approach.
 https://doi.org/10.1016/j.cpc.2004.12.014

 M. Krack.
 Theor. Chem. Acc. 114, 145-152 (2005).
 Pseudopotentials for H to Kr optimized for gradient-corrected 
 exchange-correlation functionals.
 https://doi.org/10.1007/s00214-005-0655-y

 M. Frigo, S. G. Johnson.
 Proc. IEEE 93, 216-231 (2005).
 The design and implementation of FFTW3.
 https://doi.org/10.1109/JPROC.2004.840301

 A. M. N. Niklasson, C. J. Tymczak, M. Challacombe.
 J. Chem. Phys. 118, 8611-8620 (2003).
 Trace resetting density matrix purification in O(N) self-consistent-field 
 theory.
 https://doi.org/10.1063/1.1559913

 C. Hartwigsen, S. Goedecker, J. Hutter.
 Phys. Rev. B 58, 3641-3662 (1998).
 Relativistic separable dual-space Gaussian pseudopotentials from H to Rn.
 https://doi.org/10.1103/PhysRevB.58.3641

 G. Lippert, J. Hutter, M. Parrinello.
 Mol. Phys. 92, 477-487 (1997).
 A hybrid Gaussian and plane wave density functional scheme.
 https://doi.org/10.1080/002689797170220

 S. Goedecker, M. Teter, J. Hutter.
 Phys. Rev. B 54, 1703-1710 (1996).
 Separable dual-space Gaussian pseudopotentials.
 https://doi.org/10.1103/PhysRevB.54.1703

 J. P. Perdew, K. Burke, M. Ernzerhof.
 Phys. Rev. Lett. 77, 3865-3868 (1996).
 Generalized gradient approximation made simple.
 https://doi.org/10.1103/PhysRevLett.77.3865


 -------------------------------------------------------------------------------
 -                                                                             -
 -                                T I M I N G                                  -
 -                                                                             -
 -------------------------------------------------------------------------------
 SUBROUTINE                       CALLS  ASD         SELF TIME        TOTAL TIME
                                MAXIMUM       AVERAGE  MAXIMUM  AVERAGE  MAXIMUM
 CP2K                                 1  1.0    0.012    0.016  433.319  433.323
 qs_energies                          1  2.0    0.000    0.000  433.163  433.167
 ls_scf                               1  3.0    0.000    0.000  432.018  432.022
 pao_update                           6  4.0    0.006    0.024  405.895  405.898
 pao_calc_energy                    796  5.0    0.003    0.018  364.010  364.013
 dbcsr_multiply_generic           49014  8.4    1.332    1.416  340.843  341.143
 multiply_cannon                  49014  9.4    2.534    2.939  275.146  281.846
 multiply_cannon_loop             49014 10.4    1.836    2.082  264.771  269.396
 ls_scf_init_matrix_S               802  7.0    0.008    0.009  209.259  209.329
 pao_rebuild_S                      796  6.0    0.002    0.003  207.687  207.757
 matrix_sqrt_Newton_Schulz          802  8.0    0.165    0.276  194.447  194.509
 multiply_cannon_multrec         392112 11.4  175.230  177.215  176.022  177.995
 pao_dm_trs4                        796  6.0    0.006    0.006  155.948  155.966
 density_matrix_trs4                809  7.0    0.209    0.355  149.969  150.054
 mp_waitall_1                   3138426 12.6   85.486   92.494   85.486   92.494
 multiply_cannon_metrocomm3      392112 11.4    0.685    0.743   68.340   73.390
 arnoldi_extremal                  1611  8.5    0.013    0.014   57.286   57.349
 arnoldi_normal_ev                 1611  9.5    0.035    0.059   57.271   57.332
 make_m2s                         98028  9.4    0.532    0.678   50.283   51.373
 build_subspace                    5629 10.7    0.344    0.368   50.366   50.404
 make_images                      98028 10.4    7.238    7.476   48.951   49.893
 dbcsr_matrix_vector_mult        172092 11.7    0.738    1.113   47.494   47.825
 pao_calc_AB                       1056  5.8    0.002    0.002   41.441   41.443
 pao_calc_AB_equi                  1056  6.8    0.039    0.099   41.439   41.442
 dbcsr_matrix_vector_mult_local  172092 12.7   40.529   41.099   40.721   41.289
 pao_calc_grad_lnv_wrt_AB           259  7.0    0.019    0.022   41.043   41.075
 make_images_data                 98028 11.4    0.840    0.953   21.293   23.582
 ls_scf_main                          6  4.0    0.000    0.001   22.853   22.854
 hybrid_alltoall_any              99628 12.3    0.882    1.714   16.656   20.343
 ls_scf_dm_to_ks                     13  5.0    0.000    0.000   20.285   20.289
 matrix_qs_to_ls                   1611  7.5    0.016    0.022   16.712   16.866
 mp_sum_l                        200335  9.5    8.098   13.134    8.098   13.134
 calculate_norms                 732224 11.4   11.490   12.534   11.490   12.534
 qs_ks_update_qs_env                 14  6.0    0.000    0.000   12.169   12.171
 rebuild_ks_matrix                   14  7.0    0.000    0.000   12.159   12.161
 qs_ks_build_kohn_sham_matrix        14  8.0    0.002    0.003   12.159   12.161
 make_images_pack                 98028 11.4   10.878   11.175   11.010   11.309
 qs_rho_update_rho_low               14  6.0    0.000    0.000    9.592    9.594
 calculate_rho_elec                  14  7.0    0.005    0.005    9.592    9.594
 sum_up_and_integrate                14  9.0    0.000    0.000    9.206    9.209
 integrate_v_rspace                  14 10.0    0.000    0.000    9.193    9.196
 dbcsr_multiply_generic_mpsum_f   36003  9.5    0.026    0.031    4.861    8.848
 -------------------------------------------------------------------------------

 The number of warnings for this run is : 1
 
 -------------------------------------------------------------------------------
  **** **** ******  **  PROGRAM ENDED AT                 2024-09-24 01:59:52.232
 ***** ** ***  *** **   PROGRAM RAN ON                                    moritz
 **    ****   ******    PROGRAM RAN BY                                       ole
 ***** **    ** ** **   PROGRAM PROCESS ID                                166442
  **** **  *******  **  PROGRAM STOPPED IN /home/ole/git/pao_ml_equivar/64H2O_MD
                                           /Frame2900
