 DBCSR| CPU Multiplication driver                                           BLAS
 DBCSR| Multrec recursion limit                                              512
 DBCSR| Multiplication stack size                                           1000
 DBCSR| Maximum elements for images                                    UNLIMITED
 DBCSR| Multiplicative factor virtual images                                   1
 DBCSR| Use multiplication densification                                       T
 DBCSR| Multiplication size stacks                                             3


  **** **** ******  **  PROGRAM STARTED AT               2019-03-28 17:24:28.327
 ***** ** ***  *** **   PROGRAM STARTED ON        oleschuett.zrh.corp.google.com
 **    ****   ******    PROGRAM STARTED BY                            oleschuett
 ***** **    ** ** **   PROGRAM PROCESS ID                                  5502
  **** **  *******  **  PROGRAM STARTED IN /usr/local/google/home/oleschuett/git
                                           /pao_ml_equivar/2H2O_rotations/phi_11

 CP2K| version string:                    CP2K version 7.0 (Development Version)
 CP2K| source code revision number:                                git:d9814d431
 CP2K| cp2kflags: libint fftw3 libxc libderiv_max_am1=5 libint_max_am=6         
 CP2K| is freely available from                            https://www.cp2k.org/
 CP2K| Program compiled at                          Mon Mar 25 16:50:07 CET 2019
 CP2K| Program compiled on                        oleschuett.zrh.corp.google.com
 CP2K| Program compiled for                                                local
 CP2K| Data directory path       /usr/local/google/home/oleschuett/git/cp2k/data
 CP2K| Input file name                                              2H2O_ref.inp

 GLOBAL| Force Environment number                                              1
 GLOBAL| Basis set file name                                        BASIS_MOLOPT
 GLOBAL| Potential file name                                      GTH_POTENTIALS
 GLOBAL| MM Potential file name                                     MM_POTENTIAL
 GLOBAL| Coordinate file name                                         coords.xyz
 GLOBAL| Method name                                                        CP2K
 GLOBAL| Project name                                                   2H2O_ref
 GLOBAL| Preferred FFT library                                             FFTW3
 GLOBAL| Preferred diagonalization lib.                                       SL
 GLOBAL| Run type                                                         ENERGY
 GLOBAL| All-to-all communication in single precision                          F
 GLOBAL| FFTs using library dependent lengths                                  F
 GLOBAL| Global print level                                                  LOW
 GLOBAL| MPI I/O enabled                                                       T
 GLOBAL| Total number of message passing processes                             1
 GLOBAL| Number of threads for this process                                    1
 GLOBAL| This output is from process                                           0
 GLOBAL| CPU model name :  Intel(R) Xeon(R) CPU E5-1650 v4 @ 3.60GHz

 MEMORY| system memory details [Kb]
 MEMORY|                        rank 0           min           max       average
 MEMORY| MemTotal             65953612      65953612      65953612      65953612
 MEMORY| MemFree               4574608       4574608       4574608       4574608
 MEMORY| Buffers               2547700       2547700       2547700       2547700
 MEMORY| Cached               25357504      25357504      25357504      25357504
 MEMORY| Slab                  3623544       3623544       3623544       3623544
 MEMORY| SReclaimable          2423020       2423020       2423020       2423020
 MEMORY| MemLikelyFree        34902832      34902832      34902832      34902832


 GENERATE|  Preliminary Number of Bonds generated:                             0
 GENERATE|  Achieved consistency in connectivity generation.

 *******************************************************************************
 *******************************************************************************
 **                                                                           **
 **     #####                         ##              ##                      **
 **    ##   ##            ##          ##              ##                      **
 **   ##     ##                       ##            ######                    **
 **   ##     ##  ##   ##  ##   #####  ##  ##   ####   ##    #####    #####    **
 **   ##     ##  ##   ##  ##  ##      ## ##   ##      ##   ##   ##  ##   ##   **
 **   ##  ## ##  ##   ##  ##  ##      ####     ###    ##   ######   ######    **
 **    ##  ###   ##   ##  ##  ##      ## ##      ##   ##   ##       ##        **
 **     #######   #####   ##   #####  ##  ##  ####    ##    #####   ##        **
 **           ##                                                    ##        **
 **                                                                           **
 **                                                ... make the atoms dance   **
 **                                                                           **
 **            Copyright (C) by CP2K developers group (2000 - 2018)           **
 **                                                                           **
 *******************************************************************************


 TOTAL NUMBERS AND MAXIMUM NUMBERS

  Total number of            - Atomic kinds:                                   2
                             - Atoms:                                          6
                             - Shell sets:                                     6
                             - Shells:                                        22
                             - Primitive Cartesian functions:                 42
                             - Cartesian basis functions:                     48
                             - Spherical basis functions:                     46

  Maximum angular momentum of- Orbital basis functions:                        2
                             - Local part of the GTH pseudopotential:          2
                             - Non-local part of the GTH pseudopotential:      0

 ------------------------------ Linear scaling SCF -----------------------------
 eps_scf:                                                              0.100E-07
 eps_filter:                                                           0.100E-07
 mixing_fraction:                                                      0.450E+00
 max_scf:                                                                     25
 fixed chemical potential (mu)                                                 F
 has unit metric:                                                              F
 Computing inv(S):                                                             T
 Computing sqrt(S):                                                            T
 Computing s preconditioner                                                    F
 sign sqrt order:                                                              3
 Extrapolation order:                                                          4
 Use single precision matrices                                                 F
 S preconditioner type                                                      NONE
 Polarized Atomic Orbitals (PAO)                                               F
 Purification method                                   Trace resetting 4th order
 Cluster type                                                             ATOMIC
 Computing Chebyshev                                                       FALSE
 Using PAO                                                                     F
 -------------------------------------------------------------------------------


     Lanczos converged:  T threshold:   0.100E-02
     Est. extremal eigenvalues:    0.406E+01   0.113E-01
     Est. condition number :    0.359E+03
     NS sqrt iter    1 1.00000000   0.105E+01       0.002      225.771
     NS sqrt iter    2 1.00000000   0.617E+00       0.002      395.678
     NS sqrt iter    3 1.00000000   0.343E+00       0.002      402.895
     NS sqrt iter    4 1.00000000   0.234E+00       0.002      399.194
     NS sqrt iter    5 1.00000000   0.117E+00       0.002      376.723
     NS sqrt iter    6 1.00000000   0.145E-01       0.002      399.232
     NS sqrt iter    7 1.00000000   0.354E-04       0.002      348.794
     Final NS sqrt iter    7 1.00000000   0.687E-08



 Guess for atomic kind: O

 Electronic structure
    Total number of core electrons                                          2.00
    Total number of valence electrons                                       6.00
    Total number of electrons                                               8.00
    Multiplicity                                                   not specified
    S   [  2.00] 2.00
    P      4.00


 *******************************************************************************
                  Iteration          Convergence                     Energy [au]
 *******************************************************************************
                          1        0.708315                     -15.576645311500
                          2        0.608879                     -15.587933561584
                          3        0.102828E-01                 -15.656849565404
                          4        0.113889E-02                 -15.656866888140
                          5        0.434197E-03                 -15.656867072159
                          6        0.263771E-03                 -15.656867091904
                          7        0.478536E-06                 -15.656867103452

 Energy components [Hartree]           Total Energy ::          -15.656867103452
                                        Band Energy ::           -3.000198112285
                                     Kinetic Energy ::           11.759971203220
                                   Potential Energy ::          -27.416838306672
                                      Virial (-V/T) ::            2.331369510426
                                        Core Energy ::          -26.140716385623
                                          XC Energy ::           -3.154051012914
                                     Coulomb Energy ::           13.637900295084
                       Total Pseudopotential Energy ::          -37.935781716540
                       Local Pseudopotential Energy ::          -39.218907440693
                    Nonlocal Pseudopotential Energy ::            1.283125724153
                                        Confinement ::            0.350941276976

 Orbital energies  State     L     Occupation   Energy[a.u.]          Energy[eV]

                       1     0          2.000      -0.864471          -23.523463

                       1     1          4.000      -0.317814           -8.648154


 Total Electron Density at R=0:                                         0.000068

 Guess for atomic kind: H

 Electronic structure
    Total number of core electrons                                          0.00
    Total number of valence electrons                                       1.00
    Total number of electrons                                               1.00
    Multiplicity                                                   not specified
    S      1.00


 *******************************************************************************
                  Iteration          Convergence                     Energy [au]
 *******************************************************************************
                          1        0.437545E-02                  -0.424159432110
                          2        0.531356E-03                  -0.424178438213
                          3        0.259176E-06                  -0.424178722480

 Energy components [Hartree]           Total Energy ::           -0.424178722480
                                        Band Energy ::           -0.199015229016
                                     Kinetic Energy ::            0.464007633961
                                   Potential Energy ::           -0.888186356441
                                      Virial (-V/T) ::            1.914163240935
                                        Core Energy ::           -0.479160803564
                                          XC Energy ::           -0.244352904054
                                     Coulomb Energy ::            0.299334985138
                       Total Pseudopotential Energy ::           -0.962295316385
                       Local Pseudopotential Energy ::           -0.962295316385
                    Nonlocal Pseudopotential Energy ::            0.000000000000
                                        Confinement ::            0.191268788606

 Orbital energies  State     L     Occupation   Energy[a.u.]          Energy[eV]

                       1     0          1.000      -0.199015           -5.415480


 Total Electron Density at R=0:                                         0.242907
 Re-scaling the density matrix to get the right number of electrons
                  # Electrons              Trace(P)               Scaling factor
                           16                15.990                        1.001
 Energy with the initial guess:       -34.130468174

     Est. extremal eigenvalues     -1.07107     3.79873  converged:  T
     TRS4 it   1 1.00000000   0.179E+01       0.001      117.484   0.100E-07
     TRS4 it   2 1.00000000   0.157E+01       0.001      117.484   0.100E-07
     TRS4 it   3 1.00000000   0.903E+00       0.001      196.010   0.100E-07
     TRS4 it   4 1.00000000   0.556E+00       0.001      203.342   0.100E-07
     TRS4 it   5 1.00000000   0.331E+00       0.001      193.314   0.100E-07
     TRS4 it   6 1.00000000   0.151E+00       0.001      200.347   0.100E-07
     TRS4 it   7 1.00000000   0.417E-01       0.001      209.394   0.100E-07
     TRS4 it   8 1.00000000   0.414E-02       0.001      206.847   0.100E-07
     TRS4 it   9 1.00000000   0.513E-04       0.001      221.495   0.100E-07
     TRS4 it  10 1.00000000   0.803E-08       0.001      213.599   0.100E-07
     Final TRS4 iteration   10 1.00000000   0.803E-08
     Chemical potential (mu):      -0.22793

 SCF     1       -34.246635506       -34.246635506    2.283919

*********************************************************
 Using MIXING_FRACTION=0.450 to mix KS matrix:  iscf=  2
 KS_nw=0.450*KS + 0.550*KS_old
*********************************************************
     Est. extremal eigenvalues     -0.92901     3.92439  converged:  T
     TRS4 it   1 1.00000000   0.176E+01       0.001      117.484   0.100E-07
     TRS4 it   2 1.00000000   0.160E+01       0.001      117.484   0.100E-07
     TRS4 it   3 1.00000000   0.967E+00       0.001      199.600   0.100E-07
     TRS4 it   4 1.00000000   0.593E+00       0.001      206.810   0.100E-07
     TRS4 it   5 1.00000000   0.396E+00       0.001      205.419   0.100E-07
     TRS4 it   6 1.00000000   0.229E+00       0.001      190.508   0.100E-07
     TRS4 it   7 1.00000000   0.105E+00       0.001      188.244   0.100E-07
     TRS4 it   8 1.00000000   0.297E-01       0.001      186.342   0.100E-07
     TRS4 it   9 1.00000000   0.332E-02       0.001      234.968   0.100E-07
     TRS4 it  10 1.00000000   0.475E-04       0.001      234.968   0.100E-07
     TRS4 it  11 1.00000000   0.100E-07       0.001      234.968   0.100E-07
     Final TRS4 iteration   11 1.00000000   0.100E-07
     Chemical potential (mu):      -0.11538

 SCF     2       -34.439828356        -0.193192850    2.291762

*********************************************************
 Using MIXING_FRACTION=0.450 to mix KS matrix:  iscf=  3
 KS_nw=0.450*KS + 0.550*KS_old
*********************************************************
     Est. extremal eigenvalues     -0.95196     3.91210  converged:  T
     TRS4 it   1 1.00000000   0.177E+01       0.001      117.484   0.100E-07
     TRS4 it   2 1.00000000   0.159E+01       0.001      117.484   0.100E-07
     TRS4 it   3 1.00000000   0.956E+00       0.001      204.341   0.100E-07
     TRS4 it   4 1.00000000   0.591E+00       0.001      209.453   0.100E-07
     TRS4 it   5 1.00000000   0.390E+00       0.001      210.881   0.100E-07
     TRS4 it   6 1.00000000   0.219E+00       0.001      207.344   0.100E-07
     TRS4 it   7 1.00000000   0.955E-01       0.001      209.510   0.100E-07
     TRS4 it   8 1.00000000   0.248E-01       0.001      211.478   0.100E-07
     TRS4 it   9 1.00000000   0.239E-02       0.001      211.600   0.100E-07
     TRS4 it  10 1.00000000   0.258E-04       0.001      188.851   0.100E-07
     TRS4 it  11 1.00000000   0.299E-08       0.001      162.137   0.100E-07
     Final TRS4 iteration   11 1.00000000   0.299E-08
     Chemical potential (mu):      -0.12605

 SCF     3       -34.449521313        -0.009692957    2.289391

*********************************************************
 Using MIXING_FRACTION=0.450 to mix KS matrix:  iscf=  4
 KS_nw=0.450*KS + 0.550*KS_old
*********************************************************
     Est. extremal eigenvalues     -0.94036     3.92422  converged:  T
     TRS4 it   1 1.00000000   0.176E+01       0.001      117.484   0.100E-07
     TRS4 it   2 1.00000000   0.160E+01       0.001      117.484   0.100E-07
     TRS4 it   3 1.00000000   0.960E+00       0.001      206.662   0.100E-07
     TRS4 it   4 1.00000000   0.594E+00       0.001      209.775   0.100E-07
     TRS4 it   5 1.00000000   0.395E+00       0.001      212.145   0.100E-07
     TRS4 it   6 1.00000000   0.226E+00       0.001      208.628   0.100E-07
     TRS4 it   7 1.00000000   0.102E+00       0.001      210.727   0.100E-07
     TRS4 it   8 1.00000000   0.288E-01       0.001      213.395   0.100E-07
     TRS4 it   9 1.00000000   0.331E-02       0.001      211.040   0.100E-07
     TRS4 it  10 1.00000000   0.506E-04       0.001      208.931   0.100E-07
     TRS4 it  11 1.00000000   0.116E-07       0.001      212.953   0.100E-07
     Final TRS4 iteration   11 1.00000000   0.116E-07
     Chemical potential (mu):      -0.11584

 SCF     4       -34.450249867        -0.000728555    2.300245

*********************************************************
 Using MIXING_FRACTION=0.450 to mix KS matrix:  iscf=  5
 KS_nw=0.450*KS + 0.550*KS_old
*********************************************************
     Est. extremal eigenvalues     -0.94072     3.92564  converged:  T
     TRS4 it   1 1.00000000   0.176E+01       0.001      117.484   0.100E-07
     TRS4 it   2 1.00000000   0.160E+01       0.001      117.484   0.100E-07
     TRS4 it   3 1.00000000   0.960E+00       0.001      203.000   0.100E-07
     TRS4 it   4 1.00000000   0.594E+00       0.001      214.623   0.100E-07
     TRS4 it   5 1.00000000   0.395E+00       0.001      215.358   0.100E-07
     TRS4 it   6 1.00000000   0.226E+00       0.001      215.602   0.100E-07
     TRS4 it   7 1.00000000   0.103E+00       0.001      216.192   0.100E-07
     TRS4 it   8 1.00000000   0.292E-01       0.001      216.888   0.100E-07
     TRS4 it   9 1.00000000   0.346E-02       0.001      212.765   0.100E-07
     TRS4 it  10 1.00000000   0.559E-04       0.001      217.024   0.100E-07
     TRS4 it  11 1.00000000   0.142E-07       0.001      215.748   0.100E-07
     Final TRS4 iteration   11 1.00000000   0.142E-07
     Chemical potential (mu):      -0.11466

 SCF     5       -34.450310365        -0.000060497    2.298165

*********************************************************
 Using MIXING_FRACTION=0.450 to mix KS matrix:  iscf=  6
 KS_nw=0.450*KS + 0.550*KS_old
*********************************************************
     Est. extremal eigenvalues     -0.93913     3.92768  converged:  T
     TRS4 it   1 1.00000000   0.176E+01       0.001      117.484   0.100E-07
     TRS4 it   2 1.00000000   0.160E+01       0.001      117.484   0.100E-07
     TRS4 it   3 1.00000000   0.960E+00       0.001      216.017   0.100E-07
     TRS4 it   4 1.00000000   0.595E+00       0.001      214.536   0.100E-07
     TRS4 it   5 1.00000000   0.396E+00       0.001      217.072   0.100E-07
     TRS4 it   6 1.00000000   0.228E+00       0.001      217.632   0.100E-07
     TRS4 it   7 1.00000000   0.104E+00       0.001      218.759   0.100E-07
     TRS4 it   8 1.00000000   0.299E-01       0.001      212.447   0.100E-07
     TRS4 it   9 1.00000000   0.365E-02       0.001      213.493   0.100E-07
     TRS4 it  10 1.00000000   0.627E-04       0.001      211.663   0.100E-07
     TRS4 it  11 1.00000000   0.179E-07       0.001      211.583   0.100E-07
     Final TRS4 iteration   11 1.00000000   0.179E-07
     Chemical potential (mu):      -0.11296

 SCF     6       -34.450317250        -0.000006886    2.302718

*********************************************************
 Using MIXING_FRACTION=0.450 to mix KS matrix:  iscf=  7
 KS_nw=0.450*KS + 0.550*KS_old
*********************************************************
     Est. extremal eigenvalues     -0.93878     3.92840  converged:  T
     TRS4 it   1 1.00000000   0.176E+01       0.001      117.484   0.100E-07
     TRS4 it   2 1.00000000   0.160E+01       0.001      117.484   0.100E-07
     TRS4 it   3 1.00000000   0.961E+00       0.001      213.216   0.100E-07
     TRS4 it   4 1.00000000   0.595E+00       0.001      216.697   0.100E-07
     TRS4 it   5 1.00000000   0.396E+00       0.001      216.027   0.100E-07
     TRS4 it   6 1.00000000   0.228E+00       0.001      218.229   0.100E-07
     TRS4 it   7 1.00000000   0.104E+00       0.001      195.944   0.100E-07
     TRS4 it   8 1.00000000   0.302E-01       0.001      192.813   0.100E-07
     TRS4 it   9 1.00000000   0.373E-02       0.001      197.243   0.100E-07
     TRS4 it  10 1.00000000   0.656E-04       0.001      204.260   0.100E-07
     TRS4 it  11 1.00000000   0.196E-07       0.001      197.284   0.100E-07
     Final TRS4 iteration   11 1.00000000   0.196E-07
     Chemical potential (mu):      -0.11235

 SCF     7       -34.450318440        -0.000001190    2.293502

*********************************************************
 Using MIXING_FRACTION=0.450 to mix KS matrix:  iscf=  8
 KS_nw=0.450*KS + 0.550*KS_old
*********************************************************
     Est. extremal eigenvalues     -0.93846     3.92887  converged:  T
     TRS4 it   1 1.00000000   0.176E+01       0.001      117.484   0.100E-07
     TRS4 it   2 1.00000000   0.160E+01       0.001      117.484   0.100E-07
     TRS4 it   3 1.00000000   0.961E+00       0.001      218.051   0.100E-07
     TRS4 it   4 1.00000000   0.595E+00       0.001      216.767   0.100E-07
     TRS4 it   5 1.00000000   0.397E+00       0.001      218.661   0.100E-07
     TRS4 it   6 1.00000000   0.228E+00       0.001      218.388   0.100E-07
     TRS4 it   7 1.00000000   0.104E+00       0.001      213.426   0.100E-07
     TRS4 it   8 1.00000000   0.304E-01       0.001      208.938   0.100E-07
     TRS4 it   9 1.00000000   0.378E-02       0.001      211.859   0.100E-07
     TRS4 it  10 1.00000000   0.675E-04       0.001      210.552   0.100E-07
     TRS4 it  11 1.00000000   0.208E-07       0.001      200.143   0.100E-07
     Final TRS4 iteration   11 1.00000000   0.208E-07
     Chemical potential (mu):      -0.11196

 SCF     8       -34.450318719        -0.000000279    2.321816

*********************************************************
 Using MIXING_FRACTION=0.450 to mix KS matrix:  iscf=  9
 KS_nw=0.450*KS + 0.550*KS_old
*********************************************************
     Est. extremal eigenvalues     -0.93833     3.92909  converged:  T
     TRS4 it   1 1.00000000   0.176E+01       0.001      117.484   0.100E-07
     TRS4 it   2 1.00000000   0.160E+01       0.001      117.484   0.100E-07
     TRS4 it   3 1.00000000   0.961E+00       0.001      234.968   0.100E-07
     TRS4 it   4 1.00000000   0.595E+00       0.001      174.259   0.100E-07
     TRS4 it   5 1.00000000   0.397E+00       0.001      165.476   0.100E-07
     TRS4 it   6 1.00000000   0.228E+00       0.001      165.281   0.100E-07
     TRS4 it   7 1.00000000   0.105E+00       0.001      171.803   0.100E-07
     TRS4 it   8 1.00000000   0.304E-01       0.001      171.012   0.100E-07
     TRS4 it   9 1.00000000   0.380E-02       0.002      154.779   0.100E-07
     TRS4 it  10 1.00000000   0.684E-04       0.001      157.218   0.100E-07
     TRS4 it  11 1.00000000   0.213E-07       0.002      150.416   0.100E-07
     Final TRS4 iteration   11 1.00000000   0.213E-07
     Chemical potential (mu):      -0.11177

 SCF     9       -34.450318793        -0.000000074    2.343350

 Writing restart DM 2H2O_ref_LS_DM_SPIN_1_RESTART.dm with checksum:       0.72193948E+02

 ENERGY| Total FORCE_EVAL ( QS ) energy (a.u.):              -34.450318793203941


 -------------------------------------------------------------------------------
 -                                                                             -
 -                                DBCSR STATISTICS                             -
 -                                                                             -
 -------------------------------------------------------------------------------
 COUNTER                                    TOTAL       BLAS       SMM       ACC
 flops     5 x     5 x     5              2778000     100.0%      0.0%      0.0%
 flops     5 x    13 x     5              3120000     100.0%      0.0%      0.0%
 flops    13 x     5 x     5              3120000     100.0%      0.0%      0.0%
 flops     5 x     5 x    13              3601000     100.0%      0.0%      0.0%
 flops    13 x     5 x    13              4062760     100.0%      0.0%      0.0%
 flops     5 x    13 x    13              4062760     100.0%      0.0%      0.0%
 flops    13 x    13 x     5              5313360     100.0%      0.0%      0.0%
 flops    13 x    13 x    13              6942520     100.0%      0.0%      0.0%
 flops inhomo. stacks                           0       0.0%      0.0%      0.0%
 flops total                        33.000400E+06     100.0%      0.0%      0.0%
 flops max/rank                     33.000400E+06     100.0%      0.0%      0.0%
 matmuls inhomo. stacks                         0       0.0%      0.0%      0.0%
 matmuls total                              35784     100.0%      0.0%      0.0%
 number of processed stacks                  1960     100.0%      0.0%      0.0%
 average stack size                                    18.3       0.0       0.0
 marketing flops                    47.889312E+06
 -------------------------------------------------------------------------------
 # multiplications                            246
 max memory usage/rank             327.491584E+06
 # max total images/rank                        1
 # max 3D layers                                1
 # MPI messages exchanged                       0
 MPI messages size (bytes):
  total size                         0.000000E+00
  min size                           0.000000E+00
  max size                           0.000000E+00
  average size                       0.000000E+00
 MPI breakdown and total messages size (bytes):
             size <=      128                   0                        0
       128 < size <=     8192                   0                        0
      8192 < size <=    32768                   0                        0
     32768 < size <=   131072                   0                        0
    131072 < size <=  4194304                   0                        0
   4194304 < size <= 16777216                   0                        0
  16777216 < size                               0                        0
 -------------------------------------------------------------------------------

 MEMORY| Estimated peak process memory [MiB]                                 313

 -------------------------------------------------------------------------------
 -                                                                             -
 -                           R E F E R E N C E S                               -
 -                                                                             -
 -------------------------------------------------------------------------------
 
 CP2K version 7.0 (Development Version), the CP2K developers group (2018).
 CP2K is freely available from https://www.cp2k.org/ .

 Schuett, Ole; Messmer, Peter; Hutter, Juerg; VandeVondele, Joost. 
 Electronic Structure Calculations on Graphics Processing Units, John Wiley & Sons, Ltd, 173-190 (2016). 
 GPU-Accelerated Sparse Matrix-Matrix Multiplication for Linear Scaling Density Functional Theory.
 https://dx.doi.org/10.1002/9781118670712.ch8


 Borstnik, U; VandeVondele, J; Weber, V; Hutter, J. 
 PARALLEL COMPUTING, 40 (5-6), 47-58 (2014). 
 Sparse matrix multiplication: The distributed block-compressed sparse
 row library.
 https://dx.doi.org/10.1016/j.parco.2014.03.012


 Hutter, J; Iannuzzi, M; Schiffmann, F; VandeVondele, J. 
 WILEY INTERDISCIPLINARY REVIEWS-COMPUTATIONAL MOLECULAR SCIENCE, 4 (1), 15-25 (2014). 
 CP2K: atomistic simulations of condensed matter systems.
 https://dx.doi.org/10.1002/wcms.1159


 VandeVondele, J; Borstnik, U; Hutter, J. 
 JOURNAL OF CHEMICAL THEORY AND COMPUTATION, 8 (10), 3565-3573 (2012). 
 Linear Scaling Self-Consistent Field Calculations with Millions of Atoms
 in the Condensed Phase.
 https://dx.doi.org/10.1021/ct200897x


 VandeVondele, J; Hutter, J. 
 JOURNAL OF CHEMICAL PHYSICS, 127 (11), 114105 (2007). 
 Gaussian basis sets for accurate calculations on molecular systems in
 gas and condensed phases.
 https://dx.doi.org/10.1063/1.2770708


 Krack, M. 
 THEORETICAL CHEMISTRY ACCOUNTS, 114 (1-3), 145-152 (2005). 
 Pseudopotentials for H to Kr optimized for gradient-corrected
 exchange-correlation functionals.
 https://dx.doi.org/10.1007/s00214-005-0655-y


 VandeVondele, J; Krack, M; Mohamed, F; Parrinello, M; Chassaing, T;
 Hutter, J. COMPUTER PHYSICS COMMUNICATIONS, 167 (2), 103-128 (2005). 
 QUICKSTEP: Fast and accurate density functional calculations using a
 mixed Gaussian and plane waves approach.
 https://dx.doi.org/10.1016/j.cpc.2004.12.014


 Frigo, M; Johnson, SG. 
 PROCEEDINGS OF THE IEEE, 93 (2), 216-231 (2005). 
 The design and implementation of FFTW3.
 https://dx.doi.org/10.1109/JPROC.2004.840301


 Niklasson, AMN; Tymczak, CJ; Challacombe, M. 
 JOURNAL OF CHEMICAL PHYSICS, 118 (19), 8611-8620 (2003). 
 Trace resetting density matrix purification in O(N)
 self-consistent-field theory.
 https://dx.doi.org/10.1063/1.1559913


 Hartwigsen, C; Goedecker, S; Hutter, J. 
 PHYSICAL REVIEW B, 58 (7), 3641-3662 (1998). 
 Relativistic separable dual-space Gaussian pseudopotentials from H to Rn.
 https://dx.doi.org/10.1103/PhysRevB.58.3641


 Lippert, G; Hutter, J; Parrinello, M. 
 MOLECULAR PHYSICS, 92 (3), 477-487 (1997). 
 A hybrid Gaussian and plane wave density functional scheme.
 https://dx.doi.org/10.1080/002689797170220


 Perdew, JP; Burke, K; Ernzerhof, M. 
 PHYSICAL REVIEW LETTERS, 77 (18), 3865-3868 (1996). 
 Generalized gradient approximation made simple.
 https://dx.doi.org/10.1103/PhysRevLett.77.3865


 Goedecker, S; Teter, M; Hutter, J. 
 PHYSICAL REVIEW B, 54 (3), 1703-1710 (1996). 
 Separable dual-space Gaussian pseudopotentials.
 https://dx.doi.org/10.1103/PhysRevB.54.1703


 -------------------------------------------------------------------------------
 -                                                                             -
 -                                T I M I N G                                  -
 -                                                                             -
 -------------------------------------------------------------------------------
 SUBROUTINE                       CALLS  ASD         SELF TIME        TOTAL TIME
                                MAXIMUM       AVERAGE  MAXIMUM  AVERAGE  MAXIMUM
 CP2K                                 1  1.0    0.017    0.017   23.563   23.563
 qs_energies                          1  2.0    0.000    0.000   23.072   23.072
 ls_scf                               1  3.0    0.000    0.000   22.859   22.859
 ls_scf_main                          1  4.0    0.001    0.001   20.725   20.725
 ls_scf_dm_to_ks                      9  5.0    0.000    0.000   20.571   20.571
 qs_ks_update_qs_env                 10  6.1    0.000    0.000   15.854   15.854
 rebuild_ks_matrix                   10  7.1    0.000    0.000   15.853   15.853
 qs_ks_build_kohn_sham_matrix        10  8.1    0.001    0.001   15.853   15.853
 qs_vxc_create                       10  9.1    0.000    0.000    9.566    9.566
 xc_vxc_pw_create                    10 10.1    0.129    0.129    9.566    9.566
 xc_rho_set_and_dset_create          10 11.1    0.032    0.032    7.023    7.023
 qs_rho_update_rho                   10  6.1    0.000    0.000    6.828    6.828
 calculate_rho_elec                  10  7.1    5.421    5.421    6.827    6.827
 pw_transfer                        191 10.7    0.017    0.017    6.437    6.437
 fft_wrap_pw1pw2                    171 11.8    0.002    0.002    6.328    6.328
 fft_wrap_pw1pw2_200                111 12.9    0.317    0.317    6.051    6.051
 sum_up_and_integrate                10  9.1    0.018    0.018    5.309    5.309
 integrate_v_rspace                  10 10.1    4.588    4.588    5.291    5.291
 xc_functional_eval                  10 12.1    0.000    0.000    5.034    5.034
 pbe_lda_eval                        10 13.1    5.034    5.034    5.034    5.034
 fft3d_s                            172 13.7    3.430    3.430    3.443    3.443
 ls_scf_init_scf                      1  4.0    0.000    0.000    2.132    2.132
 ls_scf_initial_guess                 1  5.0    0.000    0.000    2.114    2.114
 ls_scf_qs_atomic_guess               1  6.0    0.000    0.000    2.114    2.114
 pw_gather_s                         81 13.2    1.476    1.476    1.476    1.476
 density_rs2pw                       10  8.1    0.001    0.001    1.390    1.390
 pw_scatter_s                        90 14.3    1.076    1.076    1.076    1.076
 potential_pw2rs                     10 11.1    0.003    0.003    0.702    0.702
 -------------------------------------------------------------------------------

 The number of warnings for this run is : 0
 
 -------------------------------------------------------------------------------
  **** **** ******  **  PROGRAM ENDED AT                 2019-03-28 17:24:51.981
 ***** ** ***  *** **   PROGRAM RAN ON            oleschuett.zrh.corp.google.com
 **    ****   ******    PROGRAM RAN BY                                oleschuett
 ***** **    ** ** **   PROGRAM PROCESS ID                                  5502
  **** **  *******  **  PROGRAM STOPPED IN /usr/local/google/home/oleschuett/git
                                           /pao_ml_equivar/2H2O_rotations/phi_11
