 DBCSR| CPU Multiplication driver                                           XSMM (U)
 DBCSR| Multrec recursion limit                                              512 (U)
 DBCSR| Multiplication stack size                                           1000 (D)
 DBCSR| Maximum elements for images                                    UNLIMITED (U)
 DBCSR| Multiplicative factor virtual images                                   1 (U)
 DBCSR| Use multiplication densification                                       T (D)
 DBCSR| Multiplication size stacks                                             3 (U)
 DBCSR| Use memory pool for CPU allocation                                     F (U)
 DBCSR| Number of 3D layers                                               SINGLE (U)
 DBCSR| Use MPI memory allocation                                              F (U)
 DBCSR| Use RMA algorithm                                                      F (U)
 DBCSR| Use Communication thread                                               T (U)
 DBCSR| Communication thread load                                             87 (D)
 DBCSR| MPI: My process id                                                     0
 DBCSR| MPI: Number of processes                                              32
 DBCSR| OMP: Current number of threads                                         1
 DBCSR| OMP: Max number of threads                                             1
 DBCSR| Split modifier for TAS multiplication algorithm                  1.0E+00 (U)


  **** **** ******  **  PROGRAM STARTED AT               2024-09-23 23:38:46.901
 ***** ** ***  *** **   PROGRAM STARTED ON                                moritz
 **    ****   ******    PROGRAM STARTED BY                                   ole
 ***** **    ** ** **   PROGRAM PROCESS ID                                164425
  **** **  *******  **  PROGRAM STARTED IN /home/ole/git/pao_ml_equivar/64H2O_MD
                                           /Frame1100

 CP2K| version string:                 CP2K version 2024.3 (Development Version)
 CP2K| source code revision number:                                  git:3f890bb
 CP2K| cp2kflags: omp libint fftw3 libxc libgrpp pexsi elpa parallel scalapack c
 CP2K|            osma quip deepmd xsmm plumed2 spglib libdftd4 sirius libvori l
 CP2K|            libbqb libvdwxc hdf5
 CP2K| is freely available from                            https://www.cp2k.org/
 CP2K| Program compiled at                          Mo 23 Sep 2024 17:17:04 CEST
 CP2K| Program compiled on                                                moritz
 CP2K| Program compiled for                                                local
 CP2K| Data directory path                               /home/ole/git/cp2k/data
 CP2K| Input file name                                           64H2O_pao44.inp

 GLOBAL| Force Environment number                                              1
 GLOBAL| Basis set file name                                        BASIS_MOLOPT
 GLOBAL| Potential file name                                      GTH_POTENTIALS
 GLOBAL| MM Potential file name                                     MM_POTENTIAL
 GLOBAL| Coordinate file name                                         coords.xyz
 GLOBAL| Method name                                                        CP2K
 GLOBAL| Project name                                                64H2O_pao44
 GLOBAL| Run type                                                         ENERGY
 GLOBAL| FFT library                                                       FFTW3
 GLOBAL| Diagonalization library                                            ELPA
 GLOBAL| DGEMM library                                                      BLAS
 GLOBAL| Minimum number of eigenvectors for ELPA usage                        16
 GLOBAL| Orthonormality check for eigenvectors                          DISABLED
 GLOBAL| Matrix multiplication library                                     COSMA
 GLOBAL| All-to-all communication in single precision                          F
 GLOBAL| FFTs using library dependent lengths                                  F
 GLOBAL| Grid backend                                                       AUTO
 GLOBAL| Global print level                                                  LOW
 GLOBAL| MPI I/O enabled                                                       T
 GLOBAL| Total number of message passing processes                            32
 GLOBAL| Number of threads for this process                                    1
 GLOBAL| This output is from process                                           0
 GLOBAL| Stack size for threads created by OpenMP (OMP_STACKSIZE)        default
 GLOBAL| CPU model name           AMD Ryzen Threadripper 3970X 32-Core Processor
 GLOBAL| CPUID                                                              1002

 MEMORY| system memory details [Kb]
 MEMORY|                        rank 0           min           max       average
 MEMORY| MemTotal            131752136     131752136     131752136     131752136
 MEMORY| MemFree             114422128     114422128     114422128     114422128
 MEMORY| Buffers               1989268       1989268       1989268       1989268
 MEMORY| Cached                8597112       8597112       8597116       8597112
 MEMORY| Slab                  1635936       1635936       1635936       1635936
 MEMORY| SReclaimable          1141408       1141408       1141408       1141408
 MEMORY| MemLikelyFree       126149916     126149916     126149920     126149916


 GENERATE|  Preliminary Number of Bonds generated:                             0
 GENERATE|  Achieved consistency in connectivity generation.

 *******************************************************************************
 *******************************************************************************
 **                                                                           **
 **     #####                         ##              ##                      **
 **    ##   ##            ##          ##              ##                      **
 **   ##     ##                       ##            ######                    **
 **   ##     ##  ##   ##  ##   #####  ##  ##   ####   ##    #####    #####    **
 **   ##     ##  ##   ##  ##  ##      ## ##   ##      ##   ##   ##  ##   ##   **
 **   ##  ## ##  ##   ##  ##  ##      ####     ###    ##   ######   ######    **
 **    ##  ###   ##   ##  ##  ##      ## ##      ##   ##   ##       ##        **
 **     #######   #####   ##   #####  ##  ##  ####    ##    #####   ##        **
 **           ##                                                    ##        **
 **                                                                           **
 **                                                ... make the atoms dance   **
 **                                                                           **
 **            Copyright (C) by CP2K developers group (2000-2024)             **
 **                      J. Chem. Phys. 152, 194103 (2020)                    **
 **                                                                           **
 *******************************************************************************


 TOTAL NUMBERS AND MAXIMUM NUMBERS

  Total number of            - Atomic kinds:                                   2
                             - Atoms:                                        192
                             - Shell sets:                                   192
                             - Shells:                                       704
                             - Primitive Cartesian functions:               1344
                             - Cartesian basis functions:                   1536
                             - Spherical basis functions:                   1472

  Maximum angular momentum of- Orbital basis functions:                        2
                             - Local part of the GTH pseudopotential:          2
                             - Non-local part of the GTH pseudopotential:      0

 ------------------------------ Linear scaling SCF -----------------------------
 eps_scf:                                                              0.100E-07
 eps_filter:                                                           0.100E-11
 mixing_fraction:                                                      0.450E+00
 max_scf:                                                                     25
 fixed chemical potential (mu)                                                 F
 has unit metric:                                                              F
 Computing inv(S):                                                             T
 Computing sqrt(S):                                                            T
 Computing S preconditioner                                                    F
 S sqrt method:                                                     NEWTONSCHULZ
 S sqrt order:                                                                 3
 Extrapolation order:                                                          1
 S preconditioner type                                                      NONE
 Polarized Atomic Orbitals (PAO)                                               T
 Purification method                                   Trace resetting 4th order
 Cluster type                                                             ATOMIC
 Computing Chebyshev                                                       FALSE
 Using PAO                                                                     T
 -------------------------------------------------------------------------------

 
 PAO|                                  EPS_PAO                           0.5E-06
 PAO|                                  MIXING                            0.5E+00
 PAO|                                  MAX_PAO                              1500
 PAO|                                  MAX_CYCLES                           1000
 PAO|                                  PARAMETERIZATION              EQUIVARIANT
 PAO|                                  PRECONDITION                            F
 PAO|                                  REGULARIZATION                    0.0E+00
 PAO|                                  EPS_PGF                           0.1E-09
 PAO|                                  PENALTY_DISTANCE                  0.1E+00
 PAO|                                  PENALTY_STRENGTH                  0.5E-02
 PAO|                                  LINPOT_PRECONDITION_DELTA         0.0E+00
 PAO|                                  LINPOT_INITGUESS_DELT             0.0E+00
 PAO|                                  LINPOT_REGULARIZATION_DELTA       0.0E+00
 PAO|                                  LINPOT_REGULARIZATION_STRENGTH    0.0E+00
 PAO|                                  OPTIMIZER                              CG
 PAO|                                  CG_INIT_STEPS                           2
 PAO|                                  CG_RESET_LIMIT                    0.1E+00
 PAO|                                  CHECK_UNITARY_TOL                -0.1E+01
 PAO|                                  CHECK_GRADIENT_TOL               -0.1E+01
 PAO|                                  NUM_GRADIENT_ORDER                      2
 PAO|                                  NUM_GRADIENT_EPS                  0.1E-07
 PAO|                                  PRINT%RESTART%WRITE_CYCLES            100
 PAO|                                  RESTART_FILE 
 PAO|                                  PREOPT_DM_FILE 64H2O_ref_LS_DM_SPIN_1_RESTART.dm
 PAO|                                  MACHINE_LEARNING%METHOD       GAUSSIAN_PR
 PAO|                                  MACHINE_LEARNING%PRIOR               ZERO
 PAO|                                  MACHINE_LEARNING%DESCRIPTOR     POTENTIAL
 PAO|                                  MACHINE_LEARNING%TOLERANCE        0.1E-01
 PAO|                                  MACHINE_LEARNING%GP_NOISE_VAR     0.1E+00
 PAO|                                  MACHINE_LEARNING%GP_SCALE         0.5E-01
 

 Calculating atomic Fock matrix for atomic kind: O

 Electronic structure
    Total number of core electrons                                          2.00
    Total number of valence electrons                                       6.00
    Total number of electrons                                               8.00
    Multiplicity                                                   not specified
    S   [  2.00] 2.00
    P      4.00


 *******************************************************************************
                  Iteration          Convergence                     Energy [au]
 *******************************************************************************
                          1        0.708315                     -15.576645311500
                          2        0.608879                     -15.587933561584
                          3        0.102828E-01                 -15.656849565404
                          4        0.113889E-02                 -15.656866888140
                          5        0.434197E-03                 -15.656867072159
                          6        0.263771E-03                 -15.656867091904
                          7        0.478536E-06                 -15.656867103452

 Energy components [Hartree]           Total Energy ::          -15.656867103452
                                        Band Energy ::           -3.000198112285
                                     Kinetic Energy ::           11.759971203220
                                   Potential Energy ::          -27.416838306672
                                      Virial (-V/T) ::            2.331369510426
                                        Core Energy ::          -26.140716385623
                                          XC Energy ::           -3.154051012914
                                     Coulomb Energy ::           13.637900295084
                       Total Pseudopotential Energy ::          -37.935781716540
                       Local Pseudopotential Energy ::          -39.218907440693
                    Nonlocal Pseudopotential Energy ::            1.283125724153
                                        Confinement ::            0.350941276976

 Orbital energies  State     L     Occupation   Energy[a.u.]          Energy[eV]

                       1     0          2.000      -0.864471          -23.523463

                       1     1          4.000      -0.317814           -8.648154


 Total Electron Density at R=0:                                         0.000068

 Calculating atomic Fock matrix for atomic kind: H

 Electronic structure
    Total number of core electrons                                          0.00
    Total number of valence electrons                                       1.00
    Total number of electrons                                               1.00
    Multiplicity                                                   not specified
    S      1.00


 *******************************************************************************
                  Iteration          Convergence                     Energy [au]
 *******************************************************************************
                          1        0.437545E-02                  -0.424159432110
                          2        0.531356E-03                  -0.424178438213
                          3        0.259176E-06                  -0.424178722480

 Energy components [Hartree]           Total Energy ::           -0.424178722480
                                        Band Energy ::           -0.199015229016
                                     Kinetic Energy ::            0.464007633961
                                   Potential Energy ::           -0.888186356441
                                      Virial (-V/T) ::            1.914163240935
                                        Core Energy ::           -0.479160803564
                                          XC Energy ::           -0.244352904054
                                     Coulomb Energy ::            0.299334985138
                       Total Pseudopotential Energy ::           -0.962295316385
                       Local Pseudopotential Energy ::           -0.962295316385
                    Nonlocal Pseudopotential Energy ::            0.000000000000
                                        Confinement ::            0.191268788606

 Orbital energies  State     L     Occupation   Energy[a.u.]          Energy[eV]

                       1     0          1.000      -0.199015           -5.415480


 Total Electron Density at R=0:                                         0.242907
 PAO| Made initial guess for matrix_X with norm:   27.712812921102035     

     Lanczos converged:  F threshold:   0.100E-02
     Est. extremal eigenvalues:    0.624E+01   0.947E-01
     Est. condition number :    0.659E+02

 Order=           3
     NS sqrt iter    1 1.00000000   0.152E+01       0.021     2674.344
     NS sqrt iter    2 1.00000000   0.828E+00       0.033     3394.732
     NS sqrt iter    3 1.00000000   0.333E+00       0.034     3373.727
     NS sqrt iter    4 1.00000000   0.928E-01       0.033     3384.666
     NS sqrt iter    5 1.00000000   0.339E-02       0.033     3401.879
     NS sqrt iter    6 1.00000000   0.305E-06       0.029     2945.244
     Symmetrizing Results
     Final NS sqrt iter    6 1.00000000   0.186E-12

 PAO| Read restart DM 64H2O_ref_LS_DM_SPIN_1_RESTART.dm with checksum:    6189.3731215273392     
 PAO| Quickstep energy from restart density:  -1103.1088599573909     
 PAO| ======================= Iteration:         1 =============================

     Lanczos converged:  F threshold:   0.100E-02
     Est. extremal eigenvalues:    0.624E+01   0.947E-01
     Est. condition number :    0.659E+02

 Order=           3
     NS sqrt iter    1 1.00000000   0.152E+01       0.021     2745.100
     NS sqrt iter    2 1.00000000   0.828E+00       0.033     3405.946
     NS sqrt iter    3 1.00000000   0.333E+00       0.034     3379.548
     NS sqrt iter    4 1.00000000   0.928E-01       0.033     3409.051
     NS sqrt iter    5 1.00000000   0.339E-02       0.033     3414.526
     NS sqrt iter    6 1.00000000   0.305E-06       0.029     2982.979
     Symmetrizing Results
     Final NS sqrt iter    6 1.00000000   0.186E-12

     Est. extremal eigenvalues     -0.83082     2.62172  converged:  T
     TRS4 it   1 1.00000000   0.274E+02       0.007     2117.336   0.100E-11
     TRS4 it   2 1.00000000   0.236E+02       0.013     2206.089   0.100E-11
     TRS4 it   3 1.00000000   0.162E+02       0.013     2210.761   0.100E-11
     TRS4 it   4 1.00000000   0.102E+02       0.013     2220.091   0.100E-11
     TRS4 it   5 1.00000000   0.497E+01       0.013     2223.409   0.100E-11
     TRS4 it   6 1.00000000   0.167E+01       0.013     2232.755   0.100E-11
     TRS4 it   7 1.00000000   0.336E+00       0.013     2218.493   0.100E-11
     TRS4 it   8 1.00000000   0.240E-01       0.013     2210.690   0.100E-11
     TRS4 it   9 1.00000000   0.201E-03       0.013     2221.853   0.100E-11
     TRS4 it  10 1.00000000   0.119E-07       0.013     2221.189   0.100E-11
     TRS4 it  11 1.00000000   0.178E-13       0.013     2207.840   0.100E-11
     Final TRS4 iteration   11 1.00000000   0.178E-13
     Chemical potential (mu):       0.00703
 
 PAO| energy:  -186.70154887610198      penalty:   1.3872858575410136E-031
 PAO|CG| warming up with steepest descent
 PAO|CG| beta:    0.0000000000000000     
 PAO| norm of gradient:   3.9800885910819854     
 PAO|LS| adapt:  T F F
 PAO|LS| adapt: scan_steps:    0.0000000000000000        0.0000000000000000        0.0000000000000000     
 PAO|LS| adapt: energies:   -186.70154887610198        0.0000000000000000        0.0000000000000000     
 PAO| ======================= Iteration:         2 =============================

     Lanczos converged:  F threshold:   0.100E-02
     Est. extremal eigenvalues:    0.603E+01   0.101E+00
     Est. condition number :    0.597E+02

 Order=           3
     NS sqrt iter    1 1.00000000   0.148E+01       0.021     2709.327
     NS sqrt iter    2 1.00000000   0.800E+00       0.033     3420.816
     NS sqrt iter    3 1.00000000   0.313E+00       0.033     3394.349
     NS sqrt iter    4 1.00000000   0.784E-01       0.033     3405.292
     NS sqrt iter    5 1.00000000   0.213E-02       0.033     3412.264
     NS sqrt iter    6 1.00000000   0.900E-07       0.029     2954.372
     Symmetrizing Results
     Final NS sqrt iter    6 1.00000000   0.196E-13

     Est. extremal eigenvalues     -0.83370     2.61488  converged:  T
     TRS4 it   1 1.00000000   0.276E+02       0.007     2147.089   0.100E-11
     TRS4 it   2 1.00000000   0.236E+02       0.013     2242.657   0.100E-11
     TRS4 it   3 1.00000000   0.161E+02       0.013     2193.996   0.100E-11
     TRS4 it   4 1.00000000   0.998E+01       0.013     2212.820   0.100E-11
     TRS4 it   5 1.00000000   0.475E+01       0.013     2227.214   0.100E-11
     TRS4 it   6 1.00000000   0.154E+01       0.013     2234.381   0.100E-11
     TRS4 it   7 1.00000000   0.289E+00       0.013     2202.976   0.100E-11
     TRS4 it   8 1.00000000   0.173E-01       0.013     2251.759   0.100E-11
     TRS4 it   9 1.00000000   0.940E-04       0.013     2213.481   0.100E-11
     TRS4 it  10 1.00000000   0.299E-08       0.013     2225.824   0.100E-11
     TRS4 it  11 1.00000000   0.888E-14       0.013     2257.398   0.100E-11
     Final TRS4 iteration   11 1.00000000   0.888E-14
     Chemical potential (mu):       0.01248
 
 PAO| energy:  -188.15489860086487      penalty:   4.7013192044815943E-007
 PAO|LS| adapt:  T T F
 PAO|LS| adapt: scan_steps:    0.0000000000000000       0.10000000000000001        0.0000000000000000     
 PAO|LS| adapt: energies:   -186.70154887610198       -188.15489860086487        0.0000000000000000     
 PAO| ======================= Iteration:         3 =============================

     Lanczos converged:  F threshold:   0.100E-02
     Est. extremal eigenvalues:    0.583E+01   0.105E+00
     Est. condition number :    0.555E+02

 Order=           3
     NS sqrt iter    1 1.00000000   0.144E+01       0.021     2746.717
     NS sqrt iter    2 1.00000000   0.772E+00       0.033     3391.461
     NS sqrt iter    3 1.00000000   0.293E+00       0.033     3405.555
     NS sqrt iter    4 1.00000000   0.659E-01       0.033     3404.797
     NS sqrt iter    5 1.00000000   0.136E-02       0.033     3417.164
     NS sqrt iter    6 1.00000000   0.283E-07       0.029     2947.954
     Symmetrizing Results
     Final NS sqrt iter    6 1.00000000   0.351E-14

     Est. extremal eigenvalues     -0.83644     2.61367  converged:  T
     TRS4 it   1 1.00000000   0.278E+02       0.007     2146.354   0.100E-11
     TRS4 it   2 1.00000000   0.236E+02       0.013     2210.350   0.100E-11
     TRS4 it   3 1.00000000   0.160E+02       0.013     2219.168   0.100E-11
     TRS4 it   4 1.00000000   0.979E+01       0.013     2247.163   0.100E-11
     TRS4 it   5 1.00000000   0.454E+01       0.013     2216.689   0.100E-11
     TRS4 it   6 1.00000000   0.141E+01       0.013     2241.313   0.100E-11
     TRS4 it   7 1.00000000   0.246E+00       0.013     2248.733   0.100E-11
     TRS4 it   8 1.00000000   0.121E-01       0.013     2231.043   0.100E-11
     TRS4 it   9 1.00000000   0.407E-04       0.013     2234.860   0.100E-11
     TRS4 it  10 1.00000000   0.645E-09       0.013     2218.780   0.100E-11
     TRS4 it  11 1.00000000   0.213E-13       0.013     2211.051   0.100E-11
     Final TRS4 iteration   11 1.00000000   0.213E-13
     Chemical potential (mu):       0.01871
 
 PAO| energy:  -189.33079572821794      penalty:   7.5221107271342386E-006
 PAO|LS| adapt:  T T F
 PAO|LS| adapt: scan_steps:    0.0000000000000000       0.20000000000000001        0.0000000000000000     
 PAO|LS| adapt: energies:   -186.70154887610198       -189.33079572821794        0.0000000000000000     
 PAO| ======================= Iteration:         4 =============================

     Lanczos converged:  F threshold:   0.100E-02
     Est. extremal eigenvalues:    0.544E+01   0.113E+00
     Est. condition number :    0.479E+02

 Order=           3
     NS sqrt iter    1 1.00000000   0.137E+01       0.021     2701.275
     NS sqrt iter    2 1.00000000   0.718E+00       0.033     3404.686
     NS sqrt iter    3 1.00000000   0.256E+00       0.034     3377.935
     NS sqrt iter    4 1.00000000   0.468E-01       0.033     3402.588
     NS sqrt iter    5 1.00000000   0.576E-03       0.033     3404.327
     NS sqrt iter    6 1.00000000   0.293E-08       0.029     2926.650
     Symmetrizing Results
     Final NS sqrt iter    6 1.00000000   0.114E-13

     Est. extremal eigenvalues     -0.84106     2.61943  converged:  T
     TRS4 it   1 1.00000000   0.282E+02       0.007     2158.416   0.100E-11
     TRS4 it   2 1.00000000   0.236E+02       0.013     2225.834   0.100E-11
     TRS4 it   3 1.00000000   0.158E+02       0.013     2221.283   0.100E-11
     TRS4 it   4 1.00000000   0.946E+01       0.013     2236.026   0.100E-11
     TRS4 it   5 1.00000000   0.418E+01       0.013     2210.570   0.100E-11
     TRS4 it   6 1.00000000   0.119E+01       0.013     2238.601   0.100E-11
     TRS4 it   7 1.00000000   0.176E+00       0.013     2226.616   0.100E-11
     TRS4 it   8 1.00000000   0.569E-02       0.013     2229.047   0.100E-11
     TRS4 it   9 1.00000000   0.699E-05       0.013     2225.243   0.100E-11
     TRS4 it  10 1.00000000   0.206E-10       0.013     2226.834   0.100E-11
     Final TRS4 iteration   10 1.00000000   0.206E-10
     Chemical potential (mu):       0.03852
 
 PAO| energy:  -190.80997887801254      penalty:   1.2035377163385556E-004
 PAO|LS| Need extra step
 PAO|LS| adapt:  T T F
 PAO|LS| adapt: scan_steps:    0.0000000000000000       0.40000000000000002        0.0000000000000000     
 PAO|LS| adapt: energies:   -186.70154887610198       -190.80997887801254        0.0000000000000000     
 PAO| ======================= Iteration:         5 =============================

     Lanczos converged:  T threshold:   0.100E-02
     Est. extremal eigenvalues:    0.480E+01   0.129E+00
     Est. condition number :    0.372E+02

 Order=           3
     NS sqrt iter    1 1.00000000   0.125E+01       0.021     2720.343
     NS sqrt iter    2 1.00000000   0.632E+00       0.033     3443.324
     NS sqrt iter    3 1.00000000   0.200E+00       0.033     3416.801
     NS sqrt iter    4 1.00000000   0.251E-01       0.033     3424.072
     NS sqrt iter    5 1.00000000   0.117E-03       0.034     3368.931
     NS sqrt iter    6 1.00000000   0.362E-10       0.021     2343.120
     Symmetrizing Results
     Final NS sqrt iter    6 1.00000000   0.214E-11

     Est. extremal eigenvalues     -0.84476     2.62075  converged:  T
     TRS4 it   1 1.00000000   0.288E+02       0.007     2180.660   0.100E-11
     TRS4 it   2 1.00000000   0.236E+02       0.013     2228.845   0.100E-11
     TRS4 it   3 1.00000000   0.155E+02       0.013     2217.943   0.100E-11
     TRS4 it   4 1.00000000   0.897E+01       0.013     2217.838   0.100E-11
     TRS4 it   5 1.00000000   0.366E+01       0.013     2221.113   0.100E-11
     TRS4 it   6 1.00000000   0.894E+00       0.013     2238.416   0.100E-11
     TRS4 it   7 1.00000000   0.970E-01       0.013     2217.670   0.100E-11
     TRS4 it   8 1.00000000   0.156E-02       0.013     2231.893   0.100E-11
     TRS4 it   9 1.00000000   0.479E-06       0.013     2224.683   0.100E-11
     TRS4 it  10 1.00000000   0.853E-13       0.013     2201.504   0.100E-11
     Final TRS4 iteration   10 1.00000000   0.853E-13
     Chemical potential (mu):       0.06124
 
 PAO| energy:  -190.41191887516774      penalty:   1.9256603461393514E-003
 PAO|LS| Need extra step
 PAO|LS| adapt:  T T T
 PAO|LS| adapt: scan_steps:    0.0000000000000000       0.40000000000000002       0.80000000000000004     
 PAO|LS| adapt: energies:   -186.70154887610198       -190.80997887801254       -190.41191887516774     
 PAO|LS| adapt: suggested step_size:   0.56466784549174576     
 PAO|LS| adapt: predicted energy  -191.19184052408966     
 PAO| ======================= Iteration:         6 =============================

     Lanczos converged:  T threshold:   0.100E-02
     Est. extremal eigenvalues:    0.515E+01   0.120E+00
     Est. condition number :    0.428E+02

 Order=           3
     NS sqrt iter    1 1.00000000   0.131E+01       0.021     2707.605
     NS sqrt iter    2 1.00000000   0.679E+00       0.033     3383.960
     NS sqrt iter    3 1.00000000   0.230E+00       0.033     3392.113
     NS sqrt iter    4 1.00000000   0.357E-01       0.033     3394.331
     NS sqrt iter    5 1.00000000   0.292E-03       0.033     3399.670
     NS sqrt iter    6 1.00000000   0.461E-09       0.028     2781.162
     Symmetrizing Results
     Final NS sqrt iter    6 1.00000000   0.104E-12

     Est. extremal eigenvalues     -0.84359     2.62216  converged:  T
     TRS4 it   1 1.00000000   0.285E+02       0.007     2145.664   0.100E-11
     TRS4 it   2 1.00000000   0.237E+02       0.013     2200.302   0.100E-11
     TRS4 it   3 1.00000000   0.157E+02       0.013     2221.170   0.100E-11
     TRS4 it   4 1.00000000   0.923E+01       0.013     2204.556   0.100E-11
     TRS4 it   5 1.00000000   0.393E+01       0.013     2243.870   0.100E-11
     TRS4 it   6 1.00000000   0.105E+01       0.013     2232.156   0.100E-11
     TRS4 it   7 1.00000000   0.135E+00       0.013     2236.626   0.100E-11
     TRS4 it   8 1.00000000   0.314E-02       0.013     2208.140   0.100E-11
     TRS4 it   9 1.00000000   0.193E-05       0.013     2222.667   0.100E-11
     TRS4 it  10 1.00000000   0.140E-11       0.013     2236.230   0.100E-11
     Final TRS4 iteration   10 1.00000000   0.140E-11
     Chemical potential (mu):       0.04908
 
 PAO| energy:  -191.16478531388623      penalty:   4.7796046073389042E-004
 PAO|CG| warming up with steepest descent
 PAO|CG| beta:    0.0000000000000000     
 PAO| norm of gradient:   2.1091659790070532     
 PAO| energy improvement:  -4.4632364377842464     
 PAO| step      6                 -191.164785314  0.412E-02  0.565E+00     2.424
 PAO|LS| adapt:  T F F
 PAO|LS| adapt: scan_steps:    0.0000000000000000        0.0000000000000000        0.0000000000000000     
 PAO|LS| adapt: energies:   -191.16478531388623        0.0000000000000000        0.0000000000000000     
 PAO| ======================= Iteration:         7 =============================

     Lanczos converged:  T threshold:   0.100E-02
     Est. extremal eigenvalues:    0.498E+01   0.128E+00
     Est. condition number :    0.389E+02

 Order=           3
     NS sqrt iter    1 1.00000000   0.128E+01       0.021     2695.229
     NS sqrt iter    2 1.00000000   0.653E+00       0.033     3404.693
     NS sqrt iter    3 1.00000000   0.213E+00       0.033     3406.093
     NS sqrt iter    4 1.00000000   0.289E-01       0.033     3391.837
     NS sqrt iter    5 1.00000000   0.164E-03       0.033     3406.628
     NS sqrt iter    6 1.00000000   0.884E-10       0.025     2529.633
     Symmetrizing Results
     Final NS sqrt iter    6 1.00000000   0.174E-11

     Est. extremal eigenvalues     -0.84460     2.61166  converged:  T
     TRS4 it   1 1.00000000   0.286E+02       0.007     2130.750   0.100E-11
     TRS4 it   2 1.00000000   0.237E+02       0.013     2222.410   0.100E-11
     TRS4 it   3 1.00000000   0.158E+02       0.013     2256.097   0.100E-11
     TRS4 it   4 1.00000000   0.936E+01       0.013     2217.225   0.100E-11
     TRS4 it   5 1.00000000   0.403E+01       0.013     2244.595   0.100E-11
     TRS4 it   6 1.00000000   0.107E+01       0.013     2242.019   0.100E-11
     TRS4 it   7 1.00000000   0.136E+00       0.013     2203.633   0.100E-11
     TRS4 it   8 1.00000000   0.310E-02       0.013     2226.388   0.100E-11
     TRS4 it   9 1.00000000   0.189E-05       0.013     2247.282   0.100E-11
     TRS4 it  10 1.00000000   0.138E-11       0.013     2229.755   0.100E-11
     Final TRS4 iteration   10 1.00000000   0.138E-11
     Chemical potential (mu):       0.05180
 
 PAO| energy:  -190.25084891517272      penalty:   6.7806023486732825E-004
 PAO|LS| adapt:  T F T
 PAO|LS| adapt: scan_steps:    0.0000000000000000        0.0000000000000000       0.56466784549174576     
 PAO|LS| adapt: energies:   -191.16478531388623        0.0000000000000000       -190.25084891517272     
 PAO| ======================= Iteration:         8 =============================

     Lanczos converged:  T threshold:   0.100E-02
     Est. extremal eigenvalues:    0.507E+01   0.124E+00
     Est. condition number :    0.408E+02

 Order=           3
     NS sqrt iter    1 1.00000000   0.130E+01       0.021     2712.919
     NS sqrt iter    2 1.00000000   0.666E+00       0.034     3379.770
     NS sqrt iter    3 1.00000000   0.221E+00       0.033     3397.651
     NS sqrt iter    4 1.00000000   0.322E-01       0.033     3407.433
     NS sqrt iter    5 1.00000000   0.220E-03       0.033     3409.731
     NS sqrt iter    6 1.00000000   0.204E-09       0.028     2629.036
     Symmetrizing Results
     Final NS sqrt iter    6 1.00000000   0.757E-12

     Est. extremal eigenvalues     -0.84472     2.61736  converged:  T
     TRS4 it   1 1.00000000   0.285E+02       0.007     2161.938   0.100E-11
     TRS4 it   2 1.00000000   0.237E+02       0.013     2224.674   0.100E-11
     TRS4 it   3 1.00000000   0.157E+02       0.013     2216.259   0.100E-11
     TRS4 it   4 1.00000000   0.926E+01       0.013     2235.236   0.100E-11
     TRS4 it   5 1.00000000   0.395E+01       0.013     2227.059   0.100E-11
     TRS4 it   6 1.00000000   0.105E+01       0.013     2225.478   0.100E-11
     TRS4 it   7 1.00000000   0.134E+00       0.013     2252.103   0.100E-11
     TRS4 it   8 1.00000000   0.308E-02       0.013     2216.857   0.100E-11
     TRS4 it   9 1.00000000   0.187E-05       0.013     2251.800   0.100E-11
     TRS4 it  10 1.00000000   0.132E-11       0.013     2248.205   0.100E-11
     Final TRS4 iteration   10 1.00000000   0.132E-11
     Chemical potential (mu):       0.04941
 
 PAO| energy:  -191.55020962998714      penalty:   5.0816471719101770E-004
 PAO|LS| adapt:  T T T
 PAO|LS| adapt: scan_steps:    0.0000000000000000       0.28233392274587288       0.56466784549174576     
 PAO|LS| adapt: energies:   -191.16478531388623       -191.55020962998714       -190.25084891517272     
 PAO|LS| adapt: suggested step_size:   0.20575583003548356     
 PAO|LS| adapt: predicted energy  -191.61218190876204     
 PAO| ======================= Iteration:         9 =============================

     Lanczos converged:  T threshold:   0.100E-02
     Est. extremal eigenvalues:    0.509E+01   0.123E+00
     Est. condition number :    0.413E+02

 Order=           3
     NS sqrt iter    1 1.00000000   0.130E+01       0.021     2724.870
     NS sqrt iter    2 1.00000000   0.669E+00       0.033     3414.602
     NS sqrt iter    3 1.00000000   0.224E+00       0.033     3385.061
     NS sqrt iter    4 1.00000000   0.331E-01       0.033     3406.714
     NS sqrt iter    5 1.00000000   0.238E-03       0.033     3408.833
     NS sqrt iter    6 1.00000000   0.255E-09       0.028     2691.150
     Symmetrizing Results
     Final NS sqrt iter    6 1.00000000   0.581E-12

     Est. extremal eigenvalues     -0.84454     2.61876  converged:  T
     TRS4 it   1 1.00000000   0.285E+02       0.007     2131.085   0.100E-11
     TRS4 it   2 1.00000000   0.237E+02       0.013     2230.758   0.100E-11
     TRS4 it   3 1.00000000   0.157E+02       0.013     2228.131   0.100E-11
     TRS4 it   4 1.00000000   0.924E+01       0.013     2223.091   0.100E-11
     TRS4 it   5 1.00000000   0.394E+01       0.013     2199.942   0.100E-11
     TRS4 it   6 1.00000000   0.105E+01       0.013     2221.590   0.100E-11
     TRS4 it   7 1.00000000   0.134E+00       0.013     2197.580   0.100E-11
     TRS4 it   8 1.00000000   0.309E-02       0.013     2230.882   0.100E-11
     TRS4 it   9 1.00000000   0.188E-05       0.013     2239.841   0.100E-11
     TRS4 it  10 1.00000000   0.134E-11       0.013     2226.796   0.100E-11
     Final TRS4 iteration   10 1.00000000   0.134E-11
     Chemical potential (mu):       0.04913
 
 PAO| energy:  -191.61659703574915      penalty:   4.9065901641365814E-004
 PAO|CG| trace_G_new   0.75379573325978966     
 PAO|CG| trace_G_prev    4.4485811270007805     
 PAO|CG| trace_G_mix   -4.4410944704061456E-002
 PAO|CG| trace_D    4.4485811270007805     
 PAO|CG| trace_D_Gnew   4.4410944704061456E-002
 PAO|CG| beta:   0.17942949789520857     
 PAO| norm of gradient:  0.86821410565585122     
 PAO| energy improvement: -0.45181172186292429     
 PAO| step      9                 -191.616597036  0.170E-02  0.206E+00     1.494
 PAO|LS| adapt:  T F F
 PAO|LS| adapt: scan_steps:    0.0000000000000000        0.0000000000000000        0.0000000000000000     
 PAO|LS| adapt: energies:   -191.61659703574915        0.0000000000000000        0.0000000000000000     
 PAO| ======================= Iteration:        10 =============================

     Lanczos converged:  T threshold:   0.100E-02
     Est. extremal eigenvalues:    0.503E+01   0.127E+00
     Est. condition number :    0.397E+02

 Order=           3
     NS sqrt iter    1 1.00000000   0.129E+01       0.021     2745.259
     NS sqrt iter    2 1.00000000   0.660E+00       0.033     3410.710
     NS sqrt iter    3 1.00000000   0.218E+00       0.033     3403.877
     NS sqrt iter    4 1.00000000   0.308E-01       0.034     3368.345
     NS sqrt iter    5 1.00000000   0.191E-03       0.033     3409.670
     NS sqrt iter    6 1.00000000   0.130E-09       0.026     2560.336
     Symmetrizing Results
     Final NS sqrt iter    6 1.00000000   0.135E-11

     Est. extremal eigenvalues     -0.84504     2.60263  converged:  T
     TRS4 it   1 1.00000000   0.285E+02       0.007     2122.006   0.100E-11
     TRS4 it   2 1.00000000   0.236E+02       0.013     2239.658   0.100E-11
     TRS4 it   3 1.00000000   0.157E+02       0.013     2247.309   0.100E-11
     TRS4 it   4 1.00000000   0.922E+01       0.013     2249.426   0.100E-11
     TRS4 it   5 1.00000000   0.391E+01       0.013     2233.261   0.100E-11
     TRS4 it   6 1.00000000   0.103E+01       0.013     2227.111   0.100E-11
     TRS4 it   7 1.00000000   0.130E+00       0.013     2255.060   0.100E-11
     TRS4 it   8 1.00000000   0.289E-02       0.013     2219.187   0.100E-11
     TRS4 it   9 1.00000000   0.164E-05       0.013     2235.373   0.100E-11
     TRS4 it  10 1.00000000   0.106E-11       0.013     2232.804   0.100E-11
     Final TRS4 iteration   10 1.00000000   0.106E-11
     Chemical potential (mu):       0.05012
 
 PAO| energy:  -191.72064489051405      penalty:   4.9374499595208584E-004
 PAO|LS| adapt:  T T F
 PAO|LS| adapt: scan_steps:    0.0000000000000000       0.20575583003548356        0.0000000000000000     
 PAO|LS| adapt: energies:   -191.61659703574915       -191.72064489051405        0.0000000000000000     
 PAO| ======================= Iteration:        11 =============================

     Lanczos converged:  T threshold:   0.100E-02
     Est. extremal eigenvalues:    0.498E+01   0.131E+00
     Est. condition number :    0.382E+02

 Order=           3
     NS sqrt iter    1 1.00000000   0.128E+01       0.021     2713.634
     NS sqrt iter    2 1.00000000   0.652E+00       0.033     3401.877
     NS sqrt iter    3 1.00000000   0.212E+00       0.033     3388.614
     NS sqrt iter    4 1.00000000   0.285E-01       0.033     3388.975
     NS sqrt iter    5 1.00000000   0.153E-03       0.034     3379.137
     NS sqrt iter    6 1.00000000   0.652E-10       0.023     2437.116
     Symmetrizing Results
     Final NS sqrt iter    6 1.00000000   0.203E-11

     Est. extremal eigenvalues     -0.84535     2.58601  converged:  T
     TRS4 it   1 1.00000000   0.285E+02       0.007     2118.253   0.100E-11
     TRS4 it   2 1.00000000   0.235E+02       0.013     2224.170   0.100E-11
     TRS4 it   3 1.00000000   0.156E+02       0.013     2236.459   0.100E-11
     TRS4 it   4 1.00000000   0.919E+01       0.013     2239.064   0.100E-11
     TRS4 it   5 1.00000000   0.388E+01       0.013     2223.386   0.100E-11
     TRS4 it   6 1.00000000   0.102E+01       0.013     2237.605   0.100E-11
     TRS4 it   7 1.00000000   0.126E+00       0.013     2208.849   0.100E-11
     TRS4 it   8 1.00000000   0.269E-02       0.013     2221.756   0.100E-11
     TRS4 it   9 1.00000000   0.143E-05       0.013     2217.055   0.100E-11
     TRS4 it  10 1.00000000   0.819E-12       0.013     2217.354   0.100E-11
     Final TRS4 iteration   10 1.00000000   0.819E-12
     Chemical potential (mu):       0.05118
 
 PAO| energy:  -191.72861752979645      penalty:   5.0726400904488724E-004
 PAO|LS| adapt:  T T F
 PAO|LS| adapt: scan_steps:    0.0000000000000000       0.41151166007096712        0.0000000000000000     
 PAO|LS| adapt: energies:   -191.61659703574915       -191.72861752979645        0.0000000000000000     
 PAO| ======================= Iteration:        12 =============================

     Lanczos converged:  T threshold:   0.100E-02
     Est. extremal eigenvalues:    0.488E+01   0.138E+00
     Est. condition number :    0.353E+02

 Order=           3
     NS sqrt iter    1 1.00000000   0.126E+01       0.021     2713.508
     NS sqrt iter    2 1.00000000   0.635E+00       0.034     3365.211
     NS sqrt iter    3 1.00000000   0.201E+00       0.033     3392.674
     NS sqrt iter    4 1.00000000   0.246E-01       0.033     3382.422
     NS sqrt iter    5 1.00000000   0.969E-04       0.034     3375.610
     NS sqrt iter    6 1.00000000   0.158E-10       0.016     2190.233
     Symmetrizing Results
     Final NS sqrt iter    6 1.00000000   0.193E-11

     Est. extremal eigenvalues     -0.84543     2.55198  converged:  T
     TRS4 it   1 1.00000000   0.284E+02       0.007     2144.309   0.100E-11
     TRS4 it   2 1.00000000   0.233E+02       0.013     2244.804   0.100E-11
     TRS4 it   3 1.00000000   0.156E+02       0.013     2228.943   0.100E-11
     TRS4 it   4 1.00000000   0.913E+01       0.013     2229.040   0.100E-11
     TRS4 it   5 1.00000000   0.382E+01       0.013     2222.412   0.100E-11
     TRS4 it   6 1.00000000   0.980E+00       0.013     2223.084   0.100E-11
     TRS4 it   7 1.00000000   0.116E+00       0.013     2248.163   0.100E-11
     TRS4 it   8 1.00000000   0.229E-02       0.013     2237.394   0.100E-11
     TRS4 it   9 1.00000000   0.105E-05       0.013     2224.415   0.100E-11
     TRS4 it  10 1.00000000   0.457E-12       0.013     2239.448   0.100E-11
     Final TRS4 iteration   10 1.00000000   0.457E-12
     Chemical potential (mu):       0.05346
 
 PAO| energy:  -191.47360201776425      penalty:   5.7327878113660547E-004
 PAO|LS| Need extra step
 PAO|LS| adapt:  T T T
 PAO|LS| adapt: scan_steps:    0.0000000000000000       0.41151166007096712       0.82302332014193424     
 PAO|LS| adapt: energies:   -191.61659703574915       -191.72861752979645       -191.47360201776425     
 PAO|LS| adapt: suggested step_size:   0.33135042757856326     
 PAO|LS| adapt: predicted energy  -191.73558127954777     
 PAO| ======================= Iteration:        13 =============================

     Lanczos converged:  T threshold:   0.100E-02
     Est. extremal eigenvalues:    0.500E+01   0.129E+00
     Est. condition number :    0.388E+02

 Order=           3
     NS sqrt iter    1 1.00000000   0.128E+01       0.021     2716.062
     NS sqrt iter    2 1.00000000   0.655E+00       0.033     3390.080
     NS sqrt iter    3 1.00000000   0.214E+00       0.034     3354.321
     NS sqrt iter    4 1.00000000   0.294E-01       0.034     3366.438
     NS sqrt iter    5 1.00000000   0.167E-03       0.033     3398.683
     NS sqrt iter    6 1.00000000   0.853E-10       0.024     2493.644
     Symmetrizing Results
     Final NS sqrt iter    6 1.00000000   0.181E-11

     Est. extremal eigenvalues     -0.84525     2.59254  converged:  T
     TRS4 it   1 1.00000000   0.285E+02       0.007     2131.842   0.100E-11
     TRS4 it   2 1.00000000   0.235E+02       0.013     2232.135   0.100E-11
     TRS4 it   3 1.00000000   0.157E+02       0.013     2231.951   0.100E-11
     TRS4 it   4 1.00000000   0.920E+01       0.013     2227.088   0.100E-11
     TRS4 it   5 1.00000000   0.390E+01       0.013     2249.586   0.100E-11
     TRS4 it   6 1.00000000   0.102E+01       0.013     2244.556   0.100E-11
     TRS4 it   7 1.00000000   0.127E+00       0.013     2215.035   0.100E-11
     TRS4 it   8 1.00000000   0.277E-02       0.013     2233.704   0.100E-11
     TRS4 it   9 1.00000000   0.151E-05       0.013     2239.394   0.100E-11
     TRS4 it  10 1.00000000   0.904E-12       0.013     2220.733   0.100E-11
     Final TRS4 iteration   10 1.00000000   0.904E-12
     Chemical potential (mu):       0.05076
 
 PAO| energy:  -191.73666610236612      penalty:   5.0066779673258203E-004
 PAO|CG| trace_G_new   0.29044786034229736     
 PAO|CG| trace_G_prev   0.75379573325978966     
 PAO|CG| trace_G_mix   -1.2560483428213143E-002
 PAO|CG| trace_D   0.88108028968484264     
 PAO|CG| trace_D_Gnew   1.2418751862586945E-002
 PAO|CG| beta:   0.40197672977021365     
 PAO| norm of gradient:  0.53893214818035984     
 PAO| energy improvement: -0.12006906661696348     
 PAO| step     13                 -191.736666102  0.105E-02  0.331E+00     1.927
 PAO|LS| adapt:  T F F
 PAO|LS| adapt: scan_steps:    0.0000000000000000        0.0000000000000000        0.0000000000000000     
 PAO|LS| adapt: energies:   -191.73666610236612        0.0000000000000000        0.0000000000000000     
 PAO| ======================= Iteration:        14 =============================

     Lanczos converged:  T threshold:   0.100E-02
     Est. extremal eigenvalues:    0.493E+01   0.132E+00
     Est. condition number :    0.375E+02

 Order=           3
     NS sqrt iter    1 1.00000000   0.127E+01       0.021     2725.572
     NS sqrt iter    2 1.00000000   0.644E+00       0.033     3392.786
     NS sqrt iter    3 1.00000000   0.208E+00       0.033     3392.625
     NS sqrt iter    4 1.00000000   0.271E-01       0.034     3363.599
     NS sqrt iter    5 1.00000000   0.134E-03       0.033     3392.766
     NS sqrt iter    6 1.00000000   0.457E-10       0.022     2353.702
     Symmetrizing Results
     Final NS sqrt iter    6 1.00000000   0.216E-11

     Est. extremal eigenvalues     -0.84567     2.58923  converged:  T
     TRS4 it   1 1.00000000   0.285E+02       0.007     2144.882   0.100E-11
     TRS4 it   2 1.00000000   0.235E+02       0.013     2224.876   0.100E-11
     TRS4 it   3 1.00000000   0.156E+02       0.013     2211.967   0.100E-11
     TRS4 it   4 1.00000000   0.915E+01       0.013     2227.941   0.100E-11
     TRS4 it   5 1.00000000   0.384E+01       0.013     2206.236   0.100E-11
     TRS4 it   6 1.00000000   0.990E+00       0.013     2233.086   0.100E-11
     TRS4 it   7 1.00000000   0.119E+00       0.013     2231.400   0.100E-11
     TRS4 it   8 1.00000000   0.242E-02       0.013     2236.882   0.100E-11
     TRS4 it   9 1.00000000   0.116E-05       0.013     2242.648   0.100E-11
     TRS4 it  10 1.00000000   0.542E-12       0.013     2219.746   0.100E-11
     Final TRS4 iteration   10 1.00000000   0.542E-12
     Chemical potential (mu):       0.05281
 
 PAO| energy:  -191.79123967267734      penalty:   5.0427026253630045E-004
 PAO|LS| adapt:  T T F
 PAO|LS| adapt: scan_steps:    0.0000000000000000       0.33135042757856326        0.0000000000000000     
 PAO|LS| adapt: energies:   -191.73666610236612       -191.79123967267734        0.0000000000000000     
 PAO| ======================= Iteration:        15 =============================

     Lanczos converged:  T threshold:   0.100E-02
     Est. extremal eigenvalues:    0.486E+01   0.134E+00
     Est. condition number :    0.363E+02

 Order=           3
     NS sqrt iter    1 1.00000000   0.125E+01       0.021     2716.074
     NS sqrt iter    2 1.00000000   0.633E+00       0.033     3389.154
     NS sqrt iter    3 1.00000000   0.202E+00       0.033     3398.622
     NS sqrt iter    4 1.00000000   0.251E-01       0.033     3422.265
     NS sqrt iter    5 1.00000000   0.108E-03       0.033     3392.727
     NS sqrt iter    6 1.00000000   0.247E-10       0.018     2244.033
     Symmetrizing Results
     Final NS sqrt iter    6 1.00000000   0.212E-11

     Est. extremal eigenvalues     -0.84581     2.58510  converged:  T
     TRS4 it   1 1.00000000   0.286E+02       0.007     2115.639   0.100E-11
     TRS4 it   2 1.00000000   0.235E+02       0.013     2204.688   0.100E-11
     TRS4 it   3 1.00000000   0.156E+02       0.013     2236.738   0.100E-11
     TRS4 it   4 1.00000000   0.909E+01       0.013     2241.043   0.100E-11
     TRS4 it   5 1.00000000   0.378E+01       0.013     2222.702   0.100E-11
     TRS4 it   6 1.00000000   0.959E+00       0.013     2228.072   0.100E-11
     TRS4 it   7 1.00000000   0.112E+00       0.013     2231.701   0.100E-11
     TRS4 it   8 1.00000000   0.212E-02       0.013     2215.495   0.100E-11
     TRS4 it   9 1.00000000   0.898E-06       0.013     2247.264   0.100E-11
     TRS4 it  10 1.00000000   0.295E-12       0.013     2213.073   0.100E-11
     Final TRS4 iteration   10 1.00000000   0.295E-12
     Chemical potential (mu):       0.05475
 
 PAO| energy:  -191.76705492018294      penalty:   5.2412509158199087E-004
 PAO|LS| adapt:  T T T
 PAO|LS| adapt: scan_steps:    0.0000000000000000       0.33135042757856326       0.66270085515712651     
 PAO|LS| adapt: energies:   -191.73666610236612       -191.79123967267734       -191.76705492018294     
 PAO|LS| adapt: suggested step_size:   0.39527603834903202     
 PAO|LS| adapt: predicted energy  -191.79270535943812     
 PAO| ======================= Iteration:        16 =============================

     Lanczos converged:  T threshold:   0.100E-02
     Est. extremal eigenvalues:    0.491E+01   0.132E+00
     Est. condition number :    0.372E+02

 Order=           3
     NS sqrt iter    1 1.00000000   0.127E+01       0.021     2747.811
     NS sqrt iter    2 1.00000000   0.642E+00       0.033     3408.070
     NS sqrt iter    3 1.00000000   0.207E+00       0.034     3363.344
     NS sqrt iter    4 1.00000000   0.267E-01       0.034     3370.927
     NS sqrt iter    5 1.00000000   0.128E-03       0.034     3363.261
     NS sqrt iter    6 1.00000000   0.405E-10       0.021     2341.609
     Symmetrizing Results
     Final NS sqrt iter    6 1.00000000   0.218E-11

     Est. extremal eigenvalues     -0.84572     2.58849  converged:  T
     TRS4 it   1 1.00000000   0.285E+02       0.007     2162.844   0.100E-11
     TRS4 it   2 1.00000000   0.235E+02       0.013     2213.527   0.100E-11
     TRS4 it   3 1.00000000   0.156E+02       0.013     2238.062   0.100E-11
     TRS4 it   4 1.00000000   0.913E+01       0.013     2221.369   0.100E-11
     TRS4 it   5 1.00000000   0.383E+01       0.013     2224.493   0.100E-11
     TRS4 it   6 1.00000000   0.984E+00       0.013     2233.261   0.100E-11
     TRS4 it   7 1.00000000   0.118E+00       0.013     2212.600   0.100E-11
     TRS4 it   8 1.00000000   0.236E-02       0.013     2243.806   0.100E-11
     TRS4 it   9 1.00000000   0.110E-05       0.013     2226.256   0.100E-11
     TRS4 it  10 1.00000000   0.480E-12       0.013     2208.395   0.100E-11
     Final TRS4 iteration   10 1.00000000   0.480E-12
     Chemical potential (mu):       0.05319
 
 PAO| energy:  -191.79264555007745      penalty:   5.0678100791169743E-004
 PAO|CG| trace_G_new   0.11024743447184258     
 PAO|CG| trace_G_prev   0.29044786034229736     
 PAO|CG| trace_G_mix    4.5550100143366325E-003
 PAO|CG| trace_D   0.42283337706612978     
 PAO|CG| trace_D_Gnew   8.6577029218135244E-004
 PAO|CG| beta:   0.36389465679983241     
 PAO| norm of gradient:  0.33203529100359586     
 PAO| energy improvement:  -5.5979447711337116E-002
 PAO| step     16                 -191.792645550  0.649E-03  0.395E+00     1.476
 PAO|LS| adapt:  T F F
 PAO|LS| adapt: scan_steps:    0.0000000000000000        0.0000000000000000        0.0000000000000000     
 PAO|LS| adapt: energies:   -191.79264555007745        0.0000000000000000        0.0000000000000000     
 PAO| ======================= Iteration:        17 =============================

     Lanczos converged:  T threshold:   0.100E-02
     Est. extremal eigenvalues:    0.487E+01   0.133E+00
     Est. condition number :    0.367E+02

 Order=           3
     NS sqrt iter    1 1.00000000   0.126E+01       0.021     2711.935
     NS sqrt iter    2 1.00000000   0.637E+00       0.033     3417.001
     NS sqrt iter    3 1.00000000   0.204E+00       0.033     3387.153
     NS sqrt iter    4 1.00000000   0.259E-01       0.033     3415.050
     NS sqrt iter    5 1.00000000   0.117E-03       0.033     3416.254
     NS sqrt iter    6 1.00000000   0.308E-10       0.020     2280.002
     Symmetrizing Results
     Final NS sqrt iter    6 1.00000000   0.216E-11

     Est. extremal eigenvalues     -0.84580     2.58660  converged:  T
     TRS4 it   1 1.00000000   0.286E+02       0.007     2176.713   0.100E-11
     TRS4 it   2 1.00000000   0.235E+02       0.013     2244.305   0.100E-11
     TRS4 it   3 1.00000000   0.156E+02       0.013     2212.022   0.100E-11
     TRS4 it   4 1.00000000   0.909E+01       0.013     2240.880   0.100E-11
     TRS4 it   5 1.00000000   0.378E+01       0.013     2208.743   0.100E-11
     TRS4 it   6 1.00000000   0.963E+00       0.013     2220.583   0.100E-11
     TRS4 it   7 1.00000000   0.113E+00       0.013     2218.122   0.100E-11
     TRS4 it   8 1.00000000   0.216E-02       0.013     2221.930   0.100E-11
     TRS4 it   9 1.00000000   0.930E-06       0.013     2229.005   0.100E-11
     TRS4 it  10 1.00000000   0.371E-12       0.013     2231.534   0.100E-11
     Final TRS4 iteration   10 1.00000000   0.371E-12
     Chemical potential (mu):       0.05443
 
 PAO| energy:  -191.79702843503330      penalty:   5.0075113820091817E-004
 PAO|LS| adapt:  T T F
 PAO|LS| adapt: scan_steps:    0.0000000000000000       0.39527603834903202        0.0000000000000000     
 PAO|LS| adapt: energies:   -191.79264555007745       -191.79702843503330        0.0000000000000000     
 PAO| ======================= Iteration:        18 =============================

     Lanczos converged:  F threshold:   0.100E-02
     Est. extremal eigenvalues:    0.483E+01   0.134E+00
     Est. condition number :    0.362E+02

 Order=           3
     NS sqrt iter    1 1.00000000   0.125E+01       0.021     2704.472
     NS sqrt iter    2 1.00000000   0.632E+00       0.034     3380.144
     NS sqrt iter    3 1.00000000   0.201E+00       0.033     3412.521
     NS sqrt iter    4 1.00000000   0.250E-01       0.033     3407.526
     NS sqrt iter    5 1.00000000   0.107E-03       0.033     3388.310
     NS sqrt iter    6 1.00000000   0.236E-10       0.018     2251.868
     Symmetrizing Results
     Final NS sqrt iter    6 1.00000000   0.211E-11

     Est. extremal eigenvalues     -0.84577     2.58447  converged:  T
     TRS4 it   1 1.00000000   0.286E+02       0.007     2154.184   0.100E-11
     TRS4 it   2 1.00000000   0.234E+02       0.013     2234.066   0.100E-11
     TRS4 it   3 1.00000000   0.156E+02       0.013     2221.255   0.100E-11
     TRS4 it   4 1.00000000   0.904E+01       0.013     2243.201   0.100E-11
     TRS4 it   5 1.00000000   0.374E+01       0.013     2223.810   0.100E-11
     TRS4 it   6 1.00000000   0.942E+00       0.013     2252.169   0.100E-11
     TRS4 it   7 1.00000000   0.109E+00       0.013     2236.796   0.100E-11
     TRS4 it   8 1.00000000   0.198E-02       0.013     2207.533   0.100E-11
     TRS4 it   9 1.00000000   0.786E-06       0.013     2201.385   0.100E-11
     TRS4 it  10 1.00000000   0.290E-12       0.013     2239.760   0.100E-11
     Final TRS4 iteration   10 1.00000000   0.290E-12
     Chemical potential (mu):       0.05572
 
 PAO| energy:  -191.72309535933897      penalty:   5.0291834174471888E-004
 PAO|LS| adapt:  T T T
 PAO|LS| adapt: scan_steps:    0.0000000000000000       0.39527603834903202       0.79055207669806404     
 PAO|LS| adapt: energies:   -191.79264555007745       -191.79702843503330       -191.72309535933897     
 PAO|LS| adapt: suggested step_size:   0.21975930055194398     
 PAO|LS| adapt: predicted energy  -191.80474912981825     
 PAO| ======================= Iteration:        19 =============================

     Lanczos converged:  T threshold:   0.100E-02
     Est. extremal eigenvalues:    0.489E+01   0.132E+00
     Est. condition number :    0.369E+02

 Order=           3
     NS sqrt iter    1 1.00000000   0.126E+01       0.021     2731.754
     NS sqrt iter    2 1.00000000   0.639E+00       0.033     3420.425
     NS sqrt iter    3 1.00000000   0.205E+00       0.033     3427.669
     NS sqrt iter    4 1.00000000   0.262E-01       0.033     3409.742
     NS sqrt iter    5 1.00000000   0.122E-03       0.033     3408.055
     NS sqrt iter    6 1.00000000   0.348E-10       0.020     2329.681
     Symmetrizing Results
     Final NS sqrt iter    6 1.00000000   0.219E-11

     Est. extremal eigenvalues     -0.84578     2.58747  converged:  T
     TRS4 it   1 1.00000000   0.286E+02       0.007     2124.014   0.100E-11
     TRS4 it   2 1.00000000   0.235E+02       0.013     2215.155   0.100E-11
     TRS4 it   3 1.00000000   0.156E+02       0.013     2250.452   0.100E-11
     TRS4 it   4 1.00000000   0.911E+01       0.013     2240.122   0.100E-11
     TRS4 it   5 1.00000000   0.380E+01       0.013     2220.596   0.100E-11
     TRS4 it   6 1.00000000   0.972E+00       0.013     2254.139   0.100E-11
     TRS4 it   7 1.00000000   0.115E+00       0.013     2229.197   0.100E-11
     TRS4 it   8 1.00000000   0.225E-02       0.013     2228.197   0.100E-11
     TRS4 it   9 1.00000000   0.100E-05       0.013     2251.113   0.100E-11
     TRS4 it  10 1.00000000   0.442E-12       0.013     2232.557   0.100E-11
     Final TRS4 iteration   10 1.00000000   0.442E-12
     Chemical potential (mu):       0.05387
 
 PAO| energy:  -191.80473536109147      penalty:   5.0243649340926005E-004
 PAO|CG| trace_G_new    2.2159795663201330E-002
 PAO|CG| trace_G_prev   0.11024743447184258     
 PAO|CG| trace_G_mix   -3.7409074882378709E-004
 PAO|CG| trace_D   0.16560864489703245     
 PAO|CG| trace_D_Gnew  -4.8028019092936062E-005
 PAO|CG| beta:   0.20439374866161006     
 PAO| norm of gradient:  0.14886166619785407     
 PAO| energy improvement:  -1.2089811014021734E-002
 PAO| step     19                 -191.804735361  0.291E-03  0.220E+00     1.471
 PAO|LS| adapt:  T F F
 PAO|LS| adapt: scan_steps:    0.0000000000000000        0.0000000000000000        0.0000000000000000     
 PAO|LS| adapt: energies:   -191.80473536109147        0.0000000000000000        0.0000000000000000     
 PAO| ======================= Iteration:        20 =============================

     Lanczos converged:  T threshold:   0.100E-02
     Est. extremal eigenvalues:    0.489E+01   0.133E+00
     Est. condition number :    0.369E+02

 Order=           3
     NS sqrt iter    1 1.00000000   0.126E+01       0.021     2727.505
     NS sqrt iter    2 1.00000000   0.639E+00       0.034     3380.462
     NS sqrt iter    3 1.00000000   0.205E+00       0.033     3395.536
     NS sqrt iter    4 1.00000000   0.262E-01       0.034     3373.606
     NS sqrt iter    5 1.00000000   0.121E-03       0.033     3416.410
     NS sqrt iter    6 1.00000000   0.341E-10       0.020     2295.052
     Symmetrizing Results
     Final NS sqrt iter    6 1.00000000   0.220E-11

     Est. extremal eigenvalues     -0.84579     2.58626  converged:  T
     TRS4 it   1 1.00000000   0.286E+02       0.007     2168.124   0.100E-11
     TRS4 it   2 1.00000000   0.235E+02       0.013     2223.051   0.100E-11
     TRS4 it   3 1.00000000   0.156E+02       0.013     2251.435   0.100E-11
     TRS4 it   4 1.00000000   0.910E+01       0.013     2213.650   0.100E-11
     TRS4 it   5 1.00000000   0.379E+01       0.013     2240.187   0.100E-11
     TRS4 it   6 1.00000000   0.968E+00       0.013     2244.321   0.100E-11
     TRS4 it   7 1.00000000   0.114E+00       0.013     2215.569   0.100E-11
     TRS4 it   8 1.00000000   0.221E-02       0.013     2211.994   0.100E-11
     TRS4 it   9 1.00000000   0.970E-06       0.013     2234.353   0.100E-11
     TRS4 it  10 1.00000000   0.419E-12       0.013     2228.300   0.100E-11
     Final TRS4 iteration   10 1.00000000   0.419E-12
     Chemical potential (mu):       0.05409
 
 PAO| energy:  -191.80867015439162      penalty:   4.9300123493049147E-004
 PAO|LS| adapt:  T T F
 PAO|LS| adapt: scan_steps:    0.0000000000000000       0.21975930055194398        0.0000000000000000     
 PAO|LS| adapt: energies:   -191.80473536109147       -191.80867015439162        0.0000000000000000     
 PAO| ======================= Iteration:        21 =============================

     Lanczos converged:  F threshold:   0.100E-02
     Est. extremal eigenvalues:    0.488E+01   0.133E+00
     Est. condition number :    0.368E+02

 Order=           3
     NS sqrt iter    1 1.00000000   0.126E+01       0.021     2692.666
     NS sqrt iter    2 1.00000000   0.638E+00       0.033     3418.538
     NS sqrt iter    3 1.00000000   0.205E+00       0.033     3388.161
     NS sqrt iter    4 1.00000000   0.262E-01       0.033     3396.035
     NS sqrt iter    5 1.00000000   0.121E-03       0.033     3414.105
     NS sqrt iter    6 1.00000000   0.334E-10       0.020     2318.350
     Symmetrizing Results
     Final NS sqrt iter    6 1.00000000   0.217E-11

     Est. extremal eigenvalues     -0.84580     2.58503  converged:  T
     TRS4 it   1 1.00000000   0.286E+02       0.007     2172.377   0.100E-11
     TRS4 it   2 1.00000000   0.235E+02       0.013     2239.020   0.100E-11
     TRS4 it   3 1.00000000   0.156E+02       0.013     2243.047   0.100E-11
     TRS4 it   4 1.00000000   0.908E+01       0.013     2240.452   0.100E-11
     TRS4 it   5 1.00000000   0.378E+01       0.013     2228.970   0.100E-11
     TRS4 it   6 1.00000000   0.963E+00       0.013     2218.507   0.100E-11
     TRS4 it   7 1.00000000   0.113E+00       0.013     2233.396   0.100E-11
     TRS4 it   8 1.00000000   0.217E-02       0.013     2232.725   0.100E-11
     TRS4 it   9 1.00000000   0.939E-06       0.013     2224.825   0.100E-11
     TRS4 it  10 1.00000000   0.368E-12       0.013     2244.845   0.100E-11
     Final TRS4 iteration   10 1.00000000   0.368E-12
     Chemical potential (mu):       0.05429
 
 PAO| energy:  -191.81071669101144      penalty:   4.8400115329786644E-004
 PAO|LS| adapt:  T T F
 PAO|LS| adapt: scan_steps:    0.0000000000000000       0.43951860110388796        0.0000000000000000     
 PAO|LS| adapt: energies:   -191.80473536109147       -191.81071669101144        0.0000000000000000     
 PAO| ======================= Iteration:        22 =============================

     Lanczos converged:  F threshold:   0.100E-02
     Est. extremal eigenvalues:    0.487E+01   0.133E+00
     Est. condition number :    0.367E+02

 Order=           3
     NS sqrt iter    1 1.00000000   0.125E+01       0.021     2681.508
     NS sqrt iter    2 1.00000000   0.637E+00       0.033     3412.300
     NS sqrt iter    3 1.00000000   0.205E+00       0.033     3394.359
     NS sqrt iter    4 1.00000000   0.262E-01       0.033     3412.672
     NS sqrt iter    5 1.00000000   0.120E-03       0.033     3413.455
     NS sqrt iter    6 1.00000000   0.323E-10       0.020     2288.244
     Symmetrizing Results
     Final NS sqrt iter    6 1.00000000   0.218E-11

     Est. extremal eigenvalues     -0.84582     2.58254  converged:  T
     TRS4 it   1 1.00000000   0.286E+02       0.007     2139.963   0.100E-11
     TRS4 it   2 1.00000000   0.234E+02       0.013     2242.899   0.100E-11
     TRS4 it   3 1.00000000   0.156E+02       0.013     2216.171   0.100E-11
     TRS4 it   4 1.00000000   0.906E+01       0.013     2223.626   0.100E-11
     TRS4 it   5 1.00000000   0.376E+01       0.013     2232.739   0.100E-11
     TRS4 it   6 1.00000000   0.954E+00       0.013     2230.127   0.100E-11
     TRS4 it   7 1.00000000   0.112E+00       0.013     2210.532   0.100E-11
     TRS4 it   8 1.00000000   0.210E-02       0.013     2226.655   0.100E-11
     TRS4 it   9 1.00000000   0.879E-06       0.013     2220.782   0.100E-11
     TRS4 it  10 1.00000000   0.330E-12       0.013     2226.109   0.100E-11
     Final TRS4 iteration   10 1.00000000   0.330E-12
     Chemical potential (mu):       0.05473
 
 PAO| energy:  -191.80906107368202      penalty:   4.6727883448993810E-004
 PAO|LS| Need extra step
 PAO|LS| adapt:  T T T
 PAO|LS| adapt: scan_steps:    0.0000000000000000       0.43951860110388796       0.87903720220777593     
 PAO|LS| adapt: energies:   -191.80473536109147       -191.81071669101144       -191.80906107368202     
 PAO|LS| adapt: suggested step_size:   0.56399446066458681     
 PAO|LS| adapt: predicted energy  -191.81102296177653     
 PAO| ======================= Iteration:        23 =============================

     Lanczos converged:  F threshold:   0.100E-02
     Est. extremal eigenvalues:    0.488E+01   0.133E+00
     Est. condition number :    0.368E+02

 Order=           3
     NS sqrt iter    1 1.00000000   0.126E+01       0.021     2726.554
     NS sqrt iter    2 1.00000000   0.638E+00       0.033     3408.644
     NS sqrt iter    3 1.00000000   0.205E+00       0.033     3396.179
     NS sqrt iter    4 1.00000000   0.262E-01       0.033     3431.442
     NS sqrt iter    5 1.00000000   0.120E-03       0.033     3393.604
     NS sqrt iter    6 1.00000000   0.331E-10       0.020     2307.350
     Symmetrizing Results
     Final NS sqrt iter    6 1.00000000   0.217E-11

     Est. extremal eigenvalues     -0.84581     2.58433  converged:  T
     TRS4 it   1 1.00000000   0.286E+02       0.007     2138.037   0.100E-11
     TRS4 it   2 1.00000000   0.234E+02       0.013     2205.790   0.100E-11
     TRS4 it   3 1.00000000   0.156E+02       0.013     2245.433   0.100E-11
     TRS4 it   4 1.00000000   0.908E+01       0.013     2218.120   0.100E-11
     TRS4 it   5 1.00000000   0.377E+01       0.013     2236.647   0.100E-11
     TRS4 it   6 1.00000000   0.961E+00       0.013     2207.152   0.100E-11
     TRS4 it   7 1.00000000   0.113E+00       0.013     2245.160   0.100E-11
     TRS4 it   8 1.00000000   0.215E-02       0.013     2220.733   0.100E-11
     TRS4 it   9 1.00000000   0.921E-06       0.013     2223.287   0.100E-11
     TRS4 it  10 1.00000000   0.313E-12       0.013     2221.291   0.100E-11
     Final TRS4 iteration   10 1.00000000   0.313E-12
     Chemical potential (mu):       0.05442
 
 PAO| energy:  -191.81103026862067      penalty:   4.7909355545223026E-004
 PAO|CG| trace_G_new    1.7222149494572511E-002
 PAO|CG| trace_G_prev    2.2159795663201330E-002
 PAO|CG| trace_G_mix    1.1127096964352000E-004
 PAO|CG| trace_D    2.9098028896967065E-002
 PAO|CG| trace_D_Gnew  -4.8520038313690358E-005
 PAO|CG| beta:   0.77215867803977112     
 PAO| norm of gradient:  0.13123318747394849     
 PAO| energy improvement:  -6.2949075291953704E-003
 PAO| step     23                 -191.811030269  0.256E-03  0.564E+00     1.914
 PAO|LS| adapt:  T F F
 PAO|LS| adapt: scan_steps:    0.0000000000000000        0.0000000000000000        0.0000000000000000     
 PAO|LS| adapt: energies:   -191.81103026862067        0.0000000000000000        0.0000000000000000     
 PAO| ======================= Iteration:        24 =============================

     Lanczos converged:  F threshold:   0.100E-02
     Est. extremal eigenvalues:    0.486E+01   0.132E+00
     Est. condition number :    0.367E+02

 Order=           3
     NS sqrt iter    1 1.00000000   0.125E+01       0.021     2736.153
     NS sqrt iter    2 1.00000000   0.636E+00       0.034     3380.009
     NS sqrt iter    3 1.00000000   0.204E+00       0.033     3421.555
     NS sqrt iter    4 1.00000000   0.261E-01       0.033     3408.452
     NS sqrt iter    5 1.00000000   0.120E-03       0.033     3408.851
     NS sqrt iter    6 1.00000000   0.322E-10       0.020     2304.575
     Symmetrizing Results
     Final NS sqrt iter    6 1.00000000   0.218E-11

     Est. extremal eigenvalues     -0.84583     2.58116  converged:  T
     TRS4 it   1 1.00000000   0.286E+02       0.007     2137.365   0.100E-11
     TRS4 it   2 1.00000000   0.234E+02       0.013     2241.971   0.100E-11
     TRS4 it   3 1.00000000   0.156E+02       0.013     2227.059   0.100E-11
     TRS4 it   4 1.00000000   0.905E+01       0.013     2238.830   0.100E-11
     TRS4 it   5 1.00000000   0.375E+01       0.013     2234.857   0.100E-11
     TRS4 it   6 1.00000000   0.951E+00       0.013     2232.355   0.100E-11
     TRS4 it   7 1.00000000   0.111E+00       0.013     2223.311   0.100E-11
     TRS4 it   8 1.00000000   0.207E-02       0.013     2225.218   0.100E-11
     TRS4 it   9 1.00000000   0.853E-06       0.013     2220.281   0.100E-11
     TRS4 it  10 1.00000000   0.302E-12       0.013     2245.945   0.100E-11
     Final TRS4 iteration   10 1.00000000   0.302E-12
     Chemical potential (mu):       0.05492
 
 PAO| energy:  -191.81424988615169      penalty:   4.4219818568941256E-004
 PAO|LS| adapt:  T T F
 PAO|LS| adapt: scan_steps:    0.0000000000000000       0.56399446066458681        0.0000000000000000     
 PAO|LS| adapt: energies:   -191.81103026862067       -191.81424988615169        0.0000000000000000     
 PAO| ======================= Iteration:        25 =============================

     Lanczos converged:  F threshold:   0.100E-02
     Est. extremal eigenvalues:    0.485E+01   0.132E+00
     Est. condition number :    0.366E+02

 Order=           3
     NS sqrt iter    1 1.00000000   0.125E+01       0.021     2712.909
     NS sqrt iter    2 1.00000000   0.635E+00       0.033     3420.310
     NS sqrt iter    3 1.00000000   0.204E+00       0.033     3386.164
     NS sqrt iter    4 1.00000000   0.261E-01       0.033     3406.467
     NS sqrt iter    5 1.00000000   0.119E-03       0.033     3381.332
     NS sqrt iter    6 1.00000000   0.316E-10       0.020     2308.164
     Symmetrizing Results
     Final NS sqrt iter    6 1.00000000   0.217E-11

     Est. extremal eigenvalues     -0.84585     2.57777  converged:  T
     TRS4 it   1 1.00000000   0.286E+02       0.007     2142.037   0.100E-11
     TRS4 it   2 1.00000000   0.234E+02       0.013     2245.559   0.100E-11
     TRS4 it   3 1.00000000   0.155E+02       0.013     2229.087   0.100E-11
     TRS4 it   4 1.00000000   0.902E+01       0.013     2236.441   0.100E-11
     TRS4 it   5 1.00000000   0.373E+01       0.013     2256.285   0.100E-11
     TRS4 it   6 1.00000000   0.941E+00       0.013     2239.699   0.100E-11
     TRS4 it   7 1.00000000   0.109E+00       0.013     2216.491   0.100E-11
     TRS4 it   8 1.00000000   0.199E-02       0.013     2229.480   0.100E-11
     TRS4 it   9 1.00000000   0.791E-06       0.013     2231.046   0.100E-11
     TRS4 it  10 1.00000000   0.263E-12       0.013     2242.932   0.100E-11
     Final TRS4 iteration   10 1.00000000   0.263E-12
     Chemical potential (mu):       0.05543
 
 PAO| energy:  -191.80421576667166      penalty:   4.0936182107763282E-004
 PAO|LS| adapt:  T T T
 PAO|LS| adapt: scan_steps:    0.0000000000000000       0.56399446066458681        1.1279889213291736     
 PAO|LS| adapt: energies:   -191.81103026862067       -191.81424988615169       -191.80421576667166     
 PAO|LS| adapt: suggested step_size:   0.41900360456765029     
 PAO|LS| adapt: predicted energy  -191.81468785165509     
 PAO| ======================= Iteration:        26 =============================

     Lanczos converged:  F threshold:   0.100E-02
     Est. extremal eigenvalues:    0.487E+01   0.132E+00
     Est. condition number :    0.367E+02

 Order=           3
     NS sqrt iter    1 1.00000000   0.125E+01       0.021     2728.125
     NS sqrt iter    2 1.00000000   0.637E+00       0.033     3404.793
     NS sqrt iter    3 1.00000000   0.205E+00       0.033     3418.723
     NS sqrt iter    4 1.00000000   0.261E-01       0.034     3379.498
     NS sqrt iter    5 1.00000000   0.120E-03       0.033     3411.920
     NS sqrt iter    6 1.00000000   0.324E-10       0.020     2309.911
     Symmetrizing Results
     Final NS sqrt iter    6 1.00000000   0.217E-11

     Est. extremal eigenvalues     -0.84583     2.58200  converged:  T
     TRS4 it   1 1.00000000   0.286E+02       0.007     2173.621   0.100E-11
     TRS4 it   2 1.00000000   0.234E+02       0.013     2204.845   0.100E-11
     TRS4 it   3 1.00000000   0.156E+02       0.013     2235.605   0.100E-11
     TRS4 it   4 1.00000000   0.906E+01       0.013     2235.603   0.100E-11
     TRS4 it   5 1.00000000   0.376E+01       0.013     2237.473   0.100E-11
     TRS4 it   6 1.00000000   0.953E+00       0.013     2210.167   0.100E-11
     TRS4 it   7 1.00000000   0.111E+00       0.013     2235.110   0.100E-11
     TRS4 it   8 1.00000000   0.209E-02       0.013     2213.314   0.100E-11
     TRS4 it   9 1.00000000   0.870E-06       0.013     2221.867   0.100E-11
     TRS4 it  10 1.00000000   0.325E-12       0.013     2216.998   0.100E-11
     Final TRS4 iteration   10 1.00000000   0.325E-12
     Chemical potential (mu):       0.05479
 
 PAO| energy:  -191.81467432538261      penalty:   4.5128800074574412E-004
 PAO|CG| trace_G_new    1.3349744974749160E-002
 PAO|CG| trace_G_prev    1.7222149494572511E-002
 PAO|CG| trace_G_mix    2.6059264840380897E-004
 PAO|CG| trace_D    3.4646169203519213E-002
 PAO|CG| trace_D_Gnew  -7.9941235291098168E-005
 PAO|CG| beta:   0.76001850584738817     
 PAO| norm of gradient:  0.11554109647544963     
 PAO| energy improvement:  -3.6440567619422382E-003
 PAO| step     26                 -191.814674325  0.226E-03  0.419E+00     1.473
 PAO|LS| adapt:  T F F
 PAO|LS| adapt: scan_steps:    0.0000000000000000        0.0000000000000000        0.0000000000000000     
 PAO|LS| adapt: energies:   -191.81467432538261        0.0000000000000000        0.0000000000000000     
 PAO| ======================= Iteration:        27 =============================

     Lanczos converged:  F threshold:   0.100E-02
     Est. extremal eigenvalues:    0.485E+01   0.132E+00
     Est. condition number :    0.367E+02

 Order=           3
     NS sqrt iter    1 1.00000000   0.125E+01       0.021     2734.029
     NS sqrt iter    2 1.00000000   0.635E+00       0.033     3407.876
     NS sqrt iter    3 1.00000000   0.204E+00       0.033     3421.533
     NS sqrt iter    4 1.00000000   0.260E-01       0.033     3400.154
     NS sqrt iter    5 1.00000000   0.119E-03       0.033     3412.500
     NS sqrt iter    6 1.00000000   0.320E-10       0.020     2313.266
     Symmetrizing Results
     Final NS sqrt iter    6 1.00000000   0.217E-11

     Est. extremal eigenvalues     -0.84585     2.57931  converged:  T
     TRS4 it   1 1.00000000   0.286E+02       0.007     2120.668   0.100E-11
     TRS4 it   2 1.00000000   0.234E+02       0.013     2236.856   0.100E-11
     TRS4 it   3 1.00000000   0.155E+02       0.013     2223.351   0.100E-11
     TRS4 it   4 1.00000000   0.904E+01       0.013     2216.589   0.100E-11
     TRS4 it   5 1.00000000   0.374E+01       0.013     2205.795   0.100E-11
     TRS4 it   6 1.00000000   0.945E+00       0.013     2219.068   0.100E-11
     TRS4 it   7 1.00000000   0.109E+00       0.013     2257.040   0.100E-11
     TRS4 it   8 1.00000000   0.202E-02       0.013     2223.735   0.100E-11
     TRS4 it   9 1.00000000   0.813E-06       0.013     2210.654   0.100E-11
     TRS4 it  10 1.00000000   0.282E-12       0.013     2239.496   0.100E-11
     Final TRS4 iteration   10 1.00000000   0.282E-12
     Chemical potential (mu):       0.05524
 
 PAO| energy:  -191.81731084780748      penalty:   4.1708327897394486E-004
 PAO|LS| adapt:  T T F
 PAO|LS| adapt: scan_steps:    0.0000000000000000       0.41900360456765029        0.0000000000000000     
 PAO|LS| adapt: energies:   -191.81467432538261       -191.81731084780748        0.0000000000000000     
 PAO| ======================= Iteration:        28 =============================

     Lanczos converged:  F threshold:   0.100E-02
     Est. extremal eigenvalues:    0.484E+01   0.132E+00
     Est. condition number :    0.367E+02

 Order=           3
     NS sqrt iter    1 1.00000000   0.125E+01       0.021     2712.950
     NS sqrt iter    2 1.00000000   0.633E+00       0.033     3410.615
     NS sqrt iter    3 1.00000000   0.203E+00       0.033     3396.381
     NS sqrt iter    4 1.00000000   0.259E-01       0.033     3396.092
     NS sqrt iter    5 1.00000000   0.119E-03       0.033     3388.098
     NS sqrt iter    6 1.00000000   0.316E-10       0.020     2302.696
     Symmetrizing Results
     Final NS sqrt iter    6 1.00000000   0.216E-11

     Est. extremal eigenvalues     -0.84587     2.57647  converged:  T
     TRS4 it   1 1.00000000   0.286E+02       0.007     2134.163   0.100E-11
     TRS4 it   2 1.00000000   0.234E+02       0.013     2236.524   0.100E-11
     TRS4 it   3 1.00000000   0.155E+02       0.013     2220.851   0.100E-11
     TRS4 it   4 1.00000000   0.901E+01       0.013     2216.881   0.100E-11
     TRS4 it   5 1.00000000   0.372E+01       0.013     2217.983   0.100E-11
     TRS4 it   6 1.00000000   0.936E+00       0.013     2232.818   0.100E-11
     TRS4 it   7 1.00000000   0.107E+00       0.013     2236.221   0.100E-11
     TRS4 it   8 1.00000000   0.195E-02       0.013     2220.872   0.100E-11
     TRS4 it   9 1.00000000   0.760E-06       0.013     2234.059   0.100E-11
     TRS4 it  10 1.00000000   0.242E-12       0.013     2232.459   0.100E-11
     Final TRS4 iteration   10 1.00000000   0.242E-12
     Chemical potential (mu):       0.05570
 
 PAO| energy:  -191.81392813071230      penalty:   3.8574811855512090E-004
 PAO|LS| adapt:  T T T
 PAO|LS| adapt: scan_steps:    0.0000000000000000       0.41900360456765029       0.83800720913530058     
 PAO|LS| adapt: energies:   -191.81467432538261       -191.81731084780748       -191.81392813071230     
 PAO|LS| adapt: suggested step_size:   0.39303202995849396     
 PAO|LS| adapt: predicted energy  -191.81732241086465     
 PAO| ======================= Iteration:        29 =============================

     Lanczos converged:  F threshold:   0.100E-02
     Est. extremal eigenvalues:    0.485E+01   0.132E+00
     Est. condition number :    0.367E+02

 Order=           3
     NS sqrt iter    1 1.00000000   0.125E+01       0.021     2722.545
     NS sqrt iter    2 1.00000000   0.635E+00       0.033     3400.894
     NS sqrt iter    3 1.00000000   0.204E+00       0.033     3397.937
     NS sqrt iter    4 1.00000000   0.260E-01       0.034     3369.663
     NS sqrt iter    5 1.00000000   0.119E-03       0.033     3412.528
     NS sqrt iter    6 1.00000000   0.320E-10       0.020     2296.121
     Symmetrizing Results
     Final NS sqrt iter    6 1.00000000   0.217E-11

     Est. extremal eigenvalues     -0.84585     2.57948  converged:  T
     TRS4 it   1 1.00000000   0.286E+02       0.007     2144.885   0.100E-11
     TRS4 it   2 1.00000000   0.234E+02       0.013     2219.383   0.100E-11
     TRS4 it   3 1.00000000   0.156E+02       0.013     2236.341   0.100E-11
     TRS4 it   4 1.00000000   0.904E+01       0.013     2206.645   0.100E-11
     TRS4 it   5 1.00000000   0.374E+01       0.013     2247.648   0.100E-11
     TRS4 it   6 1.00000000   0.945E+00       0.013     2230.829   0.100E-11
     TRS4 it   7 1.00000000   0.109E+00       0.013     2226.905   0.100E-11
     TRS4 it   8 1.00000000   0.202E-02       0.013     2215.975   0.100E-11
     TRS4 it   9 1.00000000   0.816E-06       0.013     2226.559   0.100E-11
[...]
     Est. extremal eigenvalues     -0.84684     2.53749  converged:  T
     TRS4 it   1 1.00000000   0.287E+02       0.007     2135.367   0.100E-11
     TRS4 it   2 1.00000000   0.234E+02       0.013     2241.487   0.100E-11
     TRS4 it   3 1.00000000   0.157E+02       0.013     2233.859   0.100E-11
     TRS4 it   4 1.00000000   0.936E+01       0.013     2197.345   0.100E-11
     TRS4 it   5 1.00000000   0.421E+01       0.013     2238.191   0.100E-11
     TRS4 it   6 1.00000000   0.131E+01       0.013     2225.152   0.100E-11
     TRS4 it   7 1.00000000   0.226E+00       0.013     2245.603   0.100E-11
     TRS4 it   8 1.00000000   0.971E-02       0.013     2223.181   0.100E-11
     TRS4 it   9 1.00000000   0.221E-04       0.013     2205.631   0.100E-11
     TRS4 it  10 1.00000000   0.210E-09       0.013     2228.587   0.100E-11
     Final TRS4 iteration   10 1.00000000   0.210E-09
     Chemical potential (mu):       0.02984
 
 PAO| energy:  -191.44106717577577      penalty:   1.6394585578909610E-008
 PAO| Writing restart file.
     Est. extremal eigenvalues     -0.84684     2.53749  converged:  T
     TRS4 it   1 1.00000000   0.287E+02       0.007     2172.088   0.100E-11
     TRS4 it   2 1.00000000   0.234E+02       0.013     2232.758   0.100E-11
     TRS4 it   3 1.00000000   0.157E+02       0.013     2242.037   0.100E-11
     TRS4 it   4 1.00000000   0.936E+01       0.013     2247.298   0.100E-11
     TRS4 it   5 1.00000000   0.421E+01       0.013     2218.512   0.100E-11
     TRS4 it   6 1.00000000   0.131E+01       0.013     2204.987   0.100E-11
     TRS4 it   7 1.00000000   0.226E+00       0.013     2237.770   0.100E-11
     TRS4 it   8 1.00000000   0.971E-02       0.013     2213.388   0.100E-11
     TRS4 it   9 1.00000000   0.221E-04       0.013     2242.706   0.100E-11
     TRS4 it  10 1.00000000   0.210E-09       0.013     2228.513   0.100E-11
     Final TRS4 iteration   10 1.00000000   0.210E-09
     Chemical potential (mu):       0.02984

 SCF     1     -1103.015945723     -1103.015945723    1.747003

*********************************************************
 Using MIXING_FRACTION=0.450 to mix KS matrix:  iscf=  2
 KS_nw=0.450*KS + 0.550*KS_old
*********************************************************
     Est. extremal eigenvalues     -0.84684     2.53749  converged:  T
     TRS4 it   1 1.00000000   0.287E+02       0.007     2159.919   0.100E-11
     TRS4 it   2 1.00000000   0.234E+02       0.013     2221.498   0.100E-11
     TRS4 it   3 1.00000000   0.157E+02       0.013     2256.149   0.100E-11
     TRS4 it   4 1.00000000   0.936E+01       0.013     2245.309   0.100E-11
     TRS4 it   5 1.00000000   0.421E+01       0.013     2232.149   0.100E-11
     TRS4 it   6 1.00000000   0.131E+01       0.013     2231.883   0.100E-11
     TRS4 it   7 1.00000000   0.226E+00       0.013     2223.624   0.100E-11
     TRS4 it   8 1.00000000   0.971E-02       0.013     2213.467   0.100E-11
     TRS4 it   9 1.00000000   0.221E-04       0.013     2221.682   0.100E-11
     TRS4 it  10 1.00000000   0.210E-09       0.013     2237.790   0.100E-11
     Final TRS4 iteration   10 1.00000000   0.210E-09
     Chemical potential (mu):       0.02984

 SCF     2     -1103.015945723        -0.000000000    1.741884


 SCF run converged in     2 steps.

 PAO| Storing density matrix for ASPC guess in slot:           1

 ENERGY| Total FORCE_EVAL ( QS ) energy [a.u.]:            -1103.015945723295317

 -------------------------------------------------------------------------------
 -                                                                             -
 -                                DBCSR STATISTICS                             -
 -                                                                             -
 -------------------------------------------------------------------------------
 COUNTER                                    TOTAL       BLAS       SMM       ACC
 flops     5 x     5 x     4             23116800       0.0%    100.0%      0.0%     
 flops    13 x     5 x     4             29818880       0.0%    100.0%      0.0%     
 flops     5 x    13 x     4             29818880       0.0%    100.0%      0.0%     
 flops    13 x    13 x     4             39370240       0.0%    100.0%      0.0%     
 flops     4 x     4 x     5           6452674560       0.0%    100.0%      0.0%     
 flops     5 x     4 x     5           7972454400       0.0%    100.0%      0.0%     
 flops     4 x     4 x    13           8388476928       0.0%    100.0%      0.0%     
 flops    13 x     4 x     5          10364190720       0.0%    100.0%      0.0%     
 flops     5 x     4 x    13          10364190720       0.0%    100.0%      0.0%     
 flops    13 x     4 x    13          13473447936       0.0%    100.0%      0.0%     
 flops     5 x     4 x     4         418688494240       0.0%    100.0%      0.0%     
 flops    13 x     4 x     4         581913820800       0.0%    100.0%      0.0%     
 flops     4 x     4 x     4       28999155231104       0.0%    100.0%      0.0%     
 flops inhomo. stacks                           0       0.0%      0.0%      0.0%
 flops total                        30.056895E+12       0.0%    100.0%      0.0%
 flops max/rank                    948.737813E+09       0.0%    100.0%      0.0%
 matmuls inhomo. stacks                         0       0.0%      0.0%      0.0%
 matmuls total                       230721977960       0.0%    100.0%      0.0%
 number of processed stacks             235657917       0.0%    100.0%      0.0%
 average stack size                                     0.0     979.1       0.0
 marketing flops                    51.924049E+12
 -------------------------------------------------------------------------------
 # multiplications                          48526
 max memory usage/rank             617.246720E+06
 # max total images/rank                        2
 # max 3D layers                                1
 # MPI messages exchanged                20186816
 MPI messages size (bytes):
  total size                         2.395443E+12
  min size                           0.000000E+00
  max size                         541.696000E+03
  average size                     118.663711E+03
 MPI breakdown and total messages size (bytes):
             size <=      128              885741                    10752
       128 < size <=     8192              298518               1115441792
      8192 < size <=    32768               44598               1092506880
     32768 < size <=   131072             8688747             642053753472
    131072 < size <=  4194304            10269212            1751575312640
   4194304 < size <= 16777216                   0                        0
  16777216 < size                               0                        0
 -------------------------------------------------------------------------------

 *** WARNING in dbcsr_mm.F:301 :: Using a non-square number of MPI ranks ***
 *** might lead to poor performance. Used ranks: 32 Suggested: 36 64     ***

 -------------------------------------------------------------------------------
 -                                                                             -
 -                      DBCSR MESSAGE PASSING PERFORMANCE                      -
 -                                                                             -
 -------------------------------------------------------------------------------
 ROUTINE             CALLS      AVE VOLUME [Bytes]
 MP_Bcast               14                     12.
 MP_Allreduce       290162                     37.
 MP_Alltoall        126041                  14859.
 MP_ISend          1620758                  55319.
 MP_IRecv          1586794                  56559.
 -------------------------------------------------------------------------------

 -------------------------------------------------------------------------------
 -                                                                             -
 -                                DBM STATISTICS                               -
 -                                                                             -
 -------------------------------------------------------------------------------
    M  x    N  x    K                                          COUNT     PERCENT
 -------------------------------------------------------------------------------

 -------------------------------------------------------------------------------
 -                                                                             -
 -                                GRID STATISTICS                              -
 -                                                                             -
 -------------------------------------------------------------------------------
 LP    KERNEL             BACKEND                              COUNT     PERCENT
 2     collocate ortho    CPU                               11480210      28.84%
 2     integrate ortho    CPU                               11480210      28.84%
 3     collocate ortho    CPU                                7374696      18.52%
 3     integrate ortho    CPU                                7374696      18.52%
 4     collocate ortho    CPU                                1047200       2.63%
 4     integrate ortho    CPU                                1047200       2.63%
 0     collocate general  CPU                                   6144       0.02%
 -------------------------------------------------------------------------------

 MEMORY| Estimated peak process memory [MiB]                                 590

 -------------------------------------------------------------------------------
 -                                                                             -
 -                         MESSAGE PASSING PERFORMANCE                         -
 -                                                                             -
 -------------------------------------------------------------------------------

 ROUTINE             CALLS      AVE VOLUME [Bytes]
 MP_Group                5
 MP_Bcast           346974                   2008.
 MP_Allreduce       862462                    514.
 MP_Sync                 5
 MP_Alltoall           369                7332416.
 MP_SendRecv          1302                  18832.
 MP_ISendRecv         1302                  18832.
 MP_Wait              3696
 MP_ISend             2166                 108220.
 MP_IRecv             2166                 108236.
 -------------------------------------------------------------------------------


 -------------------------------------------------------------------------------
 -                                                                             -
 -                           R E F E R E N C E S                               -
 -                                                                             -
 -------------------------------------------------------------------------------
 
 CP2K version 2024.3 (Development Version), the CP2K developers group (2024).
 CP2K is freely available from https://www.cp2k.org/ .
 
 T. D. Kuehne, M. Iannuzzi, M. Del Ben, V. V. Rybkin, P. Seewald, F. Stein, T. 
 Laino, R. Z. Khaliullin, O. Schuett, F. Schiffmann, D. Golze, J. Wilhelm, S. 
 Chulkov, M. H. Bani-Hashemian, V. Weber, U. Borstnik, M. Taillefumier, A. S. 
 Jakobovits, A. Lazzaro, H. Pabst, T. Mueller, R. Schade, M. Guidon, S. 
 Andermatt, N. Holmberg, G. K. Schenter, A. Hehn, A. Bussy, F. Belleflamme, G. 
 Tabacchi, A. Gloess, M. Lass, I. Bethune, C. J. Mundy, C. Plessl, M. Watkins, 
 J. VandeVondele, M. Krack, J. Hutter.
 J. Chem. Phys. 152, 194103 (2020).
 CP2K: An electronic structure and molecular dynamics software package - 
 Quickstep: Efficient and accurate electronic structure calculations.
 https://doi.org/10.1063/5.0007045

 O. Schuett, J. VandeVondele.
 J. Chem. Theory Comput. 14, 4168-4175 (2018).
 Machine Learning Adaptive Basis Sets for Efficient Large Scale Density 
 Functional Theory Simulation.
 https://doi.org/10.1021/acs.jctc.8b00378

 O. Schuett, P. Messmer, J. Hutter, J. VandeVondele.
 Electronic Structure Calculations on Graphics Processing Units, 173-190 (2016).
 GPU-Accelerated Sparse Matrix-Matrix Multiplication for Linear Scaling Density 
 Functional Theory.
 https://doi.org/10.1002/9781118670712.ch8

 A. Heinecke, G. Henry, M. Hutchinson, H. Pabst.
 Proceedings of Intl. Supercomputing Conference, 981-991 (2016).
 LIBXSMM: Accelerating Small Matrix Multiplications by Runtime Code Generation.
 https://doi.org/10.1109/SC.2016.83

 J. Hutter, M. Iannuzzi, F. Schiffmann, J. VandeVondele.
 WIREs Comput Mol Sci. 4, 15-25 (2014).
 CP2K: atomistic simulations of condensed matter systems.
 https://doi.org/10.1002/wcms.1159

 U. Borstnik, J. VandeVondele, V. Weber, J. Hutter.
 Parallel Comput. 40, 47-58 (2014).
 Sparse matrix multiplication: The distributed block-compressed sparse row 
 library.
 https://doi.org/10.1016/j.parco.2014.03.012

 A. Marek, V. Blum, R. Johanni, V. Havu, B. Lang, T. Auckenthaler, A. Heinecke, 
 H. Bungartz, H. Lederer.
 J. Phys. Condens. Matter 26, 213201 (2014).
 The ELPA library: scalable parallel eigenvalue solutions for electronic 
 structure theory and computational science.
 https://doi.org/10.1088/0953-8984/26/21/213201

 J. VandeVondele, U. Borstnik, J. Hutter.
 J. Chem. Theory Comput. 8, 3565-3573 (2012).
 Linear Scaling Self-Consistent Field Calculations with Millions of Atoms in the 
 Condensed Phase.
 https://doi.org/10.1021/ct200897x

 J. VandeVondele, J. Hutter.
 J. Chem. Phys. 127, 114105 (2007).
 Gaussian basis sets for accurate calculations on molecular systems in gas and 
 condensed phases.
 https://doi.org/10.1063/1.2770708

 J. VandeVondele, M. Krack, F. Mohamed, M. Parrinello, T. Chassaing, J. Hutter.
 Comput. Phys. Commun. 167, 103-128 (2005).
 QUICKSTEP: Fast and accurate density functional calculations using a mixed 
 Gaussian and plane waves approach.
 https://doi.org/10.1016/j.cpc.2004.12.014

 M. Krack.
 Theor. Chem. Acc. 114, 145-152 (2005).
 Pseudopotentials for H to Kr optimized for gradient-corrected 
 exchange-correlation functionals.
 https://doi.org/10.1007/s00214-005-0655-y

 M. Frigo, S. G. Johnson.
 Proc. IEEE 93, 216-231 (2005).
 The design and implementation of FFTW3.
 https://doi.org/10.1109/JPROC.2004.840301

 A. M. N. Niklasson, C. J. Tymczak, M. Challacombe.
 J. Chem. Phys. 118, 8611-8620 (2003).
 Trace resetting density matrix purification in O(N) self-consistent-field 
 theory.
 https://doi.org/10.1063/1.1559913

 C. Hartwigsen, S. Goedecker, J. Hutter.
 Phys. Rev. B 58, 3641-3662 (1998).
 Relativistic separable dual-space Gaussian pseudopotentials from H to Rn.
 https://doi.org/10.1103/PhysRevB.58.3641

 G. Lippert, J. Hutter, M. Parrinello.
 Mol. Phys. 92, 477-487 (1997).
 A hybrid Gaussian and plane wave density functional scheme.
 https://doi.org/10.1080/002689797170220

 S. Goedecker, M. Teter, J. Hutter.
 Phys. Rev. B 54, 1703-1710 (1996).
 Separable dual-space Gaussian pseudopotentials.
 https://doi.org/10.1103/PhysRevB.54.1703

 J. P. Perdew, K. Burke, M. Ernzerhof.
 Phys. Rev. Lett. 77, 3865-3868 (1996).
 Generalized gradient approximation made simple.
 https://doi.org/10.1103/PhysRevLett.77.3865


 -------------------------------------------------------------------------------
 -                                                                             -
 -                                T I M I N G                                  -
 -                                                                             -
 -------------------------------------------------------------------------------
 SUBROUTINE                       CALLS  ASD         SELF TIME        TOTAL TIME
                                MAXIMUM       AVERAGE  MAXIMUM  AVERAGE  MAXIMUM
 CP2K                                 1  1.0    0.012    0.016  425.234  425.235
 qs_energies                          1  2.0    0.000    0.000  425.084  425.085
 ls_scf                               1  3.0    0.000    0.000  424.070  424.071
 pao_update                           6  4.0    0.006    0.024  398.105  398.106
 pao_calc_energy                    811  5.0    0.003    0.018  355.483  355.486
 dbcsr_multiply_generic           48526  8.4    1.357    1.481  333.550  333.854
 multiply_cannon                  48526  9.4    2.509    2.895  269.425  273.861
 multiply_cannon_loop             48526 10.4    1.794    2.088  258.978  263.205
 ls_scf_init_matrix_S               817  7.0    0.008    0.009  207.814  207.884
 pao_rebuild_S                      811  6.0    0.003    0.003  206.268  206.336
 matrix_sqrt_Newton_Schulz          817  8.0    0.169    0.286  192.893  192.944
 multiply_cannon_multrec         388208 11.4  172.613  174.091  173.415  174.891
 pao_dm_trs4                        811  6.0    0.006    0.007  148.831  148.848
 density_matrix_trs4                824  7.0    0.199    0.332  142.685  142.784
 mp_waitall_1                   3107194 12.6   82.150   88.835   82.150   88.835
 multiply_cannon_metrocomm3      388208 11.4    0.670    0.731   65.345   70.551
 arnoldi_extremal                  1641  8.5    0.013    0.014   56.849   56.885
 arnoldi_normal_ev                 1641  9.5    0.035    0.059   56.833   56.869
 make_m2s                         97052  9.4    0.532    0.672   48.903   50.105
 build_subspace                    5593 10.7    0.341    0.367   49.997   50.024
 make_images                      97052 10.4    7.119    7.303   47.580   48.856
 dbcsr_matrix_vector_mult        171072 11.7    0.731    1.106   47.190   47.488
 pao_calc_AB                       1076  5.8    0.002    0.002   42.159   42.162
 pao_calc_AB_equi                  1076  6.8    0.040    0.099   42.158   42.160
 pao_calc_grad_lnv_wrt_AB           264  7.0    0.019    0.023   41.740   41.796
 dbcsr_matrix_vector_mult_local  171072 12.7   40.218   40.611   40.409   40.801
 make_images_data                 97052 11.4    0.839    1.040   20.428   23.013
 ls_scf_main                          6  4.0    0.000    0.001   22.719   22.721
 ls_scf_dm_to_ks                     13  5.0    0.000    0.000   20.329   20.334
 hybrid_alltoall_any              98682 12.4    0.894    1.825   15.988   19.434
 matrix_qs_to_ls                   1641  7.5    0.016    0.020   16.703   16.856
 mp_sum_l                        197749  9.5    7.849   15.007    7.849   15.007
 qs_ks_update_qs_env                 14  6.0    0.000    0.000   12.227   12.232
 rebuild_ks_matrix                   14  7.0    0.000    0.000   12.217   12.222
 qs_ks_build_kohn_sham_matrix        14  8.0    0.002    0.003   12.217   12.222
 calculate_norms                 723456 11.4   11.254   12.097   11.254   12.097
 make_images_pack                 97052 11.4   10.689   11.088   10.821   11.221
 dbcsr_multiply_generic_mpsum_f   35270  9.5    0.026    0.035    4.549    9.935
 qs_rho_update_rho_low               14  6.0    0.000    0.000    9.578    9.581
 calculate_rho_elec                  14  7.0    0.005    0.005    9.578    9.581
 sum_up_and_integrate                14  9.0    0.000    0.001    9.269    9.274
 integrate_v_rspace                  14 10.0    0.000    0.000    9.256    9.262
 grid_collocate_task_list            14  8.0    8.504    8.647    8.504    8.647
 -------------------------------------------------------------------------------

 The number of warnings for this run is : 1
 
 -------------------------------------------------------------------------------
  **** **** ******  **  PROGRAM ENDED AT                 2024-09-23 23:45:52.752
 ***** ** ***  *** **   PROGRAM RAN ON                                    moritz
 **    ****   ******    PROGRAM RAN BY                                       ole
 ***** **    ** ** **   PROGRAM PROCESS ID                                164425
  **** **  *******  **  PROGRAM STOPPED IN /home/ole/git/pao_ml_equivar/64H2O_MD
                                           /Frame1100
