 DBCSR| CPU Multiplication driver                                           XSMM (U)
 DBCSR| Multrec recursion limit                                              512 (U)
 DBCSR| Multiplication stack size                                           1000 (D)
 DBCSR| Maximum elements for images                                    UNLIMITED (U)
 DBCSR| Multiplicative factor virtual images                                   1 (U)
 DBCSR| Use multiplication densification                                       T (D)
 DBCSR| Multiplication size stacks                                             3 (U)
 DBCSR| Use memory pool for CPU allocation                                     F (U)
 DBCSR| Number of 3D layers                                               SINGLE (U)
 DBCSR| Use MPI memory allocation                                              F (U)
 DBCSR| Use RMA algorithm                                                      F (U)
 DBCSR| Use Communication thread                                               T (U)
 DBCSR| Communication thread load                                             87 (D)
 DBCSR| MPI: My process id                                                     0
 DBCSR| MPI: Number of processes                                              32
 DBCSR| OMP: Current number of threads                                         1
 DBCSR| OMP: Max number of threads                                             1
 DBCSR| Split modifier for TAS multiplication algorithm                  1.0E+00 (U)


  **** **** ******  **  PROGRAM STARTED AT               2024-09-24 06:56:07.843
 ***** ** ***  *** **   PROGRAM STARTED ON                                moritz
 **    ****   ******    PROGRAM STARTED BY                                   ole
 ***** **    ** ** **   PROGRAM PROCESS ID                                173463
  **** **  *******  **  PROGRAM STARTED IN /home/ole/git/pao_ml_equivar/64H2O_MD
                                           /Frame7000

 CP2K| version string:                 CP2K version 2024.3 (Development Version)
 CP2K| source code revision number:                                  git:3f890bb
 CP2K| cp2kflags: omp libint fftw3 libxc libgrpp pexsi elpa parallel scalapack c
 CP2K|            osma quip deepmd xsmm plumed2 spglib libdftd4 sirius libvori l
 CP2K|            libbqb libvdwxc hdf5
 CP2K| is freely available from                            https://www.cp2k.org/
 CP2K| Program compiled at                          Mo 23 Sep 2024 17:17:04 CEST
 CP2K| Program compiled on                                                moritz
 CP2K| Program compiled for                                                local
 CP2K| Data directory path                               /home/ole/git/cp2k/data
 CP2K| Input file name                                           64H2O_pao44.inp

 GLOBAL| Force Environment number                                              1
 GLOBAL| Basis set file name                                        BASIS_MOLOPT
 GLOBAL| Potential file name                                      GTH_POTENTIALS
 GLOBAL| MM Potential file name                                     MM_POTENTIAL
 GLOBAL| Coordinate file name                                         coords.xyz
 GLOBAL| Method name                                                        CP2K
 GLOBAL| Project name                                                64H2O_pao44
 GLOBAL| Run type                                                         ENERGY
 GLOBAL| FFT library                                                       FFTW3
 GLOBAL| Diagonalization library                                            ELPA
 GLOBAL| DGEMM library                                                      BLAS
 GLOBAL| Minimum number of eigenvectors for ELPA usage                        16
 GLOBAL| Orthonormality check for eigenvectors                          DISABLED
 GLOBAL| Matrix multiplication library                                     COSMA
 GLOBAL| All-to-all communication in single precision                          F
 GLOBAL| FFTs using library dependent lengths                                  F
 GLOBAL| Grid backend                                                       AUTO
 GLOBAL| Global print level                                                  LOW
 GLOBAL| MPI I/O enabled                                                       T
 GLOBAL| Total number of message passing processes                            32
 GLOBAL| Number of threads for this process                                    1
 GLOBAL| This output is from process                                           0
 GLOBAL| Stack size for threads created by OpenMP (OMP_STACKSIZE)        default
 GLOBAL| CPU model name           AMD Ryzen Threadripper 3970X 32-Core Processor
 GLOBAL| CPUID                                                              1002

 MEMORY| system memory details [Kb]
 MEMORY|                        rank 0           min           max       average
 MEMORY| MemTotal            131752136     131752136     131752136     131752136
 MEMORY| MemFree             113660532     113660532     113660532     113660532
 MEMORY| Buffers               2045892       2045892       2045892       2045892
 MEMORY| Cached                9098204       9098204       9098208       9098207
 MEMORY| Slab                  1675464       1675464       1675464       1675464
 MEMORY| SReclaimable          1173132       1173132       1173132       1173132
 MEMORY| MemLikelyFree       125977760     125977760     125977764     125977763


 GENERATE|  Preliminary Number of Bonds generated:                             0
 GENERATE|  Achieved consistency in connectivity generation.

 *******************************************************************************
 *******************************************************************************
 **                                                                           **
 **     #####                         ##              ##                      **
 **    ##   ##            ##          ##              ##                      **
 **   ##     ##                       ##            ######                    **
 **   ##     ##  ##   ##  ##   #####  ##  ##   ####   ##    #####    #####    **
 **   ##     ##  ##   ##  ##  ##      ## ##   ##      ##   ##   ##  ##   ##   **
 **   ##  ## ##  ##   ##  ##  ##      ####     ###    ##   ######   ######    **
 **    ##  ###   ##   ##  ##  ##      ## ##      ##   ##   ##       ##        **
 **     #######   #####   ##   #####  ##  ##  ####    ##    #####   ##        **
 **           ##                                                    ##        **
 **                                                                           **
 **                                                ... make the atoms dance   **
 **                                                                           **
 **            Copyright (C) by CP2K developers group (2000-2024)             **
 **                      J. Chem. Phys. 152, 194103 (2020)                    **
 **                                                                           **
 *******************************************************************************


 TOTAL NUMBERS AND MAXIMUM NUMBERS

  Total number of            - Atomic kinds:                                   2
                             - Atoms:                                        192
                             - Shell sets:                                   192
                             - Shells:                                       704
                             - Primitive Cartesian functions:               1344
                             - Cartesian basis functions:                   1536
                             - Spherical basis functions:                   1472

  Maximum angular momentum of- Orbital basis functions:                        2
                             - Local part of the GTH pseudopotential:          2
                             - Non-local part of the GTH pseudopotential:      0

 ------------------------------ Linear scaling SCF -----------------------------
 eps_scf:                                                              0.100E-07
 eps_filter:                                                           0.100E-11
 mixing_fraction:                                                      0.450E+00
 max_scf:                                                                     25
 fixed chemical potential (mu)                                                 F
 has unit metric:                                                              F
 Computing inv(S):                                                             T
 Computing sqrt(S):                                                            T
 Computing S preconditioner                                                    F
 S sqrt method:                                                     NEWTONSCHULZ
 S sqrt order:                                                                 3
 Extrapolation order:                                                          1
 S preconditioner type                                                      NONE
 Polarized Atomic Orbitals (PAO)                                               T
 Purification method                                   Trace resetting 4th order
 Cluster type                                                             ATOMIC
 Computing Chebyshev                                                       FALSE
 Using PAO                                                                     T
 -------------------------------------------------------------------------------

 
 PAO|                                  EPS_PAO                           0.5E-06
 PAO|                                  MIXING                            0.5E+00
 PAO|                                  MAX_PAO                              1500
 PAO|                                  MAX_CYCLES                           1000
 PAO|                                  PARAMETERIZATION              EQUIVARIANT
 PAO|                                  PRECONDITION                            F
 PAO|                                  REGULARIZATION                    0.0E+00
 PAO|                                  EPS_PGF                           0.1E-09
 PAO|                                  PENALTY_DISTANCE                  0.1E+00
 PAO|                                  PENALTY_STRENGTH                  0.5E-02
 PAO|                                  LINPOT_PRECONDITION_DELTA         0.0E+00
 PAO|                                  LINPOT_INITGUESS_DELT             0.0E+00
 PAO|                                  LINPOT_REGULARIZATION_DELTA       0.0E+00
 PAO|                                  LINPOT_REGULARIZATION_STRENGTH    0.0E+00
 PAO|                                  OPTIMIZER                              CG
 PAO|                                  CG_INIT_STEPS                           2
 PAO|                                  CG_RESET_LIMIT                    0.1E+00
 PAO|                                  CHECK_UNITARY_TOL                -0.1E+01
 PAO|                                  CHECK_GRADIENT_TOL               -0.1E+01
 PAO|                                  NUM_GRADIENT_ORDER                      2
 PAO|                                  NUM_GRADIENT_EPS                  0.1E-07
 PAO|                                  PRINT%RESTART%WRITE_CYCLES            100
 PAO|                                  RESTART_FILE 
 PAO|                                  PREOPT_DM_FILE 64H2O_ref_LS_DM_SPIN_1_RESTART.dm
 PAO|                                  MACHINE_LEARNING%METHOD       GAUSSIAN_PR
 PAO|                                  MACHINE_LEARNING%PRIOR               ZERO
 PAO|                                  MACHINE_LEARNING%DESCRIPTOR     POTENTIAL
 PAO|                                  MACHINE_LEARNING%TOLERANCE        0.1E-01
 PAO|                                  MACHINE_LEARNING%GP_NOISE_VAR     0.1E+00
 PAO|                                  MACHINE_LEARNING%GP_SCALE         0.5E-01
 

 Calculating atomic Fock matrix for atomic kind: O

 Electronic structure
    Total number of core electrons                                          2.00
    Total number of valence electrons                                       6.00
    Total number of electrons                                               8.00
    Multiplicity                                                   not specified
    S   [  2.00] 2.00
    P      4.00


 *******************************************************************************
                  Iteration          Convergence                     Energy [au]
 *******************************************************************************
                          1        0.708315                     -15.576645311500
                          2        0.608879                     -15.587933561584
                          3        0.102828E-01                 -15.656849565404
                          4        0.113889E-02                 -15.656866888140
                          5        0.434197E-03                 -15.656867072159
                          6        0.263771E-03                 -15.656867091904
                          7        0.478536E-06                 -15.656867103452

 Energy components [Hartree]           Total Energy ::          -15.656867103452
                                        Band Energy ::           -3.000198112285
                                     Kinetic Energy ::           11.759971203220
                                   Potential Energy ::          -27.416838306672
                                      Virial (-V/T) ::            2.331369510426
                                        Core Energy ::          -26.140716385623
                                          XC Energy ::           -3.154051012914
                                     Coulomb Energy ::           13.637900295084
                       Total Pseudopotential Energy ::          -37.935781716540
                       Local Pseudopotential Energy ::          -39.218907440693
                    Nonlocal Pseudopotential Energy ::            1.283125724153
                                        Confinement ::            0.350941276976

 Orbital energies  State     L     Occupation   Energy[a.u.]          Energy[eV]

                       1     0          2.000      -0.864471          -23.523463

                       1     1          4.000      -0.317814           -8.648154


 Total Electron Density at R=0:                                         0.000068

 Calculating atomic Fock matrix for atomic kind: H

 Electronic structure
    Total number of core electrons                                          0.00
    Total number of valence electrons                                       1.00
    Total number of electrons                                               1.00
    Multiplicity                                                   not specified
    S      1.00


 *******************************************************************************
                  Iteration          Convergence                     Energy [au]
 *******************************************************************************
                          1        0.437545E-02                  -0.424159432110
                          2        0.531356E-03                  -0.424178438213
                          3        0.259176E-06                  -0.424178722480

 Energy components [Hartree]           Total Energy ::           -0.424178722480
                                        Band Energy ::           -0.199015229016
                                     Kinetic Energy ::            0.464007633961
                                   Potential Energy ::           -0.888186356441
                                      Virial (-V/T) ::            1.914163240935
                                        Core Energy ::           -0.479160803564
                                          XC Energy ::           -0.244352904054
                                     Coulomb Energy ::            0.299334985138
                       Total Pseudopotential Energy ::           -0.962295316385
                       Local Pseudopotential Energy ::           -0.962295316385
                    Nonlocal Pseudopotential Energy ::            0.000000000000
                                        Confinement ::            0.191268788606

 Orbital energies  State     L     Occupation   Energy[a.u.]          Energy[eV]

                       1     0          1.000      -0.199015           -5.415480


 Total Electron Density at R=0:                                         0.242907
 PAO| Made initial guess for matrix_X with norm:   27.712812921102035     

     Lanczos converged:  F threshold:   0.100E-02
     Est. extremal eigenvalues:    0.616E+01   0.891E-01
     Est. condition number :    0.692E+02

 Order=           3
     NS sqrt iter    1 1.00000000   0.150E+01       0.025     2312.531
     NS sqrt iter    2 1.00000000   0.818E+00       0.038     2978.238
     NS sqrt iter    3 1.00000000   0.329E+00       0.038     3015.242
     NS sqrt iter    4 1.00000000   0.919E-01       0.038     2978.781
     NS sqrt iter    5 1.00000000   0.334E-02       0.038     2957.184
     NS sqrt iter    6 1.00000000   0.330E-06       0.033     2599.538
     Symmetrizing Results
     Final NS sqrt iter    6 1.00000000   0.183E-12

 PAO| Read restart DM 64H2O_ref_LS_DM_SPIN_1_RESTART.dm with checksum:    6193.7120475076390     
 PAO| Quickstep energy from restart density:  -1103.1225470466475     
 PAO| ======================= Iteration:         1 =============================

     Lanczos converged:  F threshold:   0.100E-02
     Est. extremal eigenvalues:    0.616E+01   0.891E-01
     Est. condition number :    0.692E+02

 Order=           3
     NS sqrt iter    1 1.00000000   0.150E+01       0.024     2384.757
     NS sqrt iter    2 1.00000000   0.818E+00       0.037     3062.242
     NS sqrt iter    3 1.00000000   0.329E+00       0.037     3092.107
     NS sqrt iter    4 1.00000000   0.919E-01       0.036     3118.538
     NS sqrt iter    5 1.00000000   0.334E-02       0.037     3082.641
     NS sqrt iter    6 1.00000000   0.330E-06       0.030     2796.274
     Symmetrizing Results
     Final NS sqrt iter    6 1.00000000   0.183E-12

     Est. extremal eigenvalues     -0.81875     2.61382  converged:  T
     TRS4 it   1 1.00000000   0.273E+02       0.008     1868.431   0.100E-11
     TRS4 it   2 1.00000000   0.236E+02       0.014     2009.491   0.100E-11
     TRS4 it   3 1.00000000   0.160E+02       0.014     2028.960   0.100E-11
     TRS4 it   4 1.00000000   0.997E+01       0.014     1983.090   0.100E-11
     TRS4 it   5 1.00000000   0.481E+01       0.013     2202.368   0.100E-11
     TRS4 it   6 1.00000000   0.161E+01       0.013     2193.735   0.100E-11
     TRS4 it   7 1.00000000   0.326E+00       0.014     2069.301   0.100E-11
     TRS4 it   8 1.00000000   0.246E-01       0.013     2160.790   0.100E-11
     TRS4 it   9 1.00000000   0.240E-03       0.013     2125.018   0.100E-11
     TRS4 it  10 1.00000000   0.269E-07       0.013     2194.361   0.100E-11
     TRS4 it  11 1.00000000   0.124E-13       0.014     2105.455   0.100E-11
     Final TRS4 iteration   11 1.00000000   0.124E-13
     Chemical potential (mu):       0.01065
 
 PAO| energy:  -186.48641885166640      penalty:   1.4402874496105503E-031
 PAO|CG| warming up with steepest descent
 PAO|CG| beta:    0.0000000000000000     
 PAO| norm of gradient:   3.9894886134325409     
 PAO|LS| adapt:  T F F
 PAO|LS| adapt: scan_steps:    0.0000000000000000        0.0000000000000000        0.0000000000000000     
 PAO|LS| adapt: energies:   -186.48641885166640        0.0000000000000000        0.0000000000000000     
 PAO| ======================= Iteration:         2 =============================

     Lanczos converged:  F threshold:   0.100E-02
     Est. extremal eigenvalues:    0.595E+01   0.965E-01
     Est. condition number :    0.616E+02

 Order=           3
     NS sqrt iter    1 1.00000000   0.146E+01       0.023     2443.763
     NS sqrt iter    2 1.00000000   0.790E+00       0.038     2996.601
     NS sqrt iter    3 1.00000000   0.309E+00       0.037     3090.201
     NS sqrt iter    4 1.00000000   0.773E-01       0.037     3085.811
     NS sqrt iter    5 1.00000000   0.208E-02       0.037     3091.324
     NS sqrt iter    6 1.00000000   0.919E-07       0.031     2700.010
     Symmetrizing Results
     Final NS sqrt iter    6 1.00000000   0.308E-13

     Est. extremal eigenvalues     -0.82191     2.60553  converged:  T
     TRS4 it   1 1.00000000   0.275E+02       0.007     1924.202   0.100E-11
     TRS4 it   2 1.00000000   0.235E+02       0.014     2016.628   0.100E-11
     TRS4 it   3 1.00000000   0.159E+02       0.014     2015.139   0.100E-11
     TRS4 it   4 1.00000000   0.976E+01       0.014     2039.800   0.100E-11
     TRS4 it   5 1.00000000   0.459E+01       0.014     2014.143   0.100E-11
     TRS4 it   6 1.00000000   0.148E+01       0.014     2001.059   0.100E-11
     TRS4 it   7 1.00000000   0.279E+00       0.014     2014.207   0.100E-11
     TRS4 it   8 1.00000000   0.176E-01       0.014     2006.723   0.100E-11
     TRS4 it   9 1.00000000   0.112E-03       0.014     2039.145   0.100E-11
     TRS4 it  10 1.00000000   0.669E-08       0.014     2019.623   0.100E-11
     TRS4 it  11 1.00000000   0.888E-14       0.014     2013.015   0.100E-11
     Final TRS4 iteration   11 1.00000000   0.888E-14
     Chemical potential (mu):       0.01652
 
 PAO| energy:  -187.94709918375196      penalty:   4.7477184343458436E-007
 PAO|LS| adapt:  T T F
 PAO|LS| adapt: scan_steps:    0.0000000000000000       0.10000000000000001        0.0000000000000000     
 PAO|LS| adapt: energies:   -186.48641885166640       -187.94709918375196        0.0000000000000000     
 PAO| ======================= Iteration:         3 =============================

     Lanczos converged:  F threshold:   0.100E-02
     Est. extremal eigenvalues:    0.574E+01   0.103E+00
     Est. condition number :    0.556E+02

 Order=           3
     NS sqrt iter    1 1.00000000   0.142E+01       0.023     2528.054
     NS sqrt iter    2 1.00000000   0.761E+00       0.039     2898.343
     NS sqrt iter    3 1.00000000   0.289E+00       0.037     3025.096
     NS sqrt iter    4 1.00000000   0.647E-01       0.038     2995.231
     NS sqrt iter    5 1.00000000   0.131E-02       0.038     2988.029
     NS sqrt iter    6 1.00000000   0.268E-07       0.033     2603.103
     Symmetrizing Results
     Final NS sqrt iter    6 1.00000000   0.379E-14

     Est. extremal eigenvalues     -0.82495     2.60055  converged:  T
     TRS4 it   1 1.00000000   0.277E+02       0.007     1943.279   0.100E-11
     TRS4 it   2 1.00000000   0.235E+02       0.015     1950.983   0.100E-11
     TRS4 it   3 1.00000000   0.158E+02       0.014     1982.083   0.100E-11
     TRS4 it   4 1.00000000   0.957E+01       0.015     1945.121   0.100E-11
     TRS4 it   5 1.00000000   0.439E+01       0.013     2235.083   0.100E-11
     TRS4 it   6 1.00000000   0.135E+01       0.013     2110.356   0.100E-11
     TRS4 it   7 1.00000000   0.236E+00       0.013     2124.346   0.100E-11
     TRS4 it   8 1.00000000   0.122E-01       0.013     2155.348   0.100E-11
     TRS4 it   9 1.00000000   0.489E-04       0.013     2155.462   0.100E-11
     TRS4 it  10 1.00000000   0.146E-08       0.013     2183.139   0.100E-11
     TRS4 it  11 1.00000000   0.178E-14       0.013     2158.866   0.100E-11
     Final TRS4 iteration   11 1.00000000   0.178E-14
     Chemical potential (mu):       0.02320
 
 PAO| energy:  -189.12963127478869      penalty:   7.5963494950114867E-006
 PAO|LS| adapt:  T T F
 PAO|LS| adapt: scan_steps:    0.0000000000000000       0.20000000000000001        0.0000000000000000     
 PAO|LS| adapt: energies:   -186.48641885166640       -189.12963127478869        0.0000000000000000     
 PAO| ======================= Iteration:         4 =============================

     Lanczos converged:  F threshold:   0.100E-02
     Est. extremal eigenvalues:    0.533E+01   0.115E+00
     Est. condition number :    0.464E+02

 Order=           3
     NS sqrt iter    1 1.00000000   0.134E+01       0.021     2701.384
     NS sqrt iter    2 1.00000000   0.705E+00       0.035     3262.324
     NS sqrt iter    3 1.00000000   0.252E+00       0.035     3231.525
     NS sqrt iter    4 1.00000000   0.454E-01       0.034     3319.981
     NS sqrt iter    5 1.00000000   0.540E-03       0.037     3088.117
     NS sqrt iter    6 1.00000000   0.238E-08       0.029     2848.196
     Symmetrizing Results
     Final NS sqrt iter    6 1.00000000   0.161E-13

     Est. extremal eigenvalues     -0.83009     2.60282  converged:  T
     TRS4 it   1 1.00000000   0.281E+02       0.007     2084.013   0.100E-11
     TRS4 it   2 1.00000000   0.235E+02       0.013     2124.181   0.100E-11
     TRS4 it   3 1.00000000   0.156E+02       0.015     1887.859   0.100E-11
     TRS4 it   4 1.00000000   0.924E+01       0.015     1838.858   0.100E-11
     TRS4 it   5 1.00000000   0.403E+01       0.016     1818.764   0.100E-11
     TRS4 it   6 1.00000000   0.114E+01       0.015     1844.269   0.100E-11
     TRS4 it   7 1.00000000   0.169E+00       0.015     1837.287   0.100E-11
     TRS4 it   8 1.00000000   0.575E-02       0.016     1831.617   0.100E-11
     TRS4 it   9 1.00000000   0.888E-05       0.014     2087.930   0.100E-11
     TRS4 it  10 1.00000000   0.553E-10       0.014     2062.928   0.100E-11
     Final TRS4 iteration   10 1.00000000   0.553E-10
     Chemical potential (mu):       0.04139
 
 PAO| energy:  -190.61876689638504      penalty:   1.2154159192064804E-004
 PAO|LS| Need extra step
 PAO|LS| adapt:  T T F
 PAO|LS| adapt: scan_steps:    0.0000000000000000       0.40000000000000002        0.0000000000000000     
 PAO|LS| adapt: energies:   -186.48641885166640       -190.61876689638504        0.0000000000000000     
 PAO| ======================= Iteration:         5 =============================

     Lanczos converged:  T threshold:   0.100E-02
     Est. extremal eigenvalues:    0.466E+01   0.130E+00
     Est. condition number :    0.359E+02

 Order=           3
     NS sqrt iter    1 1.00000000   0.121E+01       0.024     2416.352
     NS sqrt iter    2 1.00000000   0.614E+00       0.036     3167.193
     NS sqrt iter    3 1.00000000   0.194E+00       0.038     2994.225
     NS sqrt iter    4 1.00000000   0.236E-01       0.037     3060.866
     NS sqrt iter    5 1.00000000   0.101E-03       0.038     2952.353
     NS sqrt iter    6 1.00000000   0.221E-10       0.020     2041.538
     Symmetrizing Results
     Final NS sqrt iter    6 1.00000000   0.213E-11

     Est. extremal eigenvalues     -0.83403     2.60567  converged:  T
     TRS4 it   1 1.00000000   0.287E+02       0.008     1864.766   0.100E-11
     TRS4 it   2 1.00000000   0.235E+02       0.015     1909.008   0.100E-11
     TRS4 it   3 1.00000000   0.153E+02       0.015     1914.972   0.100E-11
     TRS4 it   4 1.00000000   0.876E+01       0.015     1914.626   0.100E-11
     TRS4 it   5 1.00000000   0.352E+01       0.014     1962.936   0.100E-11
     TRS4 it   6 1.00000000   0.852E+00       0.014     1973.272   0.100E-11
     TRS4 it   7 1.00000000   0.935E-01       0.015     1958.682   0.100E-11
     TRS4 it   8 1.00000000   0.163E-02       0.014     2037.801   0.100E-11
     TRS4 it   9 1.00000000   0.669E-06       0.014     1967.342   0.100E-11
     TRS4 it  10 1.00000000   0.293E-12       0.014     2033.489   0.100E-11
     Final TRS4 iteration   10 1.00000000   0.293E-12
     Chemical potential (mu):       0.06367
 
 PAO| energy:  -190.22537307651766      penalty:   1.9446654707340723E-003
 PAO|LS| Need extra step
 PAO|LS| adapt:  T T T
 PAO|LS| adapt: scan_steps:    0.0000000000000000       0.40000000000000002       0.80000000000000004     
 PAO|LS| adapt: energies:   -186.48641885166640       -190.61876689638504       -190.22537307651766     
 PAO|LS| adapt: suggested step_size:   0.56523055608224648     
 PAO|LS| adapt: predicted energy  -191.00488532497144     
 PAO| ======================= Iteration:         6 =============================

     Lanczos converged:  T threshold:   0.100E-02
     Est. extremal eigenvalues:    0.502E+01   0.121E+00
     Est. condition number :    0.414E+02

 Order=           3
     NS sqrt iter    1 1.00000000   0.128E+01       0.023     2451.792
     NS sqrt iter    2 1.00000000   0.664E+00       0.037     3072.509
     NS sqrt iter    3 1.00000000   0.225E+00       0.037     3066.507
     NS sqrt iter    4 1.00000000   0.342E-01       0.037     3063.158
     NS sqrt iter    5 1.00000000   0.264E-03       0.037     3063.206
     NS sqrt iter    6 1.00000000   0.329E-09       0.030     2493.494
     Symmetrizing Results
     Final NS sqrt iter    6 1.00000000   0.333E-12

     Est. extremal eigenvalues     -0.83292     2.60616  converged:  T
     TRS4 it   1 1.00000000   0.284E+02       0.007     1974.783   0.100E-11
     TRS4 it   2 1.00000000   0.235E+02       0.014     2023.089   0.100E-11
     TRS4 it   3 1.00000000   0.155E+02       0.014     1987.640   0.100E-11
     TRS4 it   4 1.00000000   0.902E+01       0.014     2064.499   0.100E-11
     TRS4 it   5 1.00000000   0.379E+01       0.014     1970.606   0.100E-11
     TRS4 it   6 1.00000000   0.999E+00       0.015     1887.457   0.100E-11
     TRS4 it   7 1.00000000   0.129E+00       0.014     1976.589   0.100E-11
     TRS4 it   8 1.00000000   0.322E-02       0.014     2041.572   0.100E-11
     TRS4 it   9 1.00000000   0.259E-05       0.014     2019.743   0.100E-11
     TRS4 it  10 1.00000000   0.470E-11       0.014     1977.398   0.100E-11
     Final TRS4 iteration   10 1.00000000   0.470E-11
     Chemical potential (mu):       0.05180
 
 PAO| energy:  -190.97787721046100      penalty:   4.8460454305776556E-004
 PAO|CG| warming up with steepest descent
 PAO|CG| beta:    0.0000000000000000     
 PAO| norm of gradient:   2.1104975841370752     
 PAO| energy improvement:  -4.4914583587946026     
 PAO| step      6                 -190.977877210  0.412E-02  0.565E+00     2.809
 PAO|LS| adapt:  T F F
 PAO|LS| adapt: scan_steps:    0.0000000000000000        0.0000000000000000        0.0000000000000000     
 PAO|LS| adapt: energies:   -190.97787721046100        0.0000000000000000        0.0000000000000000     
 PAO| ======================= Iteration:         7 =============================

     Lanczos converged:  T threshold:   0.100E-02
     Est. extremal eigenvalues:    0.487E+01   0.129E+00
     Est. condition number :    0.377E+02

 Order=           3
     NS sqrt iter    1 1.00000000   0.125E+01       0.024     2354.494
     NS sqrt iter    2 1.00000000   0.639E+00       0.037     3025.030
     NS sqrt iter    3 1.00000000   0.207E+00       0.037     3064.470
     NS sqrt iter    4 1.00000000   0.276E-01       0.037     3086.007
     NS sqrt iter    5 1.00000000   0.147E-03       0.037     3071.045
     NS sqrt iter    6 1.00000000   0.588E-10       0.025     2214.580
     Symmetrizing Results
     Final NS sqrt iter    6 1.00000000   0.209E-11

     Est. extremal eigenvalues     -0.83287     2.60012  converged:  T
     TRS4 it   1 1.00000000   0.285E+02       0.007     1947.745   0.100E-11
     TRS4 it   2 1.00000000   0.236E+02       0.014     2055.768   0.100E-11
     TRS4 it   3 1.00000000   0.156E+02       0.014     2075.485   0.100E-11
     TRS4 it   4 1.00000000   0.914E+01       0.014     2058.719   0.100E-11
     TRS4 it   5 1.00000000   0.388E+01       0.014     2041.518   0.100E-11
     TRS4 it   6 1.00000000   0.102E+01       0.014     2054.828   0.100E-11
     TRS4 it   7 1.00000000   0.131E+00       0.014     2016.055   0.100E-11
     TRS4 it   8 1.00000000   0.327E-02       0.014     2051.429   0.100E-11
     TRS4 it   9 1.00000000   0.268E-05       0.014     2050.761   0.100E-11
     TRS4 it  10 1.00000000   0.461E-11       0.014     2055.203   0.100E-11
     Final TRS4 iteration   10 1.00000000   0.461E-11
     Chemical potential (mu):       0.05399
 
 PAO| energy:  -190.07792747743798      penalty:   6.7843569271683508E-004
 PAO|LS| adapt:  T F T
 PAO|LS| adapt: scan_steps:    0.0000000000000000        0.0000000000000000       0.56523055608224648     
 PAO|LS| adapt: energies:   -190.97787721046100        0.0000000000000000       -190.07792747743798     
 PAO| ======================= Iteration:         8 =============================

     Lanczos converged:  T threshold:   0.100E-02
     Est. extremal eigenvalues:    0.494E+01   0.125E+00
     Est. condition number :    0.395E+02

 Order=           3
     NS sqrt iter    1 1.00000000   0.126E+01       0.023     2484.660
     NS sqrt iter    2 1.00000000   0.651E+00       0.037     3038.235
     NS sqrt iter    3 1.00000000   0.216E+00       0.037     3025.472
     NS sqrt iter    4 1.00000000   0.308E-01       0.039     2932.928
     NS sqrt iter    5 1.00000000   0.198E-03       0.037     3063.768
     NS sqrt iter    6 1.00000000   0.141E-09       0.030     2302.700
     Symmetrizing Results
     Final NS sqrt iter    6 1.00000000   0.120E-11

     Est. extremal eigenvalues     -0.83415     2.60357  converged:  T
     TRS4 it   1 1.00000000   0.284E+02       0.007     1951.565   0.100E-11
     TRS4 it   2 1.00000000   0.235E+02       0.014     2050.894   0.100E-11
     TRS4 it   3 1.00000000   0.155E+02       0.014     2047.882   0.100E-11
     TRS4 it   4 1.00000000   0.905E+01       0.014     2034.277   0.100E-11
     TRS4 it   5 1.00000000   0.381E+01       0.014     2041.947   0.100E-11
     TRS4 it   6 1.00000000   0.100E+01       0.014     2048.930   0.100E-11
     TRS4 it   7 1.00000000   0.129E+00       0.014     2029.950   0.100E-11
     TRS4 it   8 1.00000000   0.322E-02       0.014     2019.811   0.100E-11
     TRS4 it   9 1.00000000   0.261E-05       0.014     2041.508   0.100E-11
     TRS4 it  10 1.00000000   0.470E-11       0.014     2035.234   0.100E-11
     Final TRS4 iteration   10 1.00000000   0.470E-11
     Chemical potential (mu):       0.05178
 
 PAO| energy:  -191.36823894508962      penalty:   5.1367294311954487E-004
 PAO|LS| adapt:  T T T
 PAO|LS| adapt: scan_steps:    0.0000000000000000       0.28261527804112324       0.56523055608224648     
 PAO|LS| adapt: energies:   -190.97787721046100       -191.36823894508962       -190.07792747743798     
 PAO|LS| adapt: suggested step_size:   0.20694930571638409     
 PAO|LS| adapt: predicted energy  -191.42847593233299     
 PAO| ======================= Iteration:         9 =============================

     Lanczos converged:  T threshold:   0.100E-02
     Est. extremal eigenvalues:    0.496E+01   0.124E+00
     Est. condition number :    0.400E+02

 Order=           3
     NS sqrt iter    1 1.00000000   0.127E+01       0.023     2440.231
     NS sqrt iter    2 1.00000000   0.654E+00       0.037     3068.680
     NS sqrt iter    3 1.00000000   0.218E+00       0.037     3033.367
     NS sqrt iter    4 1.00000000   0.317E-01       0.037     3042.918
     NS sqrt iter    5 1.00000000   0.214E-03       0.038     2963.947
     NS sqrt iter    6 1.00000000   0.177E-09       0.030     2361.839
     Symmetrizing Results
     Final NS sqrt iter    6 1.00000000   0.967E-12

     Est. extremal eigenvalues     -0.83408     2.60434  converged:  T
     TRS4 it   1 1.00000000   0.284E+02       0.008     1776.348   0.100E-11
     TRS4 it   2 1.00000000   0.235E+02       0.014     1977.596   0.100E-11
     TRS4 it   3 1.00000000   0.155E+02       0.015     1873.224   0.100E-11
     TRS4 it   4 1.00000000   0.903E+01       0.015     1952.032   0.100E-11
     TRS4 it   5 1.00000000   0.380E+01       0.015     1902.274   0.100E-11
     TRS4 it   6 1.00000000   0.100E+01       0.015     1841.324   0.100E-11
     TRS4 it   7 1.00000000   0.129E+00       0.014     2035.815   0.100E-11
     TRS4 it   8 1.00000000   0.321E-02       0.015     1948.252   0.100E-11
     TRS4 it   9 1.00000000   0.260E-05       0.014     2005.628   0.100E-11
     TRS4 it  10 1.00000000   0.475E-11       0.014     1968.795   0.100E-11
     Final TRS4 iteration   10 1.00000000   0.475E-11
     Chemical potential (mu):       0.05157
 
 PAO| energy:  -191.43282739526953      penalty:   4.9687702730260588E-004
 PAO|CG| trace_G_new   0.73463098451636066     
 PAO|CG| trace_G_prev    4.4542000526484307     
 PAO|CG| trace_G_mix   -4.4657572182452351E-002
 PAO|CG| trace_D    4.4542000526484307     
 PAO|CG| trace_D_Gnew   4.4657572182452351E-002
 PAO|CG| beta:   0.17495589499520894     
 PAO| norm of gradient:  0.85710616875411683     
 PAO| energy improvement: -0.45495018480852423     
 PAO| step      9                 -191.432827395  0.167E-02  0.207E+00     1.710
 PAO|LS| adapt:  T F F
 PAO|LS| adapt: scan_steps:    0.0000000000000000        0.0000000000000000        0.0000000000000000     
 PAO|LS| adapt: energies:   -191.43282739526953        0.0000000000000000        0.0000000000000000     
 PAO| ======================= Iteration:        10 =============================

     Lanczos converged:  T threshold:   0.100E-02
     Est. extremal eigenvalues:    0.491E+01   0.128E+00
     Est. condition number :    0.385E+02

 Order=           3
     NS sqrt iter    1 1.00000000   0.126E+01       0.024     2367.890
     NS sqrt iter    2 1.00000000   0.646E+00       0.038     2993.572
     NS sqrt iter    3 1.00000000   0.213E+00       0.038     2954.727
     NS sqrt iter    4 1.00000000   0.294E-01       0.038     2955.397
     NS sqrt iter    5 1.00000000   0.171E-03       0.038     2958.694
     NS sqrt iter    6 1.00000000   0.900E-10       0.028     2189.796
     Symmetrizing Results
     Final NS sqrt iter    6 1.00000000   0.173E-11

     Est. extremal eigenvalues     -0.83466     2.58919  converged:  T
     TRS4 it   1 1.00000000   0.284E+02       0.008     1803.010   0.100E-11
     TRS4 it   2 1.00000000   0.234E+02       0.014     2034.597   0.100E-11
     TRS4 it   3 1.00000000   0.155E+02       0.015     1930.613   0.100E-11
     TRS4 it   4 1.00000000   0.901E+01       0.015     1880.197   0.100E-11
     TRS4 it   5 1.00000000   0.378E+01       0.015     1909.628   0.100E-11
     TRS4 it   6 1.00000000   0.987E+00       0.015     1931.073   0.100E-11
     TRS4 it   7 1.00000000   0.125E+00       0.015     1883.202   0.100E-11
     TRS4 it   8 1.00000000   0.303E-02       0.014     1969.937   0.100E-11
     TRS4 it   9 1.00000000   0.232E-05       0.015     1899.334   0.100E-11
     TRS4 it  10 1.00000000   0.384E-11       0.014     1980.758   0.100E-11
     Final TRS4 iteration   10 1.00000000   0.384E-11
     Chemical potential (mu):       0.05244
 
 PAO| energy:  -191.53504234543001      penalty:   4.9941778650745556E-004
 PAO|LS| adapt:  T T F
 PAO|LS| adapt: scan_steps:    0.0000000000000000       0.20694930571638409        0.0000000000000000     
 PAO|LS| adapt: energies:   -191.43282739526953       -191.53504234543001        0.0000000000000000     
 PAO| ======================= Iteration:        11 =============================

     Lanczos converged:  T threshold:   0.100E-02
     Est. extremal eigenvalues:    0.486E+01   0.131E+00
     Est. condition number :    0.370E+02

 Order=           3
     NS sqrt iter    1 1.00000000   0.125E+01       0.024     2386.201
     NS sqrt iter    2 1.00000000   0.637E+00       0.038     2992.532
     NS sqrt iter    3 1.00000000   0.207E+00       0.038     2992.520
     NS sqrt iter    4 1.00000000   0.273E-01       0.038     2984.887
     NS sqrt iter    5 1.00000000   0.137E-03       0.038     2987.609
     NS sqrt iter    6 1.00000000   0.454E-10       0.024     2069.986
     Symmetrizing Results
     Final NS sqrt iter    6 1.00000000   0.222E-11

     Est. extremal eigenvalues     -0.83488     2.57381  converged:  T
     TRS4 it   1 1.00000000   0.284E+02       0.008     1782.032   0.100E-11
     TRS4 it   2 1.00000000   0.234E+02       0.015     1962.326   0.100E-11
     TRS4 it   3 1.00000000   0.155E+02       0.015     1917.223   0.100E-11
     TRS4 it   4 1.00000000   0.899E+01       0.015     1883.384   0.100E-11
     TRS4 it   5 1.00000000   0.375E+01       0.014     2029.170   0.100E-11
     TRS4 it   6 1.00000000   0.972E+00       0.015     1947.776   0.100E-11
     TRS4 it   7 1.00000000   0.121E+00       0.014     1998.657   0.100E-11
     TRS4 it   8 1.00000000   0.284E-02       0.014     1975.899   0.100E-11
     TRS4 it   9 1.00000000   0.204E-05       0.015     1927.124   0.100E-11
     TRS4 it  10 1.00000000   0.290E-11       0.014     2037.316   0.100E-11
     Final TRS4 iteration   10 1.00000000   0.290E-11
     Chemical potential (mu):       0.05339
 
 PAO| energy:  -191.54347197558727      penalty:   5.1214447404748721E-004
 PAO|LS| adapt:  T T F
 PAO|LS| adapt: scan_steps:    0.0000000000000000       0.41389861143276818        0.0000000000000000     
 PAO|LS| adapt: energies:   -191.43282739526953       -191.54347197558727        0.0000000000000000     
 PAO| ======================= Iteration:        12 =============================

     Lanczos converged:  F threshold:   0.100E-02
     Est. extremal eigenvalues:    0.476E+01   0.138E+00
     Est. condition number :    0.346E+02

 Order=           3
     NS sqrt iter    1 1.00000000   0.123E+01       0.024     2339.412
     NS sqrt iter    2 1.00000000   0.621E+00       0.038     2992.740
     NS sqrt iter    3 1.00000000   0.196E+00       0.038     2982.207
     NS sqrt iter    4 1.00000000   0.234E-01       0.038     2969.326
     NS sqrt iter    5 1.00000000   0.864E-04       0.038     2983.659
     NS sqrt iter    6 1.00000000   0.112E-10       0.017     1963.487
     Symmetrizing Results
     Final NS sqrt iter    6 1.00000000   0.171E-11

     Est. extremal eigenvalues     -0.83424     2.55157  converged:  T
     TRS4 it   1 1.00000000   0.283E+02       0.008     1857.866   0.100E-11
     TRS4 it   2 1.00000000   0.232E+02       0.015     1922.695   0.100E-11
     TRS4 it   3 1.00000000   0.154E+02       0.015     1886.293   0.100E-11
     TRS4 it   4 1.00000000   0.892E+01       0.014     2003.292   0.100E-11
     TRS4 it   5 1.00000000   0.369E+01       0.015     1918.682   0.100E-11
     TRS4 it   6 1.00000000   0.939E+00       0.015     1956.992   0.100E-11
     TRS4 it   7 1.00000000   0.113E+00       0.015     1909.881   0.100E-11
     TRS4 it   8 1.00000000   0.245E-02       0.015     1894.405   0.100E-11
     TRS4 it   9 1.00000000   0.153E-05       0.014     1973.391   0.100E-11
     TRS4 it  10 1.00000000   0.169E-11       0.015     1931.743   0.100E-11
     Final TRS4 iteration   10 1.00000000   0.169E-11
     Chemical potential (mu):       0.05546
 
 PAO| energy:  -191.29532153766476      penalty:   5.7531471165579620E-004
 PAO|LS| Need extra step
 PAO|LS| adapt:  T T T
 PAO|LS| adapt: scan_steps:    0.0000000000000000       0.41389861143276818       0.82779722286553636     
 PAO|LS| adapt: energies:   -191.43282739526953       -191.54347197558727       -191.29532153766476     
 PAO|LS| adapt: suggested step_size:   0.33458663574589315     
 PAO|LS| adapt: predicted energy  -191.55005925380826     
 PAO| ======================= Iteration:        13 =============================

     Lanczos converged:  T threshold:   0.100E-02
     Est. extremal eigenvalues:    0.488E+01   0.130E+00
     Est. condition number :    0.376E+02

 Order=           3
     NS sqrt iter    1 1.00000000   0.125E+01       0.024     2349.938
     NS sqrt iter    2 1.00000000   0.641E+00       0.038     3002.109
     NS sqrt iter    3 1.00000000   0.209E+00       0.038     2972.724
     NS sqrt iter    4 1.00000000   0.281E-01       0.038     2980.701
     NS sqrt iter    5 1.00000000   0.149E-03       0.038     2993.035
     NS sqrt iter    6 1.00000000   0.591E-10       0.026     2084.140
     Symmetrizing Results
     Final NS sqrt iter    6 1.00000000   0.214E-11

     Est. extremal eigenvalues     -0.83484     2.57972  converged:  T
     TRS4 it   1 1.00000000   0.284E+02       0.008     1842.289   0.100E-11
     TRS4 it   2 1.00000000   0.234E+02       0.015     1935.571   0.100E-11
     TRS4 it   3 1.00000000   0.155E+02       0.014     1980.767   0.100E-11
     TRS4 it   4 1.00000000   0.900E+01       0.015     1859.502   0.100E-11
     TRS4 it   5 1.00000000   0.376E+01       0.014     1987.707   0.100E-11
     TRS4 it   6 1.00000000   0.978E+00       0.014     1992.964   0.100E-11
     TRS4 it   7 1.00000000   0.123E+00       0.015     1921.036   0.100E-11
     TRS4 it   8 1.00000000   0.291E-02       0.014     2055.794   0.100E-11
     TRS4 it   9 1.00000000   0.214E-05       0.015     1952.757   0.100E-11
     TRS4 it  10 1.00000000   0.327E-11       0.014     2014.462   0.100E-11
     Final TRS4 iteration   10 1.00000000   0.327E-11
     Chemical potential (mu):       0.05302
 
 PAO| energy:  -191.55107026489173      penalty:   5.0598059908235724E-004
 PAO|CG| trace_G_new   0.28788366626464656     
 PAO|CG| trace_G_prev   0.73463098451636066     
 PAO|CG| trace_G_mix   -1.2454415121071960E-002
 PAO|CG| trace_D   0.85534590039413783     
 PAO|CG| trace_D_Gnew   1.1737354206320844E-002
 PAO|CG| beta:   0.40882849718548708     
 PAO| norm of gradient:  0.53654791609384389     
 PAO| energy improvement: -0.11824286962220754     
 PAO| step     13                 -191.551070265  0.105E-02  0.335E+00     2.284
 PAO|LS| adapt:  T F F
 PAO|LS| adapt: scan_steps:    0.0000000000000000        0.0000000000000000        0.0000000000000000     
 PAO|LS| adapt: energies:   -191.55107026489173        0.0000000000000000        0.0000000000000000     
 PAO| ======================= Iteration:        14 =============================

     Lanczos converged:  F threshold:   0.100E-02
     Est. extremal eigenvalues:    0.481E+01   0.132E+00
     Est. condition number :    0.363E+02

 Order=           3
     NS sqrt iter    1 1.00000000   0.124E+01       0.023     2427.864
     NS sqrt iter    2 1.00000000   0.630E+00       0.038     3005.922
     NS sqrt iter    3 1.00000000   0.202E+00       0.038     2982.610
     NS sqrt iter    4 1.00000000   0.258E-01       0.038     2958.747
     NS sqrt iter    5 1.00000000   0.118E-03       0.038     2987.633
     NS sqrt iter    6 1.00000000   0.304E-10       0.021     2026.397
     Symmetrizing Results
     Final NS sqrt iter    6 1.00000000   0.222E-11

     Est. extremal eigenvalues     -0.83531     2.57320  converged:  T
     TRS4 it   1 1.00000000   0.284E+02       0.008     1866.147   0.100E-11
     TRS4 it   2 1.00000000   0.234E+02       0.015     1912.507   0.100E-11
     TRS4 it   3 1.00000000   0.154E+02       0.014     2046.137   0.100E-11
     TRS4 it   4 1.00000000   0.894E+01       0.015     1924.237   0.100E-11
     TRS4 it   5 1.00000000   0.370E+01       0.014     2008.681   0.100E-11
     TRS4 it   6 1.00000000   0.947E+00       0.014     2028.385   0.100E-11
     TRS4 it   7 1.00000000   0.115E+00       0.015     1945.714   0.100E-11
     TRS4 it   8 1.00000000   0.256E-02       0.014     2021.116   0.100E-11
     TRS4 it   9 1.00000000   0.166E-05       0.014     1979.227   0.100E-11
     TRS4 it  10 1.00000000   0.197E-11       0.015     1924.884   0.100E-11
     Final TRS4 iteration   10 1.00000000   0.197E-11
     Chemical potential (mu):       0.05496
 
 PAO| energy:  -191.60585123707818      penalty:   5.0909182901638617E-004
 PAO|LS| adapt:  T T F
 PAO|LS| adapt: scan_steps:    0.0000000000000000       0.33458663574589315        0.0000000000000000     
 PAO|LS| adapt: energies:   -191.55107026489173       -191.60585123707818        0.0000000000000000     
 PAO| ======================= Iteration:        15 =============================

     Lanczos converged:  F threshold:   0.100E-02
     Est. extremal eigenvalues:    0.474E+01   0.135E+00
     Est. condition number :    0.352E+02

 Order=           3
     NS sqrt iter    1 1.00000000   0.122E+01       0.024     2397.345
     NS sqrt iter    2 1.00000000   0.619E+00       0.038     2961.882
     NS sqrt iter    3 1.00000000   0.196E+00       0.038     3003.743
     NS sqrt iter    4 1.00000000   0.238E-01       0.038     3003.072
     NS sqrt iter    5 1.00000000   0.941E-04       0.038     2969.783
     NS sqrt iter    6 1.00000000   0.159E-10       0.019     1882.830
     Symmetrizing Results
     Final NS sqrt iter    6 1.00000000   0.199E-11

     Est. extremal eigenvalues     -0.83538     2.57142  converged:  T
     TRS4 it   1 1.00000000   0.285E+02       0.008     1888.486   0.100E-11
     TRS4 it   2 1.00000000   0.233E+02       0.015     1926.815   0.100E-11
     TRS4 it   3 1.00000000   0.154E+02       0.014     1973.879   0.100E-11
     TRS4 it   4 1.00000000   0.888E+01       0.014     1966.831   0.100E-11
     TRS4 it   5 1.00000000   0.365E+01       0.015     1913.014   0.100E-11
     TRS4 it   6 1.00000000   0.918E+00       0.014     1983.407   0.100E-11
     TRS4 it   7 1.00000000   0.109E+00       0.015     1944.738   0.100E-11
     TRS4 it   8 1.00000000   0.227E-02       0.014     2005.379   0.100E-11
     TRS4 it   9 1.00000000   0.130E-05       0.014     1992.088   0.100E-11
     TRS4 it  10 1.00000000   0.121E-11       0.015     1935.832   0.100E-11
     Final TRS4 iteration   10 1.00000000   0.121E-11
     Chemical potential (mu):       0.05679
 
 PAO| energy:  -191.58203665479667      penalty:   5.2860634687128814E-004
 PAO|LS| adapt:  T T T
 PAO|LS| adapt: scan_steps:    0.0000000000000000       0.33458663574589315       0.66917327149178629     
 PAO|LS| adapt: energies:   -191.55107026489173       -191.60585123707818       -191.58203665479667     
 PAO|LS| adapt: suggested step_size:   0.40049965264374976     
 PAO|LS| adapt: predicted energy  -191.60737631904726     
 PAO| ======================= Iteration:        16 =============================

     Lanczos converged:  F threshold:   0.100E-02
     Est. extremal eigenvalues:    0.479E+01   0.133E+00
     Est. condition number :    0.361E+02

 Order=           3
     NS sqrt iter    1 1.00000000   0.123E+01       0.024     2419.381
     NS sqrt iter    2 1.00000000   0.627E+00       0.038     2957.348
     NS sqrt iter    3 1.00000000   0.201E+00       0.038     2965.528
     NS sqrt iter    4 1.00000000   0.254E-01       0.038     2999.745
     NS sqrt iter    5 1.00000000   0.113E-03       0.038     3009.267
     NS sqrt iter    6 1.00000000   0.267E-10       0.021     1978.607
     Symmetrizing Results
     Final NS sqrt iter    6 1.00000000   0.222E-11

     Est. extremal eigenvalues     -0.83535     2.57223  converged:  T
     TRS4 it   1 1.00000000   0.284E+02       0.008     1818.060   0.100E-11
     TRS4 it   2 1.00000000   0.233E+02       0.014     1966.530   0.100E-11
     TRS4 it   3 1.00000000   0.154E+02       0.015     1878.424   0.100E-11
     TRS4 it   4 1.00000000   0.893E+01       0.015     1854.488   0.100E-11
     TRS4 it   5 1.00000000   0.369E+01       0.014     2017.411   0.100E-11
     TRS4 it   6 1.00000000   0.941E+00       0.015     1948.805   0.100E-11
     TRS4 it   7 1.00000000   0.114E+00       0.014     2016.845   0.100E-11
     TRS4 it   8 1.00000000   0.250E-02       0.015     1937.816   0.100E-11
     TRS4 it   9 1.00000000   0.158E-05       0.015     1862.657   0.100E-11
     TRS4 it  10 1.00000000   0.181E-11       0.014     1973.803   0.100E-11
     Final TRS4 iteration   10 1.00000000   0.181E-11
     Chemical potential (mu):       0.05533
 
 PAO| energy:  -191.60731505160260      penalty:   5.1158411090168696E-004
 PAO|CG| trace_G_new   0.10376251317433063     
 PAO|CG| trace_G_prev   0.28788366626464656     
 PAO|CG| trace_G_mix    4.5041112310973130E-003
 PAO|CG| trace_D   0.42124968334517654     
 PAO|CG| trace_D_Gnew   8.5664393471830680E-004
 PAO|CG| beta:   0.34478650084991885     
 PAO| norm of gradient:  0.32212189179615008     
 PAO| energy improvement:  -5.6244786710863082E-002
 PAO| step     16                 -191.607315052  0.629E-03  0.400E+00     1.776
 PAO|LS| adapt:  T F F
 PAO|LS| adapt: scan_steps:    0.0000000000000000        0.0000000000000000        0.0000000000000000     
 PAO|LS| adapt: energies:   -191.60731505160260        0.0000000000000000        0.0000000000000000     
 PAO| ======================= Iteration:        17 =============================

     Lanczos converged:  F threshold:   0.100E-02
     Est. extremal eigenvalues:    0.476E+01   0.133E+00
     Est. condition number :    0.357E+02

 Order=           3
     NS sqrt iter    1 1.00000000   0.122E+01       0.024     2401.302
     NS sqrt iter    2 1.00000000   0.623E+00       0.038     3011.495
     NS sqrt iter    3 1.00000000   0.199E+00       0.038     2969.446
     NS sqrt iter    4 1.00000000   0.246E-01       0.038     2957.351
     NS sqrt iter    5 1.00000000   0.103E-03       0.038     2943.561
     NS sqrt iter    6 1.00000000   0.206E-10       0.019     1984.604
     Symmetrizing Results
     Final NS sqrt iter    6 1.00000000   0.214E-11

     Est. extremal eigenvalues     -0.83543     2.57302  converged:  T
     TRS4 it   1 1.00000000   0.285E+02       0.008     1822.281   0.100E-11
     TRS4 it   2 1.00000000   0.233E+02       0.015     1850.027   0.100E-11
     TRS4 it   3 1.00000000   0.154E+02       0.014     1994.696   0.100E-11
     TRS4 it   4 1.00000000   0.888E+01       0.014     1962.729   0.100E-11
     TRS4 it   5 1.00000000   0.365E+01       0.015     1950.562   0.100E-11
     TRS4 it   6 1.00000000   0.923E+00       0.014     1982.213   0.100E-11
     TRS4 it   7 1.00000000   0.110E+00       0.015     1949.832   0.100E-11
     TRS4 it   8 1.00000000   0.232E-02       0.015     1953.263   0.100E-11
     TRS4 it   9 1.00000000   0.136E-05       0.015     1888.424   0.100E-11
     TRS4 it  10 1.00000000   0.136E-11       0.016     1821.668   0.100E-11
     Final TRS4 iteration   10 1.00000000   0.136E-11
     Chemical potential (mu):       0.05643
 
 PAO| energy:  -191.61086153969819      penalty:   5.0443052929508296E-004
 PAO|LS| adapt:  T T F
 PAO|LS| adapt: scan_steps:    0.0000000000000000       0.40049965264374976        0.0000000000000000     
 PAO|LS| adapt: energies:   -191.60731505160260       -191.61086153969819        0.0000000000000000     
 PAO| ======================= Iteration:        18 =============================

     Lanczos converged:  F threshold:   0.100E-02
     Est. extremal eigenvalues:    0.472E+01   0.134E+00
     Est. condition number :    0.353E+02

 Order=           3
     NS sqrt iter    1 1.00000000   0.122E+01       0.024     2420.010
     NS sqrt iter    2 1.00000000   0.618E+00       0.038     2978.707
     NS sqrt iter    3 1.00000000   0.196E+00       0.037     3040.146
     NS sqrt iter    4 1.00000000   0.239E-01       0.036     3177.866
     NS sqrt iter    5 1.00000000   0.944E-04       0.036     3188.740
     NS sqrt iter    6 1.00000000   0.160E-10       0.017     2076.124
     Symmetrizing Results
     Final NS sqrt iter    6 1.00000000   0.199E-11

     Est. extremal eigenvalues     -0.83531     2.57531  converged:  T
     TRS4 it   1 1.00000000   0.285E+02       0.008     1858.201   0.100E-11
     TRS4 it   2 1.00000000   0.233E+02       0.014     1984.804   0.100E-11
     TRS4 it   3 1.00000000   0.154E+02       0.014     2107.482   0.100E-11
     TRS4 it   4 1.00000000   0.884E+01       0.014     1973.464   0.100E-11
     TRS4 it   5 1.00000000   0.362E+01       0.014     2015.959   0.100E-11
     TRS4 it   6 1.00000000   0.905E+00       0.014     2038.354   0.100E-11
     TRS4 it   7 1.00000000   0.106E+00       0.014     2054.496   0.100E-11
     TRS4 it   8 1.00000000   0.215E-02       0.014     2030.754   0.100E-11
     TRS4 it   9 1.00000000   0.118E-05       0.014     2026.942   0.100E-11
     TRS4 it  10 1.00000000   0.102E-11       0.014     2041.276   0.100E-11
     Final TRS4 iteration   10 1.00000000   0.102E-11
     Chemical potential (mu):       0.05757
 
 PAO| energy:  -191.53838002492668      penalty:   5.0481169207253782E-004
 PAO|LS| adapt:  T T T
 PAO|LS| adapt: scan_steps:    0.0000000000000000       0.40049965264374976       0.80099930528749952     
 PAO|LS| adapt: energies:   -191.60731505160260       -191.61086153969819       -191.53838002492668     
 PAO|LS| adapt: suggested step_size:   0.21893198548464343     
 PAO|LS| adapt: predicted energy  -191.61867451275353     
 PAO| ======================= Iteration:        19 =============================

     Lanczos converged:  F threshold:   0.100E-02
     Est. extremal eigenvalues:    0.477E+01   0.133E+00
     Est. condition number :    0.358E+02

 Order=           3
     NS sqrt iter    1 1.00000000   0.123E+01       0.023     2452.217
     NS sqrt iter    2 1.00000000   0.625E+00       0.037     3089.226
     NS sqrt iter    3 1.00000000   0.200E+00       0.037     3075.114
     NS sqrt iter    4 1.00000000   0.250E-01       0.037     3061.367
     NS sqrt iter    5 1.00000000   0.107E-03       0.037     3060.435
     NS sqrt iter    6 1.00000000   0.231E-10       0.020     2013.117
     Symmetrizing Results
     Final NS sqrt iter    6 1.00000000   0.219E-11

     Est. extremal eigenvalues     -0.83542     2.57226  converged:  T
     TRS4 it   1 1.00000000   0.285E+02       0.008     1851.663   0.100E-11
     TRS4 it   2 1.00000000   0.233E+02       0.014     2090.078   0.100E-11
     TRS4 it   3 1.00000000   0.154E+02       0.014     2040.465   0.100E-11
     TRS4 it   4 1.00000000   0.890E+01       0.014     2004.505   0.100E-11
     TRS4 it   5 1.00000000   0.367E+01       0.014     2030.772   0.100E-11
     TRS4 it   6 1.00000000   0.931E+00       0.014     2009.762   0.100E-11
     TRS4 it   7 1.00000000   0.112E+00       0.014     1990.087   0.100E-11
     TRS4 it   8 1.00000000   0.240E-02       0.014     2030.608   0.100E-11
     TRS4 it   9 1.00000000   0.146E-05       0.014     2033.297   0.100E-11
     TRS4 it  10 1.00000000   0.153E-11       0.014     2053.243   0.100E-11
     Final TRS4 iteration   10 1.00000000   0.153E-11
     Chemical potential (mu):       0.05593
 
 PAO| energy:  -191.61865408943700      penalty:   5.0675476663451454E-004
 PAO|CG| trace_G_new    2.2201847239708673E-002
 PAO|CG| trace_G_prev   0.10376251317433063     
 PAO|CG| trace_G_mix   -2.5945674919750252E-004
 PAO|CG| trace_D   0.15324900125633145     
 PAO|CG| trace_D_Gnew  -6.1314483521593711E-005
 PAO|CG| beta:   0.21646838826242676     
 PAO| norm of gradient:  0.14900284305914660     
 PAO| energy improvement:  -1.1339037834403598E-002
 PAO| step     19                 -191.618654089  0.291E-03  0.219E+00     1.728
 PAO|LS| adapt:  T F F
 PAO|LS| adapt: scan_steps:    0.0000000000000000        0.0000000000000000        0.0000000000000000     
 PAO|LS| adapt: energies:   -191.61865408943700        0.0000000000000000        0.0000000000000000     
 PAO| ======================= Iteration:        20 =============================

     Lanczos converged:  F threshold:   0.100E-02
     Est. extremal eigenvalues:    0.477E+01   0.133E+00
     Est. condition number :    0.358E+02

 Order=           3
     NS sqrt iter    1 1.00000000   0.123E+01       0.023     2436.876
     NS sqrt iter    2 1.00000000   0.624E+00       0.038     2965.824
     NS sqrt iter    3 1.00000000   0.200E+00       0.038     2947.403
     NS sqrt iter    4 1.00000000   0.250E-01       0.039     2940.238
     NS sqrt iter    5 1.00000000   0.107E-03       0.038     2947.771
     NS sqrt iter    6 1.00000000   0.228E-10       0.020     1969.598
     Symmetrizing Results
     Final NS sqrt iter    6 1.00000000   0.219E-11

     Est. extremal eigenvalues     -0.83543     2.57197  converged:  T
     TRS4 it   1 1.00000000   0.285E+02       0.008     1848.608   0.100E-11
     TRS4 it   2 1.00000000   0.233E+02       0.015     1950.897   0.100E-11
     TRS4 it   3 1.00000000   0.154E+02       0.015     1948.208   0.100E-11
     TRS4 it   4 1.00000000   0.889E+01       0.015     1929.509   0.100E-11
     TRS4 it   5 1.00000000   0.366E+01       0.015     1914.541   0.100E-11
     TRS4 it   6 1.00000000   0.927E+00       0.015     1889.573   0.100E-11
     TRS4 it   7 1.00000000   0.111E+00       0.015     1934.232   0.100E-11
     TRS4 it   8 1.00000000   0.236E-02       0.014     1990.352   0.100E-11
     TRS4 it   9 1.00000000   0.142E-05       0.014     1969.058   0.100E-11
     TRS4 it  10 1.00000000   0.147E-11       0.015     1951.854   0.100E-11
     Final TRS4 iteration   10 1.00000000   0.147E-11
     Chemical potential (mu):       0.05612
 
 PAO| energy:  -191.62257936218032      penalty:   4.9710336790479304E-004
 PAO|LS| adapt:  T T F
 PAO|LS| adapt: scan_steps:    0.0000000000000000       0.21893198548464343        0.0000000000000000     
 PAO|LS| adapt: energies:   -191.61865408943700       -191.62257936218032        0.0000000000000000     
 PAO| ======================= Iteration:        21 =============================

     Lanczos converged:  F threshold:   0.100E-02
     Est. extremal eigenvalues:    0.476E+01   0.133E+00
     Est. condition number :    0.358E+02

 Order=           3
     NS sqrt iter    1 1.00000000   0.123E+01       0.024     2412.610
     NS sqrt iter    2 1.00000000   0.624E+00       0.039     2873.844
     NS sqrt iter    3 1.00000000   0.200E+00       0.038     2998.624
     NS sqrt iter    4 1.00000000   0.250E-01       0.038     2977.390
     NS sqrt iter    5 1.00000000   0.107E-03       0.038     3016.187
     NS sqrt iter    6 1.00000000   0.225E-10       0.019     2075.695
     Symmetrizing Results
     Final NS sqrt iter    6 1.00000000   0.219E-11

     Est. extremal eigenvalues     -0.83543     2.57183  converged:  T
     TRS4 it   1 1.00000000   0.285E+02       0.008     1862.715   0.100E-11
     TRS4 it   2 1.00000000   0.233E+02       0.014     2045.674   0.100E-11
     TRS4 it   3 1.00000000   0.154E+02       0.013     2124.901   0.100E-11
     TRS4 it   4 1.00000000   0.888E+01       0.014     2078.263   0.100E-11
     TRS4 it   5 1.00000000   0.365E+01       0.014     2003.689   0.100E-11
     TRS4 it   6 1.00000000   0.923E+00       0.014     1998.065   0.100E-11
     TRS4 it   7 1.00000000   0.110E+00       0.014     2011.083   0.100E-11
     TRS4 it   8 1.00000000   0.233E-02       0.014     2024.944   0.100E-11
     TRS4 it   9 1.00000000   0.138E-05       0.014     2020.614   0.100E-11
     TRS4 it  10 1.00000000   0.139E-11       0.014     2018.620   0.100E-11
     Final TRS4 iteration   10 1.00000000   0.139E-11
     Chemical potential (mu):       0.05630
 
 PAO| energy:  -191.62461369965558      penalty:   4.8788677942172436E-004
 PAO|LS| adapt:  T T F
 PAO|LS| adapt: scan_steps:    0.0000000000000000       0.43786397096928686        0.0000000000000000     
 PAO|LS| adapt: energies:   -191.61865408943700       -191.62461369965558        0.0000000000000000     
 PAO| ======================= Iteration:        22 =============================

     Lanczos converged:  F threshold:   0.100E-02
     Est. extremal eigenvalues:    0.476E+01   0.133E+00
     Est. condition number :    0.358E+02

 Order=           3
     NS sqrt iter    1 1.00000000   0.122E+01       0.022     2554.584
     NS sqrt iter    2 1.00000000   0.623E+00       0.034     3357.193
     NS sqrt iter    3 1.00000000   0.200E+00       0.034     3315.232
     NS sqrt iter    4 1.00000000   0.250E-01       0.036     3128.103
     NS sqrt iter    5 1.00000000   0.106E-03       0.034     3326.595
     NS sqrt iter    6 1.00000000   0.220E-10       0.018     2147.210
     Symmetrizing Results
     Final NS sqrt iter    6 1.00000000   0.219E-11

     Est. extremal eigenvalues     -0.83544     2.57180  converged:  T
     TRS4 it   1 1.00000000   0.285E+02       0.007     2008.672   0.100E-11
     TRS4 it   2 1.00000000   0.233E+02       0.014     2070.892   0.100E-11
     TRS4 it   3 1.00000000   0.154E+02       0.014     2094.173   0.100E-11
     TRS4 it   4 1.00000000   0.886E+01       0.013     2234.915   0.100E-11
     TRS4 it   5 1.00000000   0.363E+01       0.013     2152.472   0.100E-11
     TRS4 it   6 1.00000000   0.916E+00       0.013     2118.943   0.100E-11
     TRS4 it   7 1.00000000   0.109E+00       0.013     2223.452   0.100E-11
     TRS4 it   8 1.00000000   0.226E-02       0.013     2113.517   0.100E-11
     TRS4 it   9 1.00000000   0.130E-05       0.013     2183.331   0.100E-11
     TRS4 it  10 1.00000000   0.124E-11       0.014     2041.557   0.100E-11
     Final TRS4 iteration   10 1.00000000   0.124E-11
     Chemical potential (mu):       0.05668
 
 PAO| energy:  -191.62292315806283      penalty:   4.7073116319614296E-004
 PAO|LS| Need extra step
 PAO|LS| adapt:  T T T
 PAO|LS| adapt: scan_steps:    0.0000000000000000       0.43786397096928686       0.87572794193857373     
 PAO|LS| adapt: energies:   -191.61865408943700       -191.62461369965558       -191.62292315806283     
 PAO|LS| adapt: suggested step_size:   0.56003614395006307     
 PAO|LS| adapt: predicted energy  -191.62491148699664     
 PAO| ======================= Iteration:        23 =============================

     Lanczos converged:  F threshold:   0.100E-02
     Est. extremal eigenvalues:    0.476E+01   0.133E+00
     Est. condition number :    0.358E+02

 Order=           3
     NS sqrt iter    1 1.00000000   0.122E+01       0.021     2683.470
     NS sqrt iter    2 1.00000000   0.624E+00       0.035     3236.957
     NS sqrt iter    3 1.00000000   0.200E+00       0.035     3246.102
     NS sqrt iter    4 1.00000000   0.250E-01       0.038     2997.506
     NS sqrt iter    5 1.00000000   0.107E-03       0.037     3087.629
     NS sqrt iter    6 1.00000000   0.224E-10       0.018     2143.757
     Symmetrizing Results
     Final NS sqrt iter    6 1.00000000   0.220E-11

     Est. extremal eigenvalues     -0.83544     2.57180  converged:  T
     TRS4 it   1 1.00000000   0.285E+02       0.007     1906.174   0.100E-11
     TRS4 it   2 1.00000000   0.233E+02       0.014     2031.885   0.100E-11
     TRS4 it   3 1.00000000   0.154E+02       0.014     2062.059   0.100E-11
     TRS4 it   4 1.00000000   0.887E+01       0.015     1935.157   0.100E-11
     TRS4 it   5 1.00000000   0.365E+01       0.014     2001.419   0.100E-11
     TRS4 it   6 1.00000000   0.921E+00       0.014     2002.849   0.100E-11
     TRS4 it   7 1.00000000   0.110E+00       0.014     2029.645   0.100E-11
     TRS4 it   8 1.00000000   0.231E-02       0.014     2013.459   0.100E-11
     TRS4 it   9 1.00000000   0.135E-05       0.014     2024.161   0.100E-11
     TRS4 it  10 1.00000000   0.132E-11       0.014     2013.062   0.100E-11
     Final TRS4 iteration   10 1.00000000   0.132E-11
     Chemical potential (mu):       0.05641
 
 PAO| energy:  -191.62491892178056      penalty:   4.8292989014906882E-004
 PAO|CG| trace_G_new    1.6312269473517958E-002
 PAO|CG| trace_G_prev    2.2201847239708673E-002
 PAO|CG| trace_G_mix    1.2054318579941088E-004
 PAO|CG| trace_D    2.9409420532535511E-002
 PAO|CG| trace_D_Gnew  -5.0648095559105286E-005
 PAO|CG| beta:   0.72929635596983822     
 PAO| norm of gradient:  0.12771949527585033     
 PAO| energy improvement:  -6.2648323435610109E-003
 PAO| step     23                 -191.624918922  0.249E-03  0.560E+00     2.192
 PAO|LS| adapt:  T F F
 PAO|LS| adapt: scan_steps:    0.0000000000000000        0.0000000000000000        0.0000000000000000     
 PAO|LS| adapt: energies:   -191.62491892178056        0.0000000000000000        0.0000000000000000     
 PAO| ======================= Iteration:        24 =============================

     Lanczos converged:  F threshold:   0.100E-02
     Est. extremal eigenvalues:    0.475E+01   0.133E+00
     Est. condition number :    0.357E+02

 Order=           3
     NS sqrt iter    1 1.00000000   0.122E+01       0.023     2424.907
     NS sqrt iter    2 1.00000000   0.623E+00       0.037     3096.457
     NS sqrt iter    3 1.00000000   0.199E+00       0.037     3062.437
     NS sqrt iter    4 1.00000000   0.250E-01       0.037     3064.816
     NS sqrt iter    5 1.00000000   0.106E-03       0.037     3067.904
     NS sqrt iter    6 1.00000000   0.219E-10       0.019     2041.456
     Symmetrizing Results
     Final NS sqrt iter    6 1.00000000   0.219E-11

     Est. extremal eigenvalues     -0.83545     2.57008  converged:  T
     TRS4 it   1 1.00000000   0.285E+02       0.007     1949.447   0.100E-11
     TRS4 it   2 1.00000000   0.233E+02       0.014     2054.095   0.100E-11
     TRS4 it   3 1.00000000   0.154E+02       0.014     2047.397   0.100E-11
     TRS4 it   4 1.00000000   0.885E+01       0.014     2060.638   0.100E-11
     TRS4 it   5 1.00000000   0.363E+01       0.014     2053.590   0.100E-11
     TRS4 it   6 1.00000000   0.913E+00       0.014     2042.680   0.100E-11
     TRS4 it   7 1.00000000   0.108E+00       0.014     2036.380   0.100E-11
     TRS4 it   8 1.00000000   0.224E-02       0.014     2057.624   0.100E-11
     TRS4 it   9 1.00000000   0.128E-05       0.014     2071.921   0.100E-11
     TRS4 it  10 1.00000000   0.121E-11       0.014     2052.732   0.100E-11
     Final TRS4 iteration   10 1.00000000   0.121E-11
     Chemical potential (mu):       0.05677
 
 PAO| energy:  -191.62808674831069      penalty:   4.4645276533415197E-004
 PAO|LS| adapt:  T T F
 PAO|LS| adapt: scan_steps:    0.0000000000000000       0.56003614395006307        0.0000000000000000     
 PAO|LS| adapt: energies:   -191.62491892178056       -191.62808674831069        0.0000000000000000     
 PAO| ======================= Iteration:        25 =============================

     Lanczos converged:  F threshold:   0.100E-02
     Est. extremal eigenvalues:    0.474E+01   0.133E+00
     Est. condition number :    0.357E+02

 Order=           3
     NS sqrt iter    1 1.00000000   0.122E+01       0.024     2379.297
     NS sqrt iter    2 1.00000000   0.621E+00       0.039     2939.465
     NS sqrt iter    3 1.00000000   0.199E+00       0.038     2989.863
     NS sqrt iter    4 1.00000000   0.249E-01       0.038     2984.174
     NS sqrt iter    5 1.00000000   0.106E-03       0.040     2842.173
     NS sqrt iter    6 1.00000000   0.215E-10       0.019     2016.287
     Symmetrizing Results
     Final NS sqrt iter    6 1.00000000   0.217E-11

     Est. extremal eigenvalues     -0.83546     2.56843  converged:  T
     TRS4 it   1 1.00000000   0.285E+02       0.007     1909.487   0.100E-11
     TRS4 it   2 1.00000000   0.233E+02       0.014     2044.485   0.100E-11
     TRS4 it   3 1.00000000   0.154E+02       0.014     2085.638   0.100E-11
     TRS4 it   4 1.00000000   0.883E+01       0.015     1863.784   0.100E-11
     TRS4 it   5 1.00000000   0.361E+01       0.014     2026.361   0.100E-11
     TRS4 it   6 1.00000000   0.905E+00       0.014     2054.769   0.100E-11
     TRS4 it   7 1.00000000   0.106E+00       0.014     2061.980   0.100E-11
     TRS4 it   8 1.00000000   0.218E-02       0.014     2051.262   0.100E-11
     TRS4 it   9 1.00000000   0.121E-05       0.014     2069.026   0.100E-11
     TRS4 it  10 1.00000000   0.106E-11       0.014     2074.071   0.100E-11
     Final TRS4 iteration   10 1.00000000   0.106E-11
     Chemical potential (mu):       0.05712
 
 PAO| energy:  -191.61908318343001      penalty:   4.1377164381472224E-004
 PAO|LS| adapt:  T T T
 PAO|LS| adapt: scan_steps:    0.0000000000000000       0.56003614395006307        1.1200722879001261     
 PAO|LS| adapt: energies:   -191.62491892178056       -191.62808674831069       -191.61908318343001     
 PAO|LS| adapt: suggested step_size:   0.42577768932334448     
 PAO|LS| adapt: predicted energy  -191.62843650127797     
 PAO| ======================= Iteration:        26 =============================

     Lanczos converged:  F threshold:   0.100E-02
     Est. extremal eigenvalues:    0.475E+01   0.133E+00
     Est. condition number :    0.357E+02

 Order=           3
     NS sqrt iter    1 1.00000000   0.122E+01       0.023     2481.209
     NS sqrt iter    2 1.00000000   0.623E+00       0.037     3082.035
     NS sqrt iter    3 1.00000000   0.200E+00       0.037     3075.792
     NS sqrt iter    4 1.00000000   0.250E-01       0.037     3068.612
     NS sqrt iter    5 1.00000000   0.106E-03       0.037     3055.004
     NS sqrt iter    6 1.00000000   0.220E-10       0.019     2057.817
     Symmetrizing Results
     Final NS sqrt iter    6 1.00000000   0.219E-11

     Est. extremal eigenvalues     -0.83545     2.57049  converged:  T
     TRS4 it   1 1.00000000   0.285E+02       0.008     1884.472   0.100E-11
     TRS4 it   2 1.00000000   0.233E+02       0.014     2053.892   0.100E-11
     TRS4 it   3 1.00000000   0.154E+02       0.014     2085.081   0.100E-11
     TRS4 it   4 1.00000000   0.886E+01       0.014     2069.158   0.100E-11
     TRS4 it   5 1.00000000   0.363E+01       0.014     2059.819   0.100E-11
     TRS4 it   6 1.00000000   0.915E+00       0.014     2057.273   0.100E-11
     TRS4 it   7 1.00000000   0.108E+00       0.014     2019.351   0.100E-11
     TRS4 it   8 1.00000000   0.226E-02       0.014     2006.418   0.100E-11
     TRS4 it   9 1.00000000   0.130E-05       0.014     2030.237   0.100E-11
     TRS4 it  10 1.00000000   0.117E-11       0.014     2088.730   0.100E-11
     Final TRS4 iteration   10 1.00000000   0.117E-11
     Chemical potential (mu):       0.05668
 
 PAO| energy:  -191.62842541305014      penalty:   4.5484520983061550E-004
 PAO|CG| trace_G_new    1.2861687532553602E-002
 PAO|CG| trace_G_prev    1.6312269473517958E-002
 PAO|CG| trace_G_mix    2.3183760819051229E-004
 PAO|CG| trace_D    3.2028226285150375E-002
 PAO|CG| trace_D_Gnew  -7.2315722458990230E-005
 PAO|CG| beta:   0.77425461520648198     
 PAO| norm of gradient:  0.11340938026703788     
 PAO| energy improvement:  -3.5064912695759176E-003
 PAO| step     26                 -191.628425413  0.222E-03  0.426E+00     1.717
 PAO|LS| adapt:  T F F
 PAO|LS| adapt: scan_steps:    0.0000000000000000        0.0000000000000000        0.0000000000000000     
 PAO|LS| adapt: energies:   -191.62842541305014        0.0000000000000000        0.0000000000000000     
 PAO| ======================= Iteration:        27 =============================

     Lanczos converged:  F threshold:   0.100E-02
     Est. extremal eigenvalues:    0.474E+01   0.133E+00
     Est. condition number :    0.357E+02

 Order=           3
     NS sqrt iter    1 1.00000000   0.122E+01       0.023     2460.205
     NS sqrt iter    2 1.00000000   0.621E+00       0.037     3065.224
     NS sqrt iter    3 1.00000000   0.199E+00       0.037     3063.999
     NS sqrt iter    4 1.00000000   0.249E-01       0.037     3051.031
     NS sqrt iter    5 1.00000000   0.106E-03       0.037     3041.660
     NS sqrt iter    6 1.00000000   0.218E-10       0.019     2059.500
     Symmetrizing Results
     Final NS sqrt iter    6 1.00000000   0.219E-11

     Est. extremal eigenvalues     -0.83546     2.56922  converged:  T
     TRS4 it   1 1.00000000   0.285E+02       0.008     1850.083   0.100E-11
     TRS4 it   2 1.00000000   0.233E+02       0.014     1989.453   0.100E-11
     TRS4 it   3 1.00000000   0.154E+02       0.014     1986.364   0.100E-11
     TRS4 it   4 1.00000000   0.884E+01       0.015     1955.594   0.100E-11
     TRS4 it   5 1.00000000   0.362E+01       0.015     1950.114   0.100E-11
     TRS4 it   6 1.00000000   0.907E+00       0.015     1877.696   0.100E-11
     TRS4 it   7 1.00000000   0.107E+00       0.015     1931.355   0.100E-11
     TRS4 it   8 1.00000000   0.219E-02       0.015     1935.013   0.100E-11
     TRS4 it   9 1.00000000   0.122E-05       0.015     1927.490   0.100E-11
     TRS4 it  10 1.00000000   0.107E-11       0.014     1994.538   0.100E-11
     Final TRS4 iteration   10 1.00000000   0.107E-11
     Chemical potential (mu):       0.05705
 
 PAO| energy:  -191.63101300744589      penalty:   4.1968360304165384E-004
 PAO|LS| adapt:  T T F
 PAO|LS| adapt: scan_steps:    0.0000000000000000       0.42577768932334448        0.0000000000000000     
 PAO|LS| adapt: energies:   -191.62842541305014       -191.63101300744589        0.0000000000000000     
 PAO| ======================= Iteration:        28 =============================

     Lanczos converged:  F threshold:   0.100E-02
     Est. extremal eigenvalues:    0.473E+01   0.133E+00
     Est. condition number :    0.356E+02

 Order=           3
     NS sqrt iter    1 1.00000000   0.121E+01       0.024     2354.151
     NS sqrt iter    2 1.00000000   0.620E+00       0.038     2981.906
     NS sqrt iter    3 1.00000000   0.198E+00       0.038     2983.277
     NS sqrt iter    4 1.00000000   0.248E-01       0.038     2978.878
     NS sqrt iter    5 1.00000000   0.106E-03       0.038     2974.421
     NS sqrt iter    6 1.00000000   0.216E-10       0.020     1964.495
     Symmetrizing Results
     Final NS sqrt iter    6 1.00000000   0.218E-11

     Est. extremal eigenvalues     -0.83546     2.56803  converged:  T
     TRS4 it   1 1.00000000   0.285E+02       0.008     1883.751   0.100E-11
     TRS4 it   2 1.00000000   0.233E+02       0.015     1946.695   0.100E-11
     TRS4 it   3 1.00000000   0.154E+02       0.015     1881.596   0.100E-11
     TRS4 it   4 1.00000000   0.882E+01       0.014     1998.614   0.100E-11
     TRS4 it   5 1.00000000   0.360E+01       0.015     1935.962   0.100E-11
     TRS4 it   6 1.00000000   0.900E+00       0.015     1945.980   0.100E-11
     TRS4 it   7 1.00000000   0.105E+00       0.015     1884.816   0.100E-11
     TRS4 it   8 1.00000000   0.213E-02       0.016     1829.606   0.100E-11
     TRS4 it   9 1.00000000   0.116E-05       0.015     1936.529   0.100E-11
     TRS4 it  10 1.00000000   0.970E-12       0.015     1877.143   0.100E-11
     Final TRS4 iteration   10 1.00000000   0.970E-12
     Chemical potential (mu):       0.05743
 
 PAO| energy:  -191.62772689486832      penalty:   3.8745792689077969E-004
 PAO|LS| adapt:  T T T
 PAO|LS| adapt: scan_steps:    0.0000000000000000       0.42577768932334448       0.85155537864668895     
 PAO|LS| adapt: energies:   -191.62842541305014       -191.63101300744589       -191.62772689486832     
 PAO|LS| adapt: suggested step_size:   0.40046033362641814     
 PAO|LS| adapt: predicted energy  -191.63102339117060     
 PAO| ======================= Iteration:        29 =============================

     Lanczos converged:  F threshold:   0.100E-02
     Est. extremal eigenvalues:    0.474E+01   0.133E+00
     Est. condition number :    0.357E+02

 Order=           3
     NS sqrt iter    1 1.00000000   0.122E+01       0.024     2356.229
     NS sqrt iter    2 1.00000000   0.621E+00       0.038     2942.858
     NS sqrt iter    3 1.00000000   0.199E+00       0.038     2972.879
     NS sqrt iter    4 1.00000000   0.249E-01       0.039     2934.285
     NS sqrt iter    5 1.00000000   0.106E-03       0.038     2992.568
     NS sqrt iter    6 1.00000000   0.218E-10       0.020     1977.326
     Symmetrizing Results
     Final NS sqrt iter    6 1.00000000   0.219E-11

     Est. extremal eigenvalues     -0.83546     2.56929  converged:  T
     TRS4 it   1 1.00000000   0.285E+02       0.008     1847.705   0.100E-11
     TRS4 it   2 1.00000000   0.233E+02       0.015     1898.137   0.100E-11
     TRS4 it   3 1.00000000   0.154E+02       0.014     2008.666   0.100E-11
     TRS4 it   4 1.00000000   0.884E+01       0.015     1916.833   0.100E-11
     TRS4 it   5 1.00000000   0.362E+01       0.014     1978.964   0.100E-11
     TRS4 it   6 1.00000000   0.908E+00       0.015     1958.485   0.100E-11
     TRS4 it   7 1.00000000   0.107E+00       0.015     1908.449   0.100E-11
     TRS4 it   8 1.00000000   0.220E-02       0.014     2049.585   0.100E-11
     TRS4 it   9 1.00000000   0.123E-05       0.015     1895.376   0.100E-11
[...]
     TRS4 it   5 1.00000000   0.415E+01       0.013     2235.168   0.100E-11
     TRS4 it   6 1.00000000   0.130E+01       0.013     2217.693   0.100E-11
     TRS4 it   7 1.00000000   0.234E+00       0.013     2219.137   0.100E-11
     TRS4 it   8 1.00000000   0.121E-01       0.013     2205.641   0.100E-11
     TRS4 it   9 1.00000000   0.434E-04       0.013     2206.189   0.100E-11
     TRS4 it  10 1.00000000   0.118E-08       0.013     2220.922   0.100E-11
     TRS4 it  11 1.00000000   0.142E-13       0.013     2242.538   0.100E-11
     Final TRS4 iteration   11 1.00000000   0.142E-13
     Chemical potential (mu):       0.02544
 
 PAO| energy:  -191.25108482053571      penalty:   1.1724708530210024E-008
 PAO| Writing restart file.
     Est. extremal eigenvalues     -0.83545     2.56023  converged:  T
     TRS4 it   1 1.00000000   0.287E+02       0.007     2147.936   0.100E-11
     TRS4 it   2 1.00000000   0.235E+02       0.013     2245.662   0.100E-11
     TRS4 it   3 1.00000000   0.155E+02       0.013     2213.459   0.100E-11
     TRS4 it   4 1.00000000   0.921E+01       0.013     2192.769   0.100E-11
     TRS4 it   5 1.00000000   0.415E+01       0.013     2250.442   0.100E-11
     TRS4 it   6 1.00000000   0.130E+01       0.013     2177.720   0.100E-11
     TRS4 it   7 1.00000000   0.234E+00       0.013     2217.076   0.100E-11
     TRS4 it   8 1.00000000   0.121E-01       0.013     2193.614   0.100E-11
     TRS4 it   9 1.00000000   0.434E-04       0.013     2192.343   0.100E-11
     TRS4 it  10 1.00000000   0.118E-08       0.013     2209.378   0.100E-11
     TRS4 it  11 1.00000000   0.142E-13       0.013     2202.407   0.100E-11
     Final TRS4 iteration   11 1.00000000   0.142E-13
     Chemical potential (mu):       0.02544

 SCF     1     -1103.031475840     -1103.031475840    1.761419

*********************************************************
 Using MIXING_FRACTION=0.450 to mix KS matrix:  iscf=  2
 KS_nw=0.450*KS + 0.550*KS_old
*********************************************************
     Est. extremal eigenvalues     -0.83545     2.56023  converged:  T
     TRS4 it   1 1.00000000   0.287E+02       0.007     2124.485   0.100E-11
     TRS4 it   2 1.00000000   0.235E+02       0.013     2211.891   0.100E-11
     TRS4 it   3 1.00000000   0.155E+02       0.013     2195.717   0.100E-11
     TRS4 it   4 1.00000000   0.921E+01       0.013     2220.053   0.100E-11
     TRS4 it   5 1.00000000   0.415E+01       0.013     2217.156   0.100E-11
     TRS4 it   6 1.00000000   0.130E+01       0.013     2195.534   0.100E-11
     TRS4 it   7 1.00000000   0.234E+00       0.013     2195.555   0.100E-11
     TRS4 it   8 1.00000000   0.121E-01       0.013     2209.839   0.100E-11
     TRS4 it   9 1.00000000   0.434E-04       0.013     2226.433   0.100E-11
     TRS4 it  10 1.00000000   0.118E-08       0.013     2216.693   0.100E-11
     TRS4 it  11 1.00000000   0.107E-13       0.013     2168.056   0.100E-11
     Final TRS4 iteration   11 1.00000000   0.107E-13
     Chemical potential (mu):       0.02544

 SCF     2     -1103.031475840        -0.000000000    1.760994


 SCF run converged in     2 steps.

 PAO| Storing density matrix for ASPC guess in slot:           1

 ENERGY| Total FORCE_EVAL ( QS ) energy [a.u.]:            -1103.031475840070243

 -------------------------------------------------------------------------------
 -                                                                             -
 -                                DBCSR STATISTICS                             -
 -                                                                             -
 -------------------------------------------------------------------------------
 COUNTER                                    TOTAL       BLAS       SMM       ACC
 flops     5 x     5 x     4             26419200       0.0%    100.0%      0.0%     
 flops    13 x     5 x     4             34078720       0.0%    100.0%      0.0%     
 flops     5 x    13 x     4             34078720       0.0%    100.0%      0.0%     
 flops    13 x    13 x     4             44994560       0.0%    100.0%      0.0%     
 flops     4 x     4 x     5           6676807680       0.0%    100.0%      0.0%     
 flops     5 x     4 x     5           8247705600       0.0%    100.0%      0.0%     
 flops     4 x     4 x    13           8679849984       0.0%    100.0%      0.0%     
 flops    13 x     4 x     5          10722017280       0.0%    100.0%      0.0%     
 flops     5 x     4 x    13          10722017280       0.0%    100.0%      0.0%     
 flops    13 x     4 x    13          13938622464       0.0%    100.0%      0.0%     
 flops     5 x     4 x     4         414944860160       0.0%    100.0%      0.0%     
 flops    13 x     4 x     4         544892073024       0.0%    100.0%      0.0%     
 flops     4 x     4 x     4       30835725128320       0.0%    100.0%      0.0%     
 flops inhomo. stacks                           0       0.0%      0.0%      0.0%
 flops total                        31.854689E+12       0.0%    100.0%      0.0%
 flops max/rank                      1.006475E+12       0.0%    100.0%      0.0%
 matmuls inhomo. stacks                         0       0.0%      0.0%      0.0%
 matmuls total                       244963022863       0.0%    100.0%      0.0%
 number of processed stacks             250246854       0.0%    100.0%      0.0%
 average stack size                                     0.0     978.9       0.0
 marketing flops                    54.999854E+12
 -------------------------------------------------------------------------------
 # multiplications                          51612
 max memory usage/rank             619.388928E+06
 # max total images/rank                        2
 # max 3D layers                                1
 # MPI messages exchanged                21470592
 MPI messages size (bytes):
  total size                         2.552396E+12
  min size                           0.000000E+00
  max size                         541.696000E+03
  average size                     118.878695E+03
 MPI breakdown and total messages size (bytes):
             size <=      128              916635                    17280
       128 < size <=     8192              350847               1268641408
      8192 < size <=    32768               49326               1180678400
     32768 < size <=   131072             9098952             676276257024
    131072 < size <=  4194304            11054832            1874105677312
   4194304 < size <= 16777216                   0                        0
  16777216 < size                               0                        0
 -------------------------------------------------------------------------------

 *** WARNING in dbcsr_mm.F:301 :: Using a non-square number of MPI ranks ***
 *** might lead to poor performance. Used ranks: 32 Suggested: 36 64     ***

 -------------------------------------------------------------------------------
 -                                                                             -
 -                      DBCSR MESSAGE PASSING PERFORMANCE                      -
 -                                                                             -
 -------------------------------------------------------------------------------
 ROUTINE             CALLS      AVE VOLUME [Bytes]
 MP_Bcast               14                     12.
 MP_Allreduce       310749                     37.
 MP_Alltoall        133195                  14554.
 MP_ISend          1727502                  55371.
 MP_IRecv          1689542                  56675.
 -------------------------------------------------------------------------------

 -------------------------------------------------------------------------------
 -                                                                             -
 -                                DBM STATISTICS                               -
 -                                                                             -
 -------------------------------------------------------------------------------
    M  x    N  x    K                                          COUNT     PERCENT
 -------------------------------------------------------------------------------

 -------------------------------------------------------------------------------
 -                                                                             -
 -                                GRID STATISTICS                              -
 -                                                                             -
 -------------------------------------------------------------------------------
 LP    KERNEL             BACKEND                              COUNT     PERCENT
 2     collocate ortho    CPU                               13117536      28.84%
 2     integrate ortho    CPU                               13117536      28.84%
 3     collocate ortho    CPU                                8428192      18.53%
 3     integrate ortho    CPU                                8428192      18.53%
 4     collocate ortho    CPU                                1196224       2.63%
 4     integrate ortho    CPU                                1196224       2.63%
 0     collocate general  CPU                                   6144       0.01%
 -------------------------------------------------------------------------------

 MEMORY| Estimated peak process memory [MiB]                                 591

 -------------------------------------------------------------------------------
 -                                                                             -
 -                         MESSAGE PASSING PERFORMANCE                         -
 -                                                                             -
 -------------------------------------------------------------------------------

 ROUTINE             CALLS      AVE VOLUME [Bytes]
 MP_Group                5
 MP_Bcast           409392                   1839.
 MP_Allreduce      1017232                    514.
 MP_Sync                 5
 MP_Alltoall           419
 MP_SendRecv          1488                  18832.
 MP_ISendRecv         1488                  18832.
 MP_Wait              4218
 MP_ISend             2470                 108139.
 MP_IRecv             2470                 108153.
 -------------------------------------------------------------------------------


 -------------------------------------------------------------------------------
 -                                                                             -
 -                           R E F E R E N C E S                               -
 -                                                                             -
 -------------------------------------------------------------------------------
 
 CP2K version 2024.3 (Development Version), the CP2K developers group (2024).
 CP2K is freely available from https://www.cp2k.org/ .
 
 T. D. Kuehne, M. Iannuzzi, M. Del Ben, V. V. Rybkin, P. Seewald, F. Stein, T. 
 Laino, R. Z. Khaliullin, O. Schuett, F. Schiffmann, D. Golze, J. Wilhelm, S. 
 Chulkov, M. H. Bani-Hashemian, V. Weber, U. Borstnik, M. Taillefumier, A. S. 
 Jakobovits, A. Lazzaro, H. Pabst, T. Mueller, R. Schade, M. Guidon, S. 
 Andermatt, N. Holmberg, G. K. Schenter, A. Hehn, A. Bussy, F. Belleflamme, G. 
 Tabacchi, A. Gloess, M. Lass, I. Bethune, C. J. Mundy, C. Plessl, M. Watkins, 
 J. VandeVondele, M. Krack, J. Hutter.
 J. Chem. Phys. 152, 194103 (2020).
 CP2K: An electronic structure and molecular dynamics software package - 
 Quickstep: Efficient and accurate electronic structure calculations.
 https://doi.org/10.1063/5.0007045

 O. Schuett, J. VandeVondele.
 J. Chem. Theory Comput. 14, 4168-4175 (2018).
 Machine Learning Adaptive Basis Sets for Efficient Large Scale Density 
 Functional Theory Simulation.
 https://doi.org/10.1021/acs.jctc.8b00378

 O. Schuett, P. Messmer, J. Hutter, J. VandeVondele.
 Electronic Structure Calculations on Graphics Processing Units, 173-190 (2016).
 GPU-Accelerated Sparse Matrix-Matrix Multiplication for Linear Scaling Density 
 Functional Theory.
 https://doi.org/10.1002/9781118670712.ch8

 A. Heinecke, G. Henry, M. Hutchinson, H. Pabst.
 Proceedings of Intl. Supercomputing Conference, 981-991 (2016).
 LIBXSMM: Accelerating Small Matrix Multiplications by Runtime Code Generation.
 https://doi.org/10.1109/SC.2016.83

 J. Hutter, M. Iannuzzi, F. Schiffmann, J. VandeVondele.
 WIREs Comput Mol Sci. 4, 15-25 (2014).
 CP2K: atomistic simulations of condensed matter systems.
 https://doi.org/10.1002/wcms.1159

 U. Borstnik, J. VandeVondele, V. Weber, J. Hutter.
 Parallel Comput. 40, 47-58 (2014).
 Sparse matrix multiplication: The distributed block-compressed sparse row 
 library.
 https://doi.org/10.1016/j.parco.2014.03.012

 A. Marek, V. Blum, R. Johanni, V. Havu, B. Lang, T. Auckenthaler, A. Heinecke, 
 H. Bungartz, H. Lederer.
 J. Phys. Condens. Matter 26, 213201 (2014).
 The ELPA library: scalable parallel eigenvalue solutions for electronic 
 structure theory and computational science.
 https://doi.org/10.1088/0953-8984/26/21/213201

 J. VandeVondele, U. Borstnik, J. Hutter.
 J. Chem. Theory Comput. 8, 3565-3573 (2012).
 Linear Scaling Self-Consistent Field Calculations with Millions of Atoms in the 
 Condensed Phase.
 https://doi.org/10.1021/ct200897x

 J. VandeVondele, J. Hutter.
 J. Chem. Phys. 127, 114105 (2007).
 Gaussian basis sets for accurate calculations on molecular systems in gas and 
 condensed phases.
 https://doi.org/10.1063/1.2770708

 J. VandeVondele, M. Krack, F. Mohamed, M. Parrinello, T. Chassaing, J. Hutter.
 Comput. Phys. Commun. 167, 103-128 (2005).
 QUICKSTEP: Fast and accurate density functional calculations using a mixed 
 Gaussian and plane waves approach.
 https://doi.org/10.1016/j.cpc.2004.12.014

 M. Krack.
 Theor. Chem. Acc. 114, 145-152 (2005).
 Pseudopotentials for H to Kr optimized for gradient-corrected 
 exchange-correlation functionals.
 https://doi.org/10.1007/s00214-005-0655-y

 M. Frigo, S. G. Johnson.
 Proc. IEEE 93, 216-231 (2005).
 The design and implementation of FFTW3.
 https://doi.org/10.1109/JPROC.2004.840301

 A. M. N. Niklasson, C. J. Tymczak, M. Challacombe.
 J. Chem. Phys. 118, 8611-8620 (2003).
 Trace resetting density matrix purification in O(N) self-consistent-field 
 theory.
 https://doi.org/10.1063/1.1559913

 C. Hartwigsen, S. Goedecker, J. Hutter.
 Phys. Rev. B 58, 3641-3662 (1998).
 Relativistic separable dual-space Gaussian pseudopotentials from H to Rn.
 https://doi.org/10.1103/PhysRevB.58.3641

 G. Lippert, J. Hutter, M. Parrinello.
 Mol. Phys. 92, 477-487 (1997).
 A hybrid Gaussian and plane wave density functional scheme.
 https://doi.org/10.1080/002689797170220

 S. Goedecker, M. Teter, J. Hutter.
 Phys. Rev. B 54, 1703-1710 (1996).
 Separable dual-space Gaussian pseudopotentials.
 https://doi.org/10.1103/PhysRevB.54.1703

 J. P. Perdew, K. Burke, M. Ernzerhof.
 Phys. Rev. Lett. 77, 3865-3868 (1996).
 Generalized gradient approximation made simple.
 https://doi.org/10.1103/PhysRevLett.77.3865


 -------------------------------------------------------------------------------
 -                                                                             -
 -                                T I M I N G                                  -
 -                                                                             -
 -------------------------------------------------------------------------------
 SUBROUTINE                       CALLS  ASD         SELF TIME        TOTAL TIME
                                MAXIMUM       AVERAGE  MAXIMUM  AVERAGE  MAXIMUM
 CP2K                                 1  1.0    0.013    0.016  505.792  505.793
 qs_energies                          1  2.0    0.000    0.000  505.639  505.640
 ls_scf                               1  3.0    0.000    0.000  504.456  504.457
 pao_update                           7  4.0    0.007    0.028  474.232  474.268
 pao_calc_energy                    838  5.0    0.003    0.023  427.079  427.115
 dbcsr_multiply_generic           51612  8.4    1.582    1.680  382.088  382.254
 multiply_cannon                  51612  9.4    2.808    3.005  293.329  297.829
 multiply_cannon_loop             51612 10.4    1.930    2.136  281.532  285.141
 ls_scf_init_matrix_S               845  7.0    0.009    0.010  239.460  239.544
 pao_rebuild_S                      838  6.0    0.003    0.003  237.584  237.668
 matrix_sqrt_Newton_Schulz          845  8.0    0.188    0.322  223.595  223.641
 multiply_cannon_multrec         412896 11.4  187.968  193.281  188.853  194.188
 pao_dm_trs4                        838  6.0    0.006    0.007  188.687  188.706
 density_matrix_trs4                853  7.0    0.239    0.411  182.407  182.493
 mp_waitall_1                   3304916 12.6   89.252   94.456   89.252   94.456
 arnoldi_extremal                  1698  8.5    0.014    0.015   81.781   81.830
 arnoldi_normal_ev                 1698  9.5    0.042    0.070   81.764   81.812
 multiply_cannon_metrocomm3      412896 11.4    0.711    0.751   70.691   75.799
 build_subspace                    6613 10.6    0.418    0.446   73.157   73.248
 dbcsr_matrix_vector_mult        201786 11.6    0.891    1.345   62.221   63.722
 make_m2s                        103224  9.4    0.582    0.727   55.925   56.793
 make_images                     103224 10.4    7.815    8.065   54.470   55.387
 dbcsr_matrix_vector_mult_local  201786 12.6   48.828   50.171   49.064   50.415
 pao_calc_AB                       1112  5.8    0.002    0.002   46.657   46.693
 pao_calc_AB_equi                  1112  6.8    0.042    0.105   46.655   46.692
 pao_calc_grad_lnv_wrt_AB           273  7.0    0.021    0.024   46.039   46.091
 mp_sum_l                        210911  9.5   24.706   28.644   24.706   28.644
 ls_scf_main                          7  4.0    0.000    0.001   26.472   26.473
 make_images_data                103224 11.4    0.909    1.054   22.388   24.542
 ls_scf_dm_to_ks                     15  5.0    0.000    0.000   23.356   23.358
 hybrid_alltoall_any             104909 12.3    0.986    1.932   17.455   20.710
 dbcsr_multiply_generic_mpsum_f   37895  9.5    0.032    0.038   17.246   20.090
 matrix_qs_to_ls                   1698  7.5    0.018    0.022   18.023   18.133
 mp_sum_dv                       803748 12.8   16.626   17.261   16.626   17.261
 qs_ks_update_qs_env                 16  6.0    0.000    0.000   13.951   13.954
 rebuild_ks_matrix                   16  7.0    0.000    0.000   13.939   13.942
 qs_ks_build_kohn_sham_matrix        16  8.0    0.003    0.003   13.939   13.942
 calculate_norms                 770944 11.4   12.308   12.865   12.308   12.865
 make_images_pack                103224 11.4   11.892   12.345   12.039   12.503
 qs_rho_update_rho_low               16  6.0    0.000    0.000   11.034   11.037
 calculate_rho_elec                  16  7.0    0.005    0.006   11.034   11.037
 sum_up_and_integrate                16  9.0    0.000    0.001   10.547   10.550
 integrate_v_rspace                  16 10.0    0.000    0.001   10.532   10.538
 make_images_sizes               103224 11.4    0.063    0.072    7.003   10.276
 mp_alltoall_i44                 103224 12.4    6.940   10.216    6.940   10.216
 -------------------------------------------------------------------------------

 The number of warnings for this run is : 1
 
 -------------------------------------------------------------------------------
  **** **** ******  **  PROGRAM ENDED AT                 2024-09-24 07:04:34.177
 ***** ** ***  *** **   PROGRAM RAN ON                                    moritz
 **    ****   ******    PROGRAM RAN BY                                       ole
 ***** **    ** ** **   PROGRAM PROCESS ID                                173463
  **** **  *******  **  PROGRAM STOPPED IN /home/ole/git/pao_ml_equivar/64H2O_MD
                                           /Frame7000
