 DBCSR| CPU Multiplication driver                                           XSMM (U)
 DBCSR| Multrec recursion limit                                              512 (U)
 DBCSR| Multiplication stack size                                           1000 (D)
 DBCSR| Maximum elements for images                                    UNLIMITED (U)
 DBCSR| Multiplicative factor virtual images                                   1 (U)
 DBCSR| Use multiplication densification                                       T (D)
 DBCSR| Multiplication size stacks                                             3 (U)
 DBCSR| Use memory pool for CPU allocation                                     F (U)
 DBCSR| OMP: Current number of threads                                         1
 DBCSR| OMP: Max number of threads                                             1
 DBCSR| Split modifier for TAS multiplication algorithm                  1.0E+00 (U)


  **** **** ******  **  PROGRAM STARTED AT               2023-02-01 10:43:54.933
 ***** ** ***  *** **   PROGRAM STARTED ON                                moritz
 **    ****   ******    PROGRAM STARTED BY                                   ole
 ***** **    ** ** **   PROGRAM PROCESS ID                                148513
  **** **  *******  **  PROGRAM STARTED IN /home/ole/git/pao_ml_equivar/2H2O_rot
                                           ations/rand_12

 CP2K| version string:                 CP2K version 2023.1 (Development Version)
 CP2K| source code revision number:                                  git:03b4147
 CP2K| cp2kflags: omp libint fftw3 libxc quip xsmm spglib libvori libbqb libtorc
 CP2K|            h
 CP2K| is freely available from                            https://www.cp2k.org/
 CP2K| Program compiled at                           Mi 01 Feb 2023 10:36:52 CET
 CP2K| Program compiled on                                                moritz
 CP2K| Program compiled for                                                local
 CP2K| Data directory path                               /home/ole/git/cp2k/data
 CP2K| Input file name                                            2H2O_pao44.inp

 GLOBAL| Force Environment number                                              1
 GLOBAL| Basis set file name                                        BASIS_MOLOPT
 GLOBAL| Potential file name                                      GTH_POTENTIALS
 GLOBAL| MM Potential file name                                     MM_POTENTIAL
 GLOBAL| Coordinate file name                                         coords.xyz
 GLOBAL| Method name                                                        CP2K
 GLOBAL| Project name                                                 2H2O_pao44
 GLOBAL| Run type                                                         ENERGY
 GLOBAL| FFT library                                                       FFTW3
 GLOBAL| Diagonalization library                                       ScaLAPACK
 GLOBAL| DGEMM library                                                      BLAS
 GLOBAL| Orthonormality check for eigenvectors                          DISABLED
 GLOBAL| Matrix multiplication library                                 ScaLAPACK
 GLOBAL| All-to-all communication in single precision                          F
 GLOBAL| FFTs using library dependent lengths                                  F
 GLOBAL| Grid backend                                                       AUTO
 GLOBAL| Global print level                                                  LOW
 GLOBAL| MPI I/O enabled                                                       T
 GLOBAL| Total number of message passing processes                             1
 GLOBAL| Number of threads for this process                                    1
 GLOBAL| This output is from process                                           0
 GLOBAL| Stack size for threads created by OpenMP (OMP_STACKSIZE)        default
 GLOBAL| CPU model name           AMD Ryzen Threadripper 3970X 32-Core Processor
 GLOBAL| CPUID                                                              1002
 GLOBAL| Compiled for CPUID                                                    0

 *** HINT in environment.F:884 :: The compiler target flags (generic) used ***
 *** to build this binary cannot exploit all extensions of this CPU model  ***
 *** (x86_avx2). Consider compiler target flags as part of FCFLAGS and     ***
 *** CFLAGS (ARCH file).                                                   ***


 MEMORY| system memory details [Kb]
 MEMORY|                        rank 0           min           max       average
 MEMORY| MemTotal            131773860     131773860     131773860     131773860
 MEMORY| MemFree             115371520     115371520     115371520     115371520
 MEMORY| Buffers                301492        301492        301492        301492
 MEMORY| Cached                7000768       7000768       7000768       7000768
 MEMORY| Slab                   776600        776600        776600        776600
 MEMORY| SReclaimable           330700        330700        330700        330700
 MEMORY| MemLikelyFree       123004480     123004480     123004480     123004480


 GENERATE|  Preliminary Number of Bonds generated:                             0
 GENERATE|  Achieved consistency in connectivity generation.

 *******************************************************************************
 *******************************************************************************
 **                                                                           **
 **     #####                         ##              ##                      **
 **    ##   ##            ##          ##              ##                      **
 **   ##     ##                       ##            ######                    **
 **   ##     ##  ##   ##  ##   #####  ##  ##   ####   ##    #####    #####    **
 **   ##     ##  ##   ##  ##  ##      ## ##   ##      ##   ##   ##  ##   ##   **
 **   ##  ## ##  ##   ##  ##  ##      ####     ###    ##   ######   ######    **
 **    ##  ###   ##   ##  ##  ##      ## ##      ##   ##   ##       ##        **
 **     #######   #####   ##   #####  ##  ##  ####    ##    #####   ##        **
 **           ##                                                    ##        **
 **                                                                           **
 **                                                ... make the atoms dance   **
 **                                                                           **
 **            Copyright (C) by CP2K developers group (2000-2023)             **
 **                      J. Chem. Phys. 152, 194103 (2020)                    **
 **                                                                           **
 *******************************************************************************


 TOTAL NUMBERS AND MAXIMUM NUMBERS

  Total number of            - Atomic kinds:                                   2
                             - Atoms:                                          6
                             - Shell sets:                                     6
                             - Shells:                                        22
                             - Primitive Cartesian functions:                 42
                             - Cartesian basis functions:                     48
                             - Spherical basis functions:                     46

  Maximum angular momentum of- Orbital basis functions:                        2
                             - Local part of the GTH pseudopotential:          2
                             - Non-local part of the GTH pseudopotential:      0

 ------------------------------ Linear scaling SCF -----------------------------
 eps_scf:                                                              0.100E-07
 eps_filter:                                                           0.100E-07
 mixing_fraction:                                                      0.450E+00
 max_scf:                                                                     25
 fixed chemical potential (mu)                                                 F
 has unit metric:                                                              F
 Computing inv(S):                                                             T
 Computing sqrt(S):                                                            T
 Computing S preconditioner                                                    F
 S sqrt method:                                                     NEWTONSCHULZ
 S sqrt order:                                                                 3
 Extrapolation order:                                                          1
 Use single precision matrices                                                 F
 S preconditioner type                                                      NONE
 Polarized Atomic Orbitals (PAO)                                               T
 Purification method                                   Trace resetting 4th order
 Cluster type                                                             ATOMIC
 Computing Chebyshev                                                       FALSE
 Using PAO                                                                     T
 -------------------------------------------------------------------------------

 
 PAO|                                  EPS_PAO                           0.1E-04
 PAO|                                  MIXING                            0.5E+00
 PAO|                                  MAX_PAO                              1000
 PAO|                                  MAX_CYCLES                           1000
 PAO|                                  PARAMETERIZATION              EQUIVARIANT
 PAO|                                  PRECONDITION                            F
 PAO|                                  REGULARIZATION                    0.0E+00
 PAO|                                  EPS_PGF                           0.1E-09
 PAO|                                  PENALTY_DISTANCE                  0.1E+00
 PAO|                                  PENALTY_STRENGTH                  0.5E-02
 PAO|                                  LINPOT_PRECONDITION_DELTA         0.0E+00
 PAO|                                  LINPOT_INITGUESS_DELT             0.0E+00
 PAO|                                  LINPOT_REGULARIZATION_DELTA       0.0E+00
 PAO|                                  LINPOT_REGULARIZATION_STRENGTH    0.0E+00
 PAO|                                  OPTIMIZER                              CG
 PAO|                                  CG_INIT_STEPS                           2
 PAO|                                  CG_RESET_LIMIT                    0.1E+00
 PAO|                                  CHECK_UNITARY_TOL                -0.1E+01
 PAO|                                  CHECK_GRADIENT_TOL               -0.1E+01
 PAO|                                  NUM_GRADIENT_ORDER                      2
 PAO|                                  NUM_GRADIENT_EPS                  0.1E-07
 PAO|                                  PRINT%RESTART%WRITE_CYCLES            100
 PAO|                                  RESTART_FILE 
 PAO|                                  PREOPT_DM_FILE 2H2O_ref_LS_DM_SPIN_1_RESTART.dm
 PAO|                                  MACHINE_LEARNING%METHOD       GAUSSIAN_PR
 PAO|                                  MACHINE_LEARNING%PRIOR               ZERO
 PAO|                                  MACHINE_LEARNING%DESCRIPTOR     POTENTIAL
 PAO|                                  MACHINE_LEARNING%TOLERANCE        0.1E-01
 PAO|                                  MACHINE_LEARNING%GP_NOISE_VAR     0.1E+00
 PAO|                                  MACHINE_LEARNING%GP_SCALE         0.5E-01
 

 Calculating atomic Fock matrix for atomic kind: O

 Electronic structure
    Total number of core electrons                                          2.00
    Total number of valence electrons                                       6.00
    Total number of electrons                                               8.00
    Multiplicity                                                   not specified
    S   [  2.00] 2.00
    P      4.00


 *******************************************************************************
                  Iteration          Convergence                     Energy [au]
 *******************************************************************************
                          1        0.708315                     -15.576645311500
                          2        0.608879                     -15.587933561584
                          3        0.102828E-01                 -15.656849565404
                          4        0.113889E-02                 -15.656866888140
                          5        0.434197E-03                 -15.656867072159
                          6        0.263771E-03                 -15.656867091904
                          7        0.478536E-06                 -15.656867103452

 Energy components [Hartree]           Total Energy ::          -15.656867103452
                                        Band Energy ::           -3.000198112285
                                     Kinetic Energy ::           11.759971203220
                                   Potential Energy ::          -27.416838306672
                                      Virial (-V/T) ::            2.331369510426
                                        Core Energy ::          -26.140716385623
                                          XC Energy ::           -3.154051012914
                                     Coulomb Energy ::           13.637900295084
                       Total Pseudopotential Energy ::          -37.935781716540
                       Local Pseudopotential Energy ::          -39.218907440693
                    Nonlocal Pseudopotential Energy ::            1.283125724153
                                        Confinement ::            0.350941276976

 Orbital energies  State     L     Occupation   Energy[a.u.]          Energy[eV]

                       1     0          2.000      -0.864471          -23.523463

                       1     1          4.000      -0.317814           -8.648154


 Total Electron Density at R=0:                                         0.000068

 Calculating atomic Fock matrix for atomic kind: H

 Electronic structure
    Total number of core electrons                                          0.00
    Total number of valence electrons                                       1.00
    Total number of electrons                                               1.00
    Multiplicity                                                   not specified
    S      1.00


 *******************************************************************************
                  Iteration          Convergence                     Energy [au]
 *******************************************************************************
                          1        0.437545E-02                  -0.424159432110
                          2        0.531356E-03                  -0.424178438213
                          3        0.259176E-06                  -0.424178722480

 Energy components [Hartree]           Total Energy ::           -0.424178722480
                                        Band Energy ::           -0.199015229016
                                     Kinetic Energy ::            0.464007633961
                                   Potential Energy ::           -0.888186356441
                                      Virial (-V/T) ::            1.914163240935
                                        Core Energy ::           -0.479160803564
                                          XC Energy ::           -0.244352904054
                                     Coulomb Energy ::            0.299334985138
                       Total Pseudopotential Energy ::           -0.962295316385
                       Local Pseudopotential Energy ::           -0.962295316385
                    Nonlocal Pseudopotential Energy ::            0.000000000000
                                        Confinement ::            0.191268788606

 Orbital energies  State     L     Occupation   Energy[a.u.]          Energy[eV]

                       1     0          1.000      -0.199015           -5.415480


 Total Electron Density at R=0:                                         0.242907
 PAO| Made initial guess for matrix_X with norm:   4.8989794855663558     

     Lanczos converged:  T threshold:   0.100E-02
     Est. extremal eigenvalues:    0.337E+01   0.111E+00
     Est. condition number :    0.303E+02

 Order=           3
     NS sqrt iter    1 1.00000000   0.822E+00       0.001       62.191
     NS sqrt iter    2 1.00000000   0.440E+00       0.001      102.293
     NS sqrt iter    3 1.00000000   0.171E+00       0.001       98.994
     NS sqrt iter    4 1.00000000   0.211E-01       0.001      110.592
     NS sqrt iter    5 1.00000000   0.612E-04       0.001       98.560
     Symmetrizing Results
     Final NS sqrt iter    5 1.00000000   0.599E-08

 PAO| Read restart DM 2H2O_ref_LS_DM_SPIN_1_RESTART.dm with checksum:    67.066830846208390     
 PAO| Quickstep energy from restart density:  -34.450379251298884     
 PAO| ======================= Iteration:         1 =============================

     Lanczos converged:  T threshold:   0.100E-02
     Est. extremal eigenvalues:    0.337E+01   0.111E+00
     Est. condition number :    0.303E+02

 Order=           3
     NS sqrt iter    1 1.00000000   0.822E+00       0.001       59.574
     NS sqrt iter    2 1.00000000   0.440E+00       0.001       99.899
     NS sqrt iter    3 1.00000000   0.171E+00       0.001      101.729
     NS sqrt iter    4 1.00000000   0.211E-01       0.001      101.911
     NS sqrt iter    5 1.00000000   0.612E-04       0.001       93.707
     Symmetrizing Results
     Final NS sqrt iter    5 1.00000000   0.599E-08

     Est. extremal eigenvalues     -0.91951     1.93620  converged:  T
     TRS4 it   1 1.00000000   0.900E+00       0.000       16.128   0.100E-07
     TRS4 it   2 1.00000000   0.705E+00       0.001       32.256   0.100E-07
     TRS4 it   3 1.00000000   0.504E+00       0.001       32.256   0.100E-07
     TRS4 it   4 1.00000000   0.317E+00       0.001       32.256   0.100E-07
     TRS4 it   5 1.00000000   0.158E+00       0.001       32.256   0.100E-07
     TRS4 it   6 1.00000000   0.503E-01       0.001       32.256   0.100E-07
     TRS4 it   7 1.00000000   0.703E-02       0.001       32.256   0.100E-07
     TRS4 it   8 1.00000000   0.195E-03       0.001       32.256   0.100E-07
     TRS4 it   9 1.00000000   0.169E-06       0.001       32.256   0.100E-07
     TRS4 it  10 1.00000000   0.129E-12       0.001       32.256   0.100E-07
     Final TRS4 iteration   10 1.00000000   0.129E-12
     Chemical potential (mu):      -0.06374
 
 PAO| energy:  -7.6119232360886429      penalty:   3.8826747678846675E-033
 PAO|CG| warming up with steepest descent
 PAO|CG| beta:    0.0000000000000000     
 PAO| norm of gradient:  0.78367920707841854     
 PAO|LS| adapt:  T F F
 PAO|LS| adapt: scan_steps:    0.0000000000000000        0.0000000000000000        0.0000000000000000     
 PAO|LS| adapt: energies:   -7.6119232360886429        0.0000000000000000        0.0000000000000000     
 PAO| ======================= Iteration:         2 =============================

     Lanczos converged:  T threshold:   0.100E-02
     Est. extremal eigenvalues:    0.328E+01   0.124E+00
     Est. condition number :    0.266E+02

 Order=           3
     NS sqrt iter    1 1.00000000   0.805E+00       0.001       58.847
     NS sqrt iter    2 1.00000000   0.424E+00       0.001       99.644
     NS sqrt iter    3 1.00000000   0.153E+00       0.001       98.496
     NS sqrt iter    4 1.00000000   0.147E-01       0.001       99.974
     NS sqrt iter    5 1.00000000   0.207E-04       0.001       77.517
     Symmetrizing Results
     Final NS sqrt iter    5 1.00000000   0.667E-09

     Est. extremal eigenvalues     -0.92318     1.87915  converged:  T
     TRS4 it   1 1.00000000   0.897E+00       0.000       16.128   0.100E-07
     TRS4 it   2 1.00000000   0.687E+00       0.001       32.256   0.100E-07
     TRS4 it   3 1.00000000   0.489E+00       0.001       32.256   0.100E-07
     TRS4 it   4 1.00000000   0.297E+00       0.001       32.256   0.100E-07
     TRS4 it   5 1.00000000   0.139E+00       0.001       32.256   0.100E-07
     TRS4 it   6 1.00000000   0.391E-01       0.001       32.256   0.100E-07
     TRS4 it   7 1.00000000   0.431E-02       0.001       32.256   0.100E-07
     TRS4 it   8 1.00000000   0.740E-04       0.001       32.256   0.100E-07
     TRS4 it   9 1.00000000   0.243E-07       0.001       32.256   0.100E-07
     Final TRS4 iteration    9 1.00000000   0.243E-07
     Chemical potential (mu):      -0.05186
 
 PAO| energy:  -7.6674409480117607      penalty:   2.2541022507035722E-008
 PAO|LS| adapt:  T T F
 PAO|LS| adapt: scan_steps:    0.0000000000000000       0.10000000000000001        0.0000000000000000     
 PAO|LS| adapt: energies:   -7.6119232360886429       -7.6674409480117607        0.0000000000000000     
 PAO| ======================= Iteration:         3 =============================

     Lanczos converged:  T threshold:   0.100E-02
     Est. extremal eigenvalues:    0.319E+01   0.135E+00
     Est. condition number :    0.236E+02

 Order=           3
     NS sqrt iter    1 1.00000000   0.787E+00       0.001       58.674
     NS sqrt iter    2 1.00000000   0.408E+00       0.001      100.030
     NS sqrt iter    3 1.00000000   0.136E+00       0.001      100.556
     NS sqrt iter    4 1.00000000   0.102E-01       0.001      100.099
     NS sqrt iter    5 1.00000000   0.726E-05       0.001       77.270
     Symmetrizing Results
     Final NS sqrt iter    5 1.00000000   0.826E-10

     Est. extremal eigenvalues     -0.92661     1.83236  converged:  T
     TRS4 it   1 1.00000000   0.895E+00       0.000       16.128   0.100E-07
     TRS4 it   2 1.00000000   0.670E+00       0.001       32.256   0.100E-07
     TRS4 it   3 1.00000000   0.474E+00       0.001       32.256   0.100E-07
     TRS4 it   4 1.00000000   0.278E+00       0.001       32.256   0.100E-07
     TRS4 it   5 1.00000000   0.121E+00       0.001       32.256   0.100E-07
     TRS4 it   6 1.00000000   0.296E-01       0.001       32.256   0.100E-07
     TRS4 it   7 1.00000000   0.246E-02       0.001       32.256   0.100E-07
     TRS4 it   8 1.00000000   0.240E-04       0.001       32.256   0.100E-07
     TRS4 it   9 1.00000000   0.257E-08       0.001       32.256   0.100E-07
     Final TRS4 iteration    9 1.00000000   0.257E-08
     Chemical potential (mu):      -0.03902
 
 PAO| energy:  -7.7105056239766663      penalty:   3.6065677084899614E-007
 PAO|LS| adapt:  T T F
 PAO|LS| adapt: scan_steps:    0.0000000000000000       0.20000000000000001        0.0000000000000000     
 PAO|LS| adapt: energies:   -7.6119232360886429       -7.7105056239766663        0.0000000000000000     
 PAO| ======================= Iteration:         4 =============================

     Lanczos converged:  T threshold:   0.100E-02
     Est. extremal eigenvalues:    0.299E+01   0.154E+00
     Est. condition number :    0.195E+02

 Order=           3
     NS sqrt iter    1 1.00000000   0.750E+00       0.001       59.980
     NS sqrt iter    2 1.00000000   0.373E+00       0.001      100.636
     NS sqrt iter    3 1.00000000   0.107E+00       0.001      100.816
     NS sqrt iter    4 1.00000000   0.504E-02       0.001       99.097
     NS sqrt iter    5 1.00000000   0.103E-05       0.001       77.914
     Symmetrizing Results
     Final NS sqrt iter    5 1.00000000   0.179E-11

     Est. extremal eigenvalues     -0.93194     1.76232  converged:  T
     TRS4 it   1 1.00000000   0.890E+00       0.000       16.128   0.100E-07
     TRS4 it   2 1.00000000   0.642E+00       0.001       32.256   0.100E-07
     TRS4 it   3 1.00000000   0.445E+00       0.001       32.256   0.100E-07
     TRS4 it   4 1.00000000   0.242E+00       0.001       32.256   0.100E-07
     TRS4 it   5 1.00000000   0.896E-01       0.001       32.256   0.100E-07
     TRS4 it   6 1.00000000   0.156E-01       0.001       32.256   0.100E-07
     TRS4 it   7 1.00000000   0.657E-03       0.001       32.256   0.100E-07
     TRS4 it   8 1.00000000   0.167E-05       0.001       32.256   0.100E-07
     TRS4 it   9 1.00000000   0.123E-10       0.001       32.256   0.100E-07
     Final TRS4 iteration    9 1.00000000   0.123E-10
     Chemical potential (mu):      -0.01072
 
 PAO| energy:  -7.7576885908228652      penalty:   5.7705116194832500E-006
 PAO|LS| Need extra step
 PAO|LS| adapt:  T T F
 PAO|LS| adapt: scan_steps:    0.0000000000000000       0.40000000000000002        0.0000000000000000     
 PAO|LS| adapt: energies:   -7.6119232360886429       -7.7576885908228652        0.0000000000000000     
 PAO| ======================= Iteration:         5 =============================

     Lanczos converged:  T threshold:   0.100E-02
     Est. extremal eigenvalues:    0.263E+01   0.183E+00
     Est. condition number :    0.144E+02

 Order=           3
     NS sqrt iter    1 1.00000000   0.684E+00       0.001       59.116
     NS sqrt iter    2 1.00000000   0.311E+00       0.001       99.838
     NS sqrt iter    3 1.00000000   0.657E-01       0.001       98.575
     NS sqrt iter    4 1.00000000   0.137E-02       0.001      100.306
     NS sqrt iter    5 1.00000000   0.245E-07       0.001       56.431
     Symmetrizing Results
     Final NS sqrt iter    5 1.00000000   0.237E-08

     Est. extremal eigenvalues     -0.93314     1.67982  converged:  T
     TRS4 it   1 1.00000000   0.884E+00       0.000       16.128   0.100E-07
     TRS4 it   2 1.00000000   0.602E+00       0.001       32.256   0.100E-07
     TRS4 it   3 1.00000000   0.397E+00       0.001       32.256   0.100E-07
     TRS4 it   4 1.00000000   0.184E+00       0.001       32.256   0.100E-07
     TRS4 it   5 1.00000000   0.485E-01       0.001       32.256   0.100E-07
     TRS4 it   6 1.00000000   0.420E-02       0.001       32.256   0.100E-07
     TRS4 it   7 1.00000000   0.405E-04       0.001       32.256   0.100E-07
     TRS4 it   8 1.00000000   0.480E-08       0.001       32.256   0.100E-07
     Final TRS4 iteration    8 1.00000000   0.480E-08
     Chemical potential (mu):       0.03760
 
 PAO| energy:  -7.7028737235651450      penalty:   9.2328212198961189E-005
 PAO|LS| Need extra step
 PAO|LS| adapt:  T T T
 PAO|LS| adapt: scan_steps:    0.0000000000000000       0.40000000000000002       0.80000000000000004     
 PAO|LS| adapt: energies:   -7.6119232360886429       -7.7576885908228652       -7.7028737235651450     
 PAO|LS| adapt: suggested step_size:   0.49068739337635769     
 PAO|LS| adapt: predicted energy  -7.7628436299700860     
 PAO| ======================= Iteration:         6 =============================

     Lanczos converged:  T threshold:   0.100E-02
     Est. extremal eigenvalues:    0.290E+01   0.161E+00
     Est. condition number :    0.181E+02

 Order=           3
     NS sqrt iter    1 1.00000000   0.733E+00       0.001       59.859
     NS sqrt iter    2 1.00000000   0.358E+00       0.001       98.095
     NS sqrt iter    3 1.00000000   0.952E-01       0.001      100.170
     NS sqrt iter    4 1.00000000   0.371E-02       0.001      100.995
     NS sqrt iter    5 1.00000000   0.439E-06       0.001       79.363
     Symmetrizing Results
     Final NS sqrt iter    5 1.00000000   0.333E-12

     Est. extremal eigenvalues     -0.93341     1.73827  converged:  T
     TRS4 it   1 1.00000000   0.889E+00       0.000       16.128   0.100E-07
     TRS4 it   2 1.00000000   0.631E+00       0.001       32.256   0.100E-07
     TRS4 it   3 1.00000000   0.433E+00       0.001       32.256   0.100E-07
     TRS4 it   4 1.00000000   0.227E+00       0.001       32.256   0.100E-07
     TRS4 it   5 1.00000000   0.777E-01       0.001       32.256   0.100E-07
     TRS4 it   6 1.00000000   0.115E-01       0.001       32.256   0.100E-07
     TRS4 it   7 1.00000000   0.340E-03       0.001       32.256   0.100E-07
     TRS4 it   8 1.00000000   0.425E-06       0.001       32.256   0.100E-07
     TRS4 it   9 1.00000000   0.794E-12       0.001       32.256   0.100E-07
     Final TRS4 iteration    9 1.00000000   0.794E-12
     Chemical potential (mu):       0.00296
 
 PAO| energy:  -7.7620977955022346      penalty:   1.3067544917475838E-005
 PAO|CG| warming up with steepest descent
 PAO|CG| beta:    0.0000000000000000     
 PAO| norm of gradient:  0.41681548910028121     
 PAO| energy improvement: -0.15017455941359170     
 PAO| step      6                   -7.762097796  0.261E-01  0.491E+00     0.091
 PAO|LS| adapt:  T F F
 PAO|LS| adapt: scan_steps:    0.0000000000000000        0.0000000000000000        0.0000000000000000     
 PAO|LS| adapt: energies:   -7.7620977955022346        0.0000000000000000        0.0000000000000000     
 PAO| ======================= Iteration:         7 =============================

     Lanczos converged:  T threshold:   0.100E-02
     Est. extremal eigenvalues:    0.281E+01   0.175E+00
     Est. condition number :    0.161E+02

 Order=           3
     NS sqrt iter    1 1.00000000   0.715E+00       0.001       59.771
     NS sqrt iter    2 1.00000000   0.337E+00       0.001      100.419
     NS sqrt iter    3 1.00000000   0.796E-01       0.001       99.034
     NS sqrt iter    4 1.00000000   0.226E-02       0.001       99.398
     NS sqrt iter    5 1.00000000   0.110E-06       0.001       72.247
     Symmetrizing Results
     Final NS sqrt iter    5 1.00000000   0.106E-08

     Est. extremal eigenvalues     -0.93512     1.72444  converged:  T
     TRS4 it   1 1.00000000   0.888E+00       0.000       16.128   0.100E-07
     TRS4 it   2 1.00000000   0.629E+00       0.001       32.256   0.100E-07
     TRS4 it   3 1.00000000   0.433E+00       0.001       32.256   0.100E-07
     TRS4 it   4 1.00000000   0.228E+00       0.001       32.256   0.100E-07
     TRS4 it   5 1.00000000   0.784E-01       0.001       32.256   0.100E-07
     TRS4 it   6 1.00000000   0.114E-01       0.001       32.256   0.100E-07
     TRS4 it   7 1.00000000   0.321E-03       0.001       32.256   0.100E-07
     TRS4 it   8 1.00000000   0.359E-06       0.001       32.256   0.100E-07
     TRS4 it   9 1.00000000   0.557E-12       0.001       32.256   0.100E-07
     Final TRS4 iteration    9 1.00000000   0.557E-12
     Chemical potential (mu):       0.00472
 
 PAO| energy:  -7.7561560276550603      penalty:   1.9730799321266995E-005
 PAO|LS| adapt:  T F T
 PAO|LS| adapt: scan_steps:    0.0000000000000000        0.0000000000000000       0.49068739337635769     
 PAO|LS| adapt: energies:   -7.7620977955022346        0.0000000000000000       -7.7561560276550603     
 PAO| ======================= Iteration:         8 =============================

     Lanczos converged:  T threshold:   0.100E-02
     Est. extremal eigenvalues:    0.286E+01   0.168E+00
     Est. condition number :    0.171E+02

 Order=           3
     NS sqrt iter    1 1.00000000   0.724E+00       0.001       59.070
     NS sqrt iter    2 1.00000000   0.347E+00       0.001       98.496
     NS sqrt iter    3 1.00000000   0.872E-01       0.001      100.072
     NS sqrt iter    4 1.00000000   0.291E-02       0.001       99.825
     NS sqrt iter    5 1.00000000   0.224E-06       0.001       75.320
     Symmetrizing Results
     Final NS sqrt iter    5 1.00000000   0.797E-09

     Est. extremal eigenvalues     -0.93523     1.73075  converged:  T
     TRS4 it   1 1.00000000   0.888E+00       0.000       16.128   0.100E-07
     TRS4 it   2 1.00000000   0.630E+00       0.001       32.256   0.100E-07
     TRS4 it   3 1.00000000   0.432E+00       0.001       32.256   0.100E-07
     TRS4 it   4 1.00000000   0.226E+00       0.001       32.256   0.100E-07
     TRS4 it   5 1.00000000   0.778E-01       0.001       32.256   0.100E-07
     TRS4 it   6 1.00000000   0.115E-01       0.001       32.256   0.100E-07
     TRS4 it   7 1.00000000   0.339E-03       0.001       32.256   0.100E-07
     TRS4 it   8 1.00000000   0.415E-06       0.001       32.256   0.100E-07
     TRS4 it   9 1.00000000   0.752E-12       0.001       32.256   0.100E-07
     Final TRS4 iteration    9 1.00000000   0.752E-12
     Chemical potential (mu):       0.00337
 
 PAO| energy:  -7.7816873692733592      penalty:   1.4159588728488887E-005
 PAO|LS| adapt:  T T T
 PAO|LS| adapt: scan_steps:    0.0000000000000000       0.24534369668817885       0.49068739337635769     
 PAO|LS| adapt: energies:   -7.7620977955022346       -7.7816873692733592       -7.7561560276550603     
 PAO|LS| adapt: suggested step_size:   0.22918959968120192     
 PAO|LS| adapt: predicted energy  -7.7817851748166564     
 PAO| ======================= Iteration:         9 =============================

     Lanczos converged:  T threshold:   0.100E-02
     Est. extremal eigenvalues:    0.286E+01   0.167E+00
     Est. condition number :    0.171E+02

 Order=           3
     NS sqrt iter    1 1.00000000   0.725E+00       0.001       58.694
     NS sqrt iter    2 1.00000000   0.348E+00       0.001       99.365
     NS sqrt iter    3 1.00000000   0.877E-01       0.001      100.674
     NS sqrt iter    4 1.00000000   0.296E-02       0.001       99.618
     NS sqrt iter    5 1.00000000   0.234E-06       0.001       77.476
     Symmetrizing Results
     Final NS sqrt iter    5 1.00000000   0.592E-09

     Est. extremal eigenvalues     -0.93517     1.73121  converged:  T
     TRS4 it   1 1.00000000   0.888E+00       0.000       16.128   0.100E-07
     TRS4 it   2 1.00000000   0.630E+00       0.001       32.256   0.100E-07
     TRS4 it   3 1.00000000   0.432E+00       0.001       32.256   0.100E-07
     TRS4 it   4 1.00000000   0.226E+00       0.001       32.256   0.100E-07
     TRS4 it   5 1.00000000   0.778E-01       0.001       32.256   0.100E-07
     TRS4 it   6 1.00000000   0.115E-01       0.001       32.256   0.100E-07
     TRS4 it   7 1.00000000   0.340E-03       0.001       32.256   0.100E-07
     TRS4 it   8 1.00000000   0.418E-06       0.001       32.256   0.100E-07
     TRS4 it   9 1.00000000   0.762E-12       0.001       32.256   0.100E-07
     Final TRS4 iteration    9 1.00000000   0.762E-12
     Chemical potential (mu):       0.00331
 
 PAO| energy:  -7.7818091332096477      penalty:   1.3988257765006038E-005
 PAO|CG| trace_G_new    3.6693571409647734E-002
 PAO|CG| trace_G_prev   0.17373515195390665     
 PAO|CG| trace_G_mix   -1.4353284830463018E-003
 PAO|CG| trace_D   0.17373515195390665     
 PAO|CG| trace_D_Gnew   1.4353284830463018E-003
 PAO|CG| beta:   0.21946566059820724     
 PAO| norm of gradient:  0.19155566138761793     
 PAO| energy improvement:  -1.9711337707413179E-002
 PAO| step      9                   -7.781809133  0.120E-01  0.229E+00     0.057
 PAO|LS| adapt:  T F F
 PAO|LS| adapt: scan_steps:    0.0000000000000000        0.0000000000000000        0.0000000000000000     
 PAO|LS| adapt: energies:   -7.7818091332096477        0.0000000000000000        0.0000000000000000     
 PAO| ======================= Iteration:        10 =============================

     Lanczos converged:  T threshold:   0.100E-02
     Est. extremal eigenvalues:    0.282E+01   0.173E+00
     Est. condition number :    0.163E+02

 Order=           3
     NS sqrt iter    1 1.00000000   0.717E+00       0.001       59.232
     NS sqrt iter    2 1.00000000   0.340E+00       0.001       98.086
     NS sqrt iter    3 1.00000000   0.821E-01       0.001       99.562
     NS sqrt iter    4 1.00000000   0.243E-02       0.001       99.491
     NS sqrt iter    5 1.00000000   0.129E-06       0.001       72.592
     Symmetrizing Results
     Final NS sqrt iter    5 1.00000000   0.111E-08

     Est. extremal eigenvalues     -0.93606     1.72456  converged:  T
     TRS4 it   1 1.00000000   0.885E+00       0.000       16.128   0.100E-07
     TRS4 it   2 1.00000000   0.627E+00       0.001       32.256   0.100E-07
     TRS4 it   3 1.00000000   0.430E+00       0.001       32.256   0.100E-07
     TRS4 it   4 1.00000000   0.223E+00       0.001       32.256   0.100E-07
     TRS4 it   5 1.00000000   0.756E-01       0.001       32.256   0.100E-07
     TRS4 it   6 1.00000000   0.108E-01       0.001       32.256   0.100E-07
     TRS4 it   7 1.00000000   0.295E-03       0.001       32.256   0.100E-07
     TRS4 it   8 1.00000000   0.308E-06       0.001       32.256   0.100E-07
     TRS4 it   9 1.00000000   0.408E-12       0.001       32.256   0.100E-07
     Final TRS4 iteration    9 1.00000000   0.408E-12
     Chemical potential (mu):       0.00638
 
 PAO| energy:  -7.7868162007451138      penalty:   1.4518809599055118E-005
 PAO|LS| adapt:  T T F
 PAO|LS| adapt: scan_steps:    0.0000000000000000       0.22918959968120192        0.0000000000000000     
 PAO|LS| adapt: energies:   -7.7818091332096477       -7.7868162007451138        0.0000000000000000     
 PAO| ======================= Iteration:        11 =============================

     Lanczos converged:  T threshold:   0.100E-02
     Est. extremal eigenvalues:    0.279E+01   0.179E+00
     Est. condition number :    0.156E+02

 Order=           3
     NS sqrt iter    1 1.00000000   0.709E+00       0.001       59.113
     NS sqrt iter    2 1.00000000   0.331E+00       0.001       99.596
     NS sqrt iter    3 1.00000000   0.767E-01       0.001       99.829
     NS sqrt iter    4 1.00000000   0.199E-02       0.001       99.665
     NS sqrt iter    5 1.00000000   0.698E-07       0.001       68.858
     Symmetrizing Results
     Final NS sqrt iter    5 1.00000000   0.537E-09

     Est. extremal eigenvalues     -0.93598     1.71902  converged:  T
     TRS4 it   1 1.00000000   0.883E+00       0.000       16.128   0.100E-07
     TRS4 it   2 1.00000000   0.626E+00       0.001       32.256   0.100E-07
     TRS4 it   3 1.00000000   0.428E+00       0.001       32.256   0.100E-07
     TRS4 it   4 1.00000000   0.221E+00       0.001       32.256   0.100E-07
     TRS4 it   5 1.00000000   0.734E-01       0.001       32.256   0.100E-07
     TRS4 it   6 1.00000000   0.101E-01       0.001       32.256   0.100E-07
     TRS4 it   7 1.00000000   0.255E-03       0.001       32.256   0.100E-07
     TRS4 it   8 1.00000000   0.224E-06       0.001       32.256   0.100E-07
     TRS4 it   9 1.00000000   0.212E-12       0.001       32.256   0.100E-07
     Final TRS4 iteration    9 1.00000000   0.212E-12
     Chemical potential (mu):       0.00957
 
 PAO| energy:  -7.7854047190450082      penalty:   1.5712583977780268E-005
 PAO|LS| adapt:  T T T
 PAO|LS| adapt: scan_steps:    0.0000000000000000       0.22918959968120192       0.45837919936240384     
 PAO|LS| adapt: energies:   -7.7818091332096477       -7.7868162007451138       -7.7854047190450082     
 PAO|LS| adapt: suggested step_size:   0.29338408101809393     
 PAO|LS| adapt: predicted energy  -7.7870679756599923     
 PAO| ======================= Iteration:        12 =============================

     Lanczos converged:  T threshold:   0.100E-02
     Est. extremal eigenvalues:    0.281E+01   0.175E+00
     Est. condition number :    0.161E+02

 Order=           3
     NS sqrt iter    1 1.00000000   0.714E+00       0.001       59.927
     NS sqrt iter    2 1.00000000   0.337E+00       0.001      100.440
     NS sqrt iter    3 1.00000000   0.806E-01       0.001       96.166
     NS sqrt iter    4 1.00000000   0.230E-02       0.001       98.970
     NS sqrt iter    5 1.00000000   0.109E-06       0.001       74.384
     Symmetrizing Results
     Final NS sqrt iter    5 1.00000000   0.101E-08

     Est. extremal eigenvalues     -0.93614     1.72290  converged:  T
     TRS4 it   1 1.00000000   0.885E+00       0.000       16.128   0.100E-07
     TRS4 it   2 1.00000000   0.627E+00       0.001       32.256   0.100E-07
     TRS4 it   3 1.00000000   0.429E+00       0.001       32.256   0.100E-07
     TRS4 it   4 1.00000000   0.223E+00       0.001       32.256   0.100E-07
     TRS4 it   5 1.00000000   0.749E-01       0.001       32.256   0.100E-07
     TRS4 it   6 1.00000000   0.106E-01       0.001       32.256   0.100E-07
     TRS4 it   7 1.00000000   0.283E-03       0.001       32.256   0.100E-07
     TRS4 it   8 1.00000000   0.282E-06       0.001       32.256   0.100E-07
     TRS4 it   9 1.00000000   0.341E-12       0.001       32.256   0.100E-07
     Final TRS4 iteration    9 1.00000000   0.341E-12
     Chemical potential (mu):       0.00726
 
 PAO| energy:  -7.7870519058178500      penalty:   1.4778752502507555E-005
 PAO|CG| trace_G_new    1.1760079813809308E-002
 PAO|CG| trace_G_prev    3.6693571409647734E-002
 PAO|CG| trace_G_mix   -4.5846958002550850E-004
 PAO|CG| trace_D    4.4431544985066407E-002
 PAO|CG| trace_D_Gnew   2.0890275255556882E-004
 PAO|CG| beta:   0.33298882949895220     
 PAO| norm of gradient:  0.10844390169027167     
 PAO| energy improvement:  -5.2427726082022730E-003
 PAO| step     12                   -7.787051906  0.678E-02  0.293E+00     0.057
 PAO|LS| adapt:  T F F
 PAO|LS| adapt: scan_steps:    0.0000000000000000        0.0000000000000000        0.0000000000000000     
 PAO|LS| adapt: energies:   -7.7870519058178500        0.0000000000000000        0.0000000000000000     
 PAO| ======================= Iteration:        13 =============================

     Lanczos converged:  T threshold:   0.100E-02
     Est. extremal eigenvalues:    0.278E+01   0.179E+00
     Est. condition number :    0.155E+02

 Order=           3
     NS sqrt iter    1 1.00000000   0.707E+00       0.001       59.149
     NS sqrt iter    2 1.00000000   0.330E+00       0.001       99.353
     NS sqrt iter    3 1.00000000   0.762E-01       0.001       99.756
     NS sqrt iter    4 1.00000000   0.196E-02       0.001       98.518
     NS sqrt iter    5 1.00000000   0.673E-07       0.001       68.589
     Symmetrizing Results
     Final NS sqrt iter    5 1.00000000   0.879E-09

     Est. extremal eigenvalues     -0.93662     1.71507  converged:  T
     TRS4 it   1 1.00000000   0.884E+00       0.000       16.128   0.100E-07
     TRS4 it   2 1.00000000   0.624E+00       0.001       32.256   0.100E-07
     TRS4 it   3 1.00000000   0.425E+00       0.001       32.256   0.100E-07
     TRS4 it   4 1.00000000   0.218E+00       0.001       32.256   0.100E-07
     TRS4 it   5 1.00000000   0.713E-01       0.001       32.256   0.100E-07
     TRS4 it   6 1.00000000   0.956E-02       0.001       32.256   0.100E-07
     TRS4 it   7 1.00000000   0.226E-03       0.001       32.256   0.100E-07
     TRS4 it   8 1.00000000   0.175E-06       0.001       32.256   0.100E-07
     TRS4 it   9 1.00000000   0.129E-12       0.001       32.256   0.100E-07
     Final TRS4 iteration    9 1.00000000   0.129E-12
     Chemical potential (mu):       0.01174
 
 PAO| energy:  -7.7891126073492858      penalty:   1.5078560354414867E-005
 PAO|LS| adapt:  T T F
 PAO|LS| adapt: scan_steps:    0.0000000000000000       0.29338408101809393        0.0000000000000000     
 PAO|LS| adapt: energies:   -7.7870519058178500       -7.7891126073492858        0.0000000000000000     
 PAO| ======================= Iteration:        14 =============================

     Lanczos converged:  T threshold:   0.100E-02
     Est. extremal eigenvalues:    0.274E+01   0.183E+00
     Est. condition number :    0.150E+02

 Order=           3
     NS sqrt iter    1 1.00000000   0.700E+00       0.001       59.356
     NS sqrt iter    2 1.00000000   0.323E+00       0.001       98.455
     NS sqrt iter    3 1.00000000   0.721E-01       0.001       98.013
     NS sqrt iter    4 1.00000000   0.166E-02       0.001       99.251
     NS sqrt iter    5 1.00000000   0.415E-07       0.001       64.199
     Symmetrizing Results
     Final NS sqrt iter    5 1.00000000   0.471E-09

     Est. extremal eigenvalues     -0.93661     1.70755  converged:  T
     TRS4 it   1 1.00000000   0.883E+00       0.000       16.128   0.100E-07
     TRS4 it   2 1.00000000   0.620E+00       0.001       32.256   0.100E-07
     TRS4 it   3 1.00000000   0.421E+00       0.001       32.256   0.100E-07
     TRS4 it   4 1.00000000   0.213E+00       0.001       32.256   0.100E-07
     TRS4 it   5 1.00000000   0.678E-01       0.001       32.256   0.100E-07
     TRS4 it   6 1.00000000   0.860E-02       0.001       32.256   0.100E-07
     TRS4 it   7 1.00000000   0.181E-03       0.001       32.256   0.100E-07
     TRS4 it   8 1.00000000   0.109E-06       0.001       32.256   0.100E-07
     TRS4 it   9 1.00000000   0.488E-13       0.001       32.256   0.100E-07
     Final TRS4 iteration    9 1.00000000   0.488E-13
     Chemical potential (mu):       0.01611
 
 PAO| energy:  -7.7884848378623088      penalty:   1.5853967414117336E-005
 PAO|LS| adapt:  T T T
 PAO|LS| adapt: scan_steps:    0.0000000000000000       0.29338408101809393       0.58676816203618787     
 PAO|LS| adapt: energies:   -7.7870519058178500       -7.7891126073492858       -7.7884848378623088     
 PAO|LS| adapt: suggested step_size:   0.37156968319600620     
 PAO|LS| adapt: predicted energy  -7.7892080749138417     
 PAO| ======================= Iteration:        15 =============================

     Lanczos converged:  T threshold:   0.100E-02
     Est. extremal eigenvalues:    0.277E+01   0.180E+00
     Est. condition number :    0.154E+02

 Order=           3
     NS sqrt iter    1 1.00000000   0.705E+00       0.001       59.268
     NS sqrt iter    2 1.00000000   0.328E+00       0.001       98.501
     NS sqrt iter    3 1.00000000   0.751E-01       0.001       99.075
     NS sqrt iter    4 1.00000000   0.187E-02       0.001      100.792
     NS sqrt iter    5 1.00000000   0.591E-07       0.001       69.252
     Symmetrizing Results
     Final NS sqrt iter    5 1.00000000   0.697E-09

     Est. extremal eigenvalues     -0.93666     1.71303  converged:  T
     TRS4 it   1 1.00000000   0.883E+00       0.000       16.128   0.100E-07
     TRS4 it   2 1.00000000   0.623E+00       0.001       32.256   0.100E-07
     TRS4 it   3 1.00000000   0.424E+00       0.001       32.256   0.100E-07
     TRS4 it   4 1.00000000   0.216E+00       0.001       32.256   0.100E-07
     TRS4 it   5 1.00000000   0.703E-01       0.001       32.256   0.100E-07
     TRS4 it   6 1.00000000   0.929E-02       0.001       32.256   0.100E-07
     TRS4 it   7 1.00000000   0.213E-03       0.001       32.256   0.100E-07
     TRS4 it   8 1.00000000   0.154E-06       0.001       32.256   0.100E-07
     TRS4 it   9 1.00000000   0.101E-12       0.001       32.256   0.100E-07
     Final TRS4 iteration    9 1.00000000   0.101E-12
     Chemical potential (mu):       0.01291
 
 PAO| energy:  -7.7892049691737348      penalty:   1.5235653069970195E-005
 PAO|CG| trace_G_new    2.6155212793128281E-003
 PAO|CG| trace_G_prev    1.1760079813809308E-002
 PAO|CG| trace_G_mix    6.2619830514577688E-005
 PAO|CG| trace_D    1.6547594294232536E-002
 PAO|CG| trace_D_Gnew   3.3732842408772278E-005
 PAO|CG| beta:   0.21708198321923791     
 PAO| norm of gradient:   5.1142167331008057E-002
 PAO| energy improvement:  -2.1530633558848322E-003
 PAO| step     15                   -7.789204969  0.320E-02  0.372E+00     0.058
 PAO|LS| adapt:  T F F
 PAO|LS| adapt: scan_steps:    0.0000000000000000        0.0000000000000000        0.0000000000000000     
 PAO|LS| adapt: energies:   -7.7892049691737348        0.0000000000000000        0.0000000000000000     
 PAO| ======================= Iteration:        16 =============================

     Lanczos converged:  T threshold:   0.100E-02
     Est. extremal eigenvalues:    0.276E+01   0.181E+00
     Est. condition number :    0.152E+02

 Order=           3
     NS sqrt iter    1 1.00000000   0.703E+00       0.001       59.643
     NS sqrt iter    2 1.00000000   0.327E+00       0.001      100.814
     NS sqrt iter    3 1.00000000   0.744E-01       0.001       99.893
     NS sqrt iter    4 1.00000000   0.181E-02       0.001      101.836
     NS sqrt iter    5 1.00000000   0.536E-07       0.001       67.601
     Symmetrizing Results
     Final NS sqrt iter    5 1.00000000   0.644E-09

     Est. extremal eigenvalues     -0.93669     1.71160  converged:  T
     TRS4 it   1 1.00000000   0.883E+00       0.000       16.128   0.100E-07
     TRS4 it   2 1.00000000   0.622E+00       0.001       32.256   0.100E-07
     TRS4 it   3 1.00000000   0.423E+00       0.001       32.256   0.100E-07
     TRS4 it   4 1.00000000   0.215E+00       0.001       32.256   0.100E-07
     TRS4 it   5 1.00000000   0.691E-01       0.001       32.256   0.100E-07
     TRS4 it   6 1.00000000   0.898E-02       0.001       32.256   0.100E-07
     TRS4 it   7 1.00000000   0.200E-03       0.001       32.256   0.100E-07
     TRS4 it   8 1.00000000   0.138E-06       0.001       32.256   0.100E-07
     TRS4 it   9 1.00000000   0.797E-13       0.001       32.256   0.100E-07
     Final TRS4 iteration    9 1.00000000   0.797E-13
     Chemical potential (mu):       0.01374
 
 PAO| energy:  -7.7893281597794797      penalty:   1.5015218717168038E-005
 PAO|LS| adapt:  T T F
 PAO|LS| adapt: scan_steps:    0.0000000000000000       0.37156968319600620        0.0000000000000000     
 PAO|LS| adapt: energies:   -7.7892049691737348       -7.7893281597794797        0.0000000000000000     
 PAO| ======================= Iteration:        17 =============================

     Lanczos converged:  T threshold:   0.100E-02
     Est. extremal eigenvalues:    0.275E+01   0.182E+00
     Est. condition number :    0.151E+02

 Order=           3
     NS sqrt iter    1 1.00000000   0.701E+00       0.001       59.182
     NS sqrt iter    2 1.00000000   0.326E+00       0.001       98.626
     NS sqrt iter    3 1.00000000   0.737E-01       0.001       99.300
     NS sqrt iter    4 1.00000000   0.176E-02       0.001       98.548
     NS sqrt iter    5 1.00000000   0.486E-07       0.001       65.653
     Symmetrizing Results
     Final NS sqrt iter    5 1.00000000   0.654E-09

     Est. extremal eigenvalues     -0.93660     1.71025  converged:  T
     TRS4 it   1 1.00000000   0.883E+00       0.000       16.128   0.100E-07
     TRS4 it   2 1.00000000   0.621E+00       0.001       32.256   0.100E-07
     TRS4 it   3 1.00000000   0.421E+00       0.001       32.256   0.100E-07
     TRS4 it   4 1.00000000   0.213E+00       0.001       32.256   0.100E-07
     TRS4 it   5 1.00000000   0.679E-01       0.001       32.256   0.100E-07
     TRS4 it   6 1.00000000   0.868E-02       0.001       32.256   0.100E-07
     TRS4 it   7 1.00000000   0.188E-03       0.001       32.256   0.100E-07
     TRS4 it   8 1.00000000   0.123E-06       0.001       32.256   0.100E-07
     TRS4 it   9 1.00000000   0.638E-13       0.001       32.256   0.100E-07
     Final TRS4 iteration    9 1.00000000   0.638E-13
     Chemical potential (mu):       0.01454
 
 PAO| energy:  -7.7877540334678619      penalty:   1.4921316687185717E-005
 PAO|LS| adapt:  T T T
 PAO|LS| adapt: scan_steps:    0.0000000000000000       0.37156968319600620       0.74313936639201239     
 PAO|LS| adapt: energies:   -7.7892049691737348       -7.7893281597794797       -7.7877540334678619     
 PAO|LS| adapt: suggested step_size:   0.21275322556984214     
 PAO|LS| adapt: predicted energy  -7.7894831996545504     
 PAO| ======================= Iteration:        18 =============================

     Lanczos converged:  T threshold:   0.100E-02
     Est. extremal eigenvalues:    0.276E+01   0.181E+00
     Est. condition number :    0.153E+02

 Order=           3
     NS sqrt iter    1 1.00000000   0.704E+00       0.001       58.031
     NS sqrt iter    2 1.00000000   0.328E+00       0.001       99.273
     NS sqrt iter    3 1.00000000   0.747E-01       0.001       99.721
     NS sqrt iter    4 1.00000000   0.184E-02       0.001       98.698
     NS sqrt iter    5 1.00000000   0.559E-07       0.001       69.618
     Symmetrizing Results
     Final NS sqrt iter    5 1.00000000   0.676E-09

     Est. extremal eigenvalues     -0.93670     1.71221  converged:  T
     TRS4 it   1 1.00000000   0.883E+00       0.000       16.128   0.100E-07
     TRS4 it   2 1.00000000   0.622E+00       0.001       32.256   0.100E-07
     TRS4 it   3 1.00000000   0.423E+00       0.001       32.256   0.100E-07
     TRS4 it   4 1.00000000   0.215E+00       0.001       32.256   0.100E-07
     TRS4 it   5 1.00000000   0.696E-01       0.001       32.256   0.100E-07
     TRS4 it   6 1.00000000   0.911E-02       0.001       32.256   0.100E-07
     TRS4 it   7 1.00000000   0.206E-03       0.001       32.256   0.100E-07
     TRS4 it   8 1.00000000   0.145E-06       0.001       32.256   0.100E-07
     TRS4 it   9 1.00000000   0.880E-13       0.001       32.256   0.100E-07
     Final TRS4 iteration    9 1.00000000   0.880E-13
     Chemical potential (mu):       0.01339
 
 PAO| energy:  -7.7894827520884480      penalty:   1.5094236396542632E-005
 PAO|CG| trace_G_new    7.2380808221697308E-004
 PAO|CG| trace_G_prev    2.6155212793128281E-003
 PAO|CG| trace_G_mix    1.3602660084960808E-006
 PAO|CG| trace_D    3.3806742488670808E-003
 PAO|CG| trace_D_Gnew  -1.6897130991261099E-006
 PAO|CG| beta:   0.27621561404321077     
 PAO| norm of gradient:   2.6903681573661496E-002
 PAO| energy improvement:  -2.7778291471314276E-004
 PAO| step     18                   -7.789482752  0.168E-02  0.213E+00     0.057
 PAO|LS| adapt:  T F F
 PAO|LS| adapt: scan_steps:    0.0000000000000000        0.0000000000000000        0.0000000000000000     
 PAO|LS| adapt: energies:   -7.7894827520884480        0.0000000000000000        0.0000000000000000     
 PAO| ======================= Iteration:        19 =============================

     Lanczos converged:  T threshold:   0.100E-02
     Est. extremal eigenvalues:    0.276E+01   0.181E+00
     Est. condition number :    0.153E+02

 Order=           3
     NS sqrt iter    1 1.00000000   0.704E+00       0.001       59.213
     NS sqrt iter    2 1.00000000   0.328E+00       0.001       97.872
     NS sqrt iter    3 1.00000000   0.749E-01       0.001       98.810
     NS sqrt iter    4 1.00000000   0.185E-02       0.001       99.235
     NS sqrt iter    5 1.00000000   0.565E-07       0.001       66.632
     Symmetrizing Results
     Final NS sqrt iter    5 1.00000000   0.689E-09

     Est. extremal eigenvalues     -0.93670     1.71238  converged:  T
     TRS4 it   1 1.00000000   0.883E+00       0.000       16.128   0.100E-07
     TRS4 it   2 1.00000000   0.622E+00       0.001       32.256   0.100E-07
     TRS4 it   3 1.00000000   0.423E+00       0.001       32.256   0.100E-07
     TRS4 it   4 1.00000000   0.215E+00       0.001       32.256   0.100E-07
     TRS4 it   5 1.00000000   0.695E-01       0.001       32.256   0.100E-07
     TRS4 it   6 1.00000000   0.910E-02       0.001       32.256   0.100E-07
     TRS4 it   7 1.00000000   0.206E-03       0.001       32.256   0.100E-07
     TRS4 it   8 1.00000000   0.147E-06       0.001       32.256   0.100E-07
     TRS4 it   9 1.00000000   0.915E-13       0.001       32.256   0.100E-07
     Final TRS4 iteration    9 1.00000000   0.915E-13
     Chemical potential (mu):       0.01310
 
 PAO| energy:  -7.7896001833069590      penalty:   1.4804954032733091E-005
 PAO|LS| adapt:  T T F
 PAO|LS| adapt: scan_steps:    0.0000000000000000       0.21275322556984214        0.0000000000000000     
 PAO|LS| adapt: energies:   -7.7894827520884480       -7.7896001833069590        0.0000000000000000     
 PAO| ======================= Iteration:        20 =============================

     Lanczos converged:  T threshold:   0.100E-02
     Est. extremal eigenvalues:    0.276E+01   0.180E+00
     Est. condition number :    0.153E+02

 Order=           3
     NS sqrt iter    1 1.00000000   0.704E+00       0.001       58.850
     NS sqrt iter    2 1.00000000   0.328E+00       0.001       99.242
     NS sqrt iter    3 1.00000000   0.751E-01       0.001       98.630
     NS sqrt iter    4 1.00000000   0.186E-02       0.001       98.582
     NS sqrt iter    5 1.00000000   0.572E-07       0.001       67.060
     Symmetrizing Results
     Final NS sqrt iter    5 1.00000000   0.703E-09

     Est. extremal eigenvalues     -0.93669     1.71255  converged:  T
     TRS4 it   1 1.00000000   0.883E+00       0.000       16.128   0.100E-07
     TRS4 it   2 1.00000000   0.622E+00       0.001       32.256   0.100E-07
     TRS4 it   3 1.00000000   0.423E+00       0.001       32.256   0.100E-07
     TRS4 it   4 1.00000000   0.215E+00       0.001       32.256   0.100E-07
     TRS4 it   5 1.00000000   0.694E-01       0.001       32.256   0.100E-07
     TRS4 it   6 1.00000000   0.910E-02       0.001       32.256   0.100E-07
     TRS4 it   7 1.00000000   0.207E-03       0.001       32.256   0.100E-07
     TRS4 it   8 1.00000000   0.149E-06       0.001       32.256   0.100E-07
     TRS4 it   9 1.00000000   0.959E-13       0.001       32.256   0.100E-07
     Final TRS4 iteration    9 1.00000000   0.959E-13
     Chemical potential (mu):       0.01281
 
 PAO| energy:  -7.7896439050590836      penalty:   1.4528095549836380E-005
 PAO|LS| adapt:  T T F
 PAO|LS| adapt: scan_steps:    0.0000000000000000       0.42550645113968427        0.0000000000000000     
 PAO|LS| adapt: energies:   -7.7894827520884480       -7.7896439050590836        0.0000000000000000     
 PAO| ======================= Iteration:        21 =============================

     Lanczos converged:  T threshold:   0.100E-02
     Est. extremal eigenvalues:    0.276E+01   0.180E+00
     Est. condition number :    0.154E+02

 Order=           3
     NS sqrt iter    1 1.00000000   0.704E+00       0.001       58.832
     NS sqrt iter    2 1.00000000   0.329E+00       0.001       99.436
     NS sqrt iter    3 1.00000000   0.755E-01       0.001       97.663
     NS sqrt iter    4 1.00000000   0.188E-02       0.001       98.798
     NS sqrt iter    5 1.00000000   0.586E-07       0.001       66.896
     Symmetrizing Results
     Final NS sqrt iter    5 1.00000000   0.698E-09

     Est. extremal eigenvalues     -0.93668     1.71292  converged:  T
     TRS4 it   1 1.00000000   0.884E+00       0.000       16.128   0.100E-07
     TRS4 it   2 1.00000000   0.622E+00       0.001       32.256   0.100E-07
     TRS4 it   3 1.00000000   0.423E+00       0.001       32.256   0.100E-07
     TRS4 it   4 1.00000000   0.215E+00       0.001       32.256   0.100E-07
     TRS4 it   5 1.00000000   0.692E-01       0.001       32.256   0.100E-07
     TRS4 it   6 1.00000000   0.908E-02       0.001       32.256   0.100E-07
     TRS4 it   7 1.00000000   0.208E-03       0.001       32.256   0.100E-07
     TRS4 it   8 1.00000000   0.154E-06       0.001       32.256   0.100E-07
     TRS4 it   9 1.00000000   0.102E-12       0.001       32.256   0.100E-07
     Final TRS4 iteration    9 1.00000000   0.102E-12
     Chemical potential (mu):       0.01222
 
 PAO| energy:  -7.7895078830981346      penalty:   1.4011069170281165E-005
 PAO|LS| Need extra step
 PAO|LS| adapt:  T T T
 PAO|LS| adapt: scan_steps:    0.0000000000000000       0.42550645113968427       0.85101290227936854     
 PAO|LS| adapt: energies:   -7.7894827520884480       -7.7896439050590836       -7.7895078830981346     
 PAO|LS| adapt: suggested step_size:   0.44349822233028102     
 PAO|LS| adapt: predicted energy  -7.7896441707139132     
 PAO| ======================= Iteration:        22 =============================

     Lanczos converged:  T threshold:   0.100E-02
     Est. extremal eigenvalues:    0.276E+01   0.180E+00
     Est. condition number :    0.153E+02

 Order=           3
     NS sqrt iter    1 1.00000000   0.704E+00       0.001       58.472
     NS sqrt iter    2 1.00000000   0.328E+00       0.001       98.820
     NS sqrt iter    3 1.00000000   0.751E-01       0.001       99.569
     NS sqrt iter    4 1.00000000   0.186E-02       0.001       99.520
     NS sqrt iter    5 1.00000000   0.572E-07       0.001       68.473
     Symmetrizing Results
     Final NS sqrt iter    5 1.00000000   0.704E-09

     Est. extremal eigenvalues     -0.93669     1.71257  converged:  T
     TRS4 it   1 1.00000000   0.883E+00       0.000       16.128   0.100E-07
     TRS4 it   2 1.00000000   0.622E+00       0.001       32.256   0.100E-07
     TRS4 it   3 1.00000000   0.423E+00       0.001       32.256   0.100E-07
     TRS4 it   4 1.00000000   0.215E+00       0.001       32.256   0.100E-07
     TRS4 it   5 1.00000000   0.694E-01       0.001       32.256   0.100E-07
     TRS4 it   6 1.00000000   0.910E-02       0.001       32.256   0.100E-07
     TRS4 it   7 1.00000000   0.207E-03       0.001       32.256   0.100E-07
     TRS4 it   8 1.00000000   0.149E-06       0.001       32.256   0.100E-07
     TRS4 it   9 1.00000000   0.956E-13       0.001       32.256   0.100E-07
     Final TRS4 iteration    9 1.00000000   0.956E-13
     Chemical potential (mu):       0.01278
 
 PAO| energy:  -7.7896442036241051      penalty:   1.4505246724653973E-005
 PAO|CG| trace_G_new    2.1917753195944200E-004
 PAO|CG| trace_G_prev    7.2380808221697308E-004
 PAO|CG| trace_G_mix    2.9222856460754543E-006
 PAO|CG| trace_D    9.8267029555236030E-004
 PAO|CG| trace_D_Gnew  -1.8232205802281495E-006
 PAO|CG| beta:   0.29877429062548178     
 PAO| norm of gradient:   1.4804645620866513E-002
 PAO| energy improvement:  -1.6145153565716441E-004
 PAO| step     22                   -7.789644204  0.925E-03  0.443E+00     0.075
 PAO|LS| adapt:  T F F
 PAO|LS| adapt: scan_steps:    0.0000000000000000        0.0000000000000000        0.0000000000000000     
 PAO|LS| adapt: energies:   -7.7896442036241051        0.0000000000000000        0.0000000000000000     
 PAO| ======================= Iteration:        23 =============================

     Lanczos converged:  T threshold:   0.100E-02
     Est. extremal eigenvalues:    0.276E+01   0.180E+00
     Est. condition number :    0.153E+02

 Order=           3
     NS sqrt iter    1 1.00000000   0.704E+00       0.001       58.996
     NS sqrt iter    2 1.00000000   0.328E+00       0.001       98.561
     NS sqrt iter    3 1.00000000   0.751E-01       0.001       99.002
     NS sqrt iter    4 1.00000000   0.186E-02       0.001       99.576
     NS sqrt iter    5 1.00000000   0.573E-07       0.001       67.083
     Symmetrizing Results
     Final NS sqrt iter    5 1.00000000   0.705E-09

     Est. extremal eigenvalues     -0.93669     1.71251  converged:  T
     TRS4 it   1 1.00000000   0.883E+00       0.000       16.128   0.100E-07
     TRS4 it   2 1.00000000   0.622E+00       0.001       32.256   0.100E-07
     TRS4 it   3 1.00000000   0.423E+00       0.001       32.256   0.100E-07
     TRS4 it   4 1.00000000   0.215E+00       0.001       32.256   0.100E-07
     TRS4 it   5 1.00000000   0.695E-01       0.001       32.256   0.100E-07
     TRS4 it   6 1.00000000   0.914E-02       0.001       32.256   0.100E-07
     TRS4 it   7 1.00000000   0.210E-03       0.001       32.256   0.100E-07
     TRS4 it   8 1.00000000   0.153E-06       0.001       32.256   0.100E-07
     TRS4 it   9 1.00000000   0.100E-12       0.001       32.256   0.100E-07
     Final TRS4 iteration    9 1.00000000   0.100E-12
     Chemical potential (mu):       0.01244
 
 PAO| energy:  -7.7896928260745417      penalty:   1.3826661275153358E-005
 PAO|LS| adapt:  T T F
 PAO|LS| adapt: scan_steps:    0.0000000000000000       0.44349822233028102        0.0000000000000000     
 PAO|LS| adapt: energies:   -7.7896442036241051       -7.7896928260745417        0.0000000000000000     
 PAO| ======================= Iteration:        24 =============================

     Lanczos converged:  T threshold:   0.100E-02
     Est. extremal eigenvalues:    0.276E+01   0.180E+00
     Est. condition number :    0.153E+02

 Order=           3
     NS sqrt iter    1 1.00000000   0.704E+00       0.001       58.364
     NS sqrt iter    2 1.00000000   0.328E+00       0.001       99.414
     NS sqrt iter    3 1.00000000   0.752E-01       0.001       99.665
     NS sqrt iter    4 1.00000000   0.186E-02       0.001       98.546
     NS sqrt iter    5 1.00000000   0.574E-07       0.001       66.381
     Symmetrizing Results
     Final NS sqrt iter    5 1.00000000   0.707E-09

     Est. extremal eigenvalues     -0.93669     1.71244  converged:  T
     TRS4 it   1 1.00000000   0.883E+00       0.000       16.128   0.100E-07
     TRS4 it   2 1.00000000   0.622E+00       0.001       32.256   0.100E-07
     TRS4 it   3 1.00000000   0.423E+00       0.001       32.256   0.100E-07
     TRS4 it   4 1.00000000   0.215E+00       0.001       32.256   0.100E-07
     TRS4 it   5 1.00000000   0.697E-01       0.001       32.256   0.100E-07
     TRS4 it   6 1.00000000   0.919E-02       0.001       32.256   0.100E-07
     TRS4 it   7 1.00000000   0.212E-03       0.001       32.256   0.100E-07
     TRS4 it   8 1.00000000   0.158E-06       0.001       32.256   0.100E-07
     TRS4 it   9 1.00000000   0.107E-12       0.001       32.256   0.100E-07
     Final TRS4 iteration    9 1.00000000   0.107E-12
     Chemical potential (mu):       0.01210
 
 PAO| energy:  -7.7896431933010675      penalty:   1.3176032867012926E-005
 PAO|LS| adapt:  T T T
 PAO|LS| adapt: scan_steps:    0.0000000000000000       0.44349822233028102       0.88699644466056204     
 PAO|LS| adapt: energies:   -7.7896442036241051       -7.7896928260745417       -7.7896431933010675     
 PAO|LS| adapt: suggested step_size:   0.44121805618056492     
 PAO|LS| adapt: predicted energy  -7.7896928273731394     
 PAO| ======================= Iteration:        25 =============================

     Lanczos converged:  T threshold:   0.100E-02
     Est. extremal eigenvalues:    0.276E+01   0.180E+00
     Est. condition number :    0.153E+02

 Order=           3
     NS sqrt iter    1 1.00000000   0.704E+00       0.001       58.768
     NS sqrt iter    2 1.00000000   0.328E+00       0.001       99.173
     NS sqrt iter    3 1.00000000   0.751E-01       0.001       99.644
     NS sqrt iter    4 1.00000000   0.186E-02       0.001       97.444
     NS sqrt iter    5 1.00000000   0.573E-07       0.001       69.008
     Symmetrizing Results
     Final NS sqrt iter    5 1.00000000   0.705E-09

     Est. extremal eigenvalues     -0.93669     1.71251  converged:  T
     TRS4 it   1 1.00000000   0.883E+00       0.000       16.128   0.100E-07
     TRS4 it   2 1.00000000   0.622E+00       0.001       32.256   0.100E-07
     TRS4 it   3 1.00000000   0.423E+00       0.001       32.256   0.100E-07
     TRS4 it   4 1.00000000   0.215E+00       0.001       32.256   0.100E-07
     TRS4 it   5 1.00000000   0.695E-01       0.001       32.256   0.100E-07
     TRS4 it   6 1.00000000   0.914E-02       0.001       32.256   0.100E-07
     TRS4 it   7 1.00000000   0.210E-03       0.001       32.256   0.100E-07
     TRS4 it   8 1.00000000   0.153E-06       0.001       32.256   0.100E-07
     TRS4 it   9 1.00000000   0.100E-12       0.001       32.256   0.100E-07
     Final TRS4 iteration    9 1.00000000   0.100E-12
     Chemical potential (mu):       0.01245
 
 PAO| energy:  -7.7896928265924288      penalty:   1.3830078085887929E-005
 PAO|CG| trace_G_new    7.7416776116030376E-005
 PAO|CG| trace_G_prev    2.1917753195944200E-004
 PAO|CG| trace_G_mix    6.5724754337964654E-007
 PAO|CG| trace_D    3.0798611684214187E-004
 PAO|CG| trace_D_Gnew  -3.4255434594173186E-007
 PAO|CG| beta:   0.35021622830781213     
 PAO| norm of gradient:   8.7986803621924112E-003
 PAO| energy improvement:  -4.8622968323641658E-005
 PAO| step     25                   -7.789692827  0.550E-03  0.441E+00     0.057
 PAO|LS| adapt:  T F F
 PAO|LS| adapt: scan_steps:    0.0000000000000000        0.0000000000000000        0.0000000000000000     
 PAO|LS| adapt: energies:   -7.7896928265924288        0.0000000000000000        0.0000000000000000     
 PAO| ======================= Iteration:        26 =============================

     Lanczos converged:  T threshold:   0.100E-02
     Est. extremal eigenvalues:    0.276E+01   0.180E+00
     Est. condition number :    0.153E+02

 Order=           3
     NS sqrt iter    1 1.00000000   0.704E+00       0.001       59.330
     NS sqrt iter    2 1.00000000   0.328E+00       0.001       99.720
     NS sqrt iter    3 1.00000000   0.750E-01       0.001      100.115
     NS sqrt iter    4 1.00000000   0.185E-02       0.001       99.861
     NS sqrt iter    5 1.00000000   0.566E-07       0.001       67.343
     Symmetrizing Results
     Final NS sqrt iter    5 1.00000000   0.691E-09

     Est. extremal eigenvalues     -0.93670     1.71214  converged:  T
     TRS4 it   1 1.00000000   0.883E+00       0.000       16.128   0.100E-07
     TRS4 it   2 1.00000000   0.622E+00       0.001       32.256   0.100E-07
     TRS4 it   3 1.00000000   0.423E+00       0.001       32.256   0.100E-07
     TRS4 it   4 1.00000000   0.215E+00       0.001       32.256   0.100E-07
     TRS4 it   5 1.00000000   0.695E-01       0.001       32.256   0.100E-07
     TRS4 it   6 1.00000000   0.913E-02       0.001       32.256   0.100E-07
     TRS4 it   7 1.00000000   0.209E-03       0.001       32.256   0.100E-07
     TRS4 it   8 1.00000000   0.152E-06       0.001       32.256   0.100E-07
     TRS4 it   9 1.00000000   0.989E-13       0.001       32.256   0.100E-07
     Final TRS4 iteration    9 1.00000000   0.989E-13
     Chemical potential (mu):       0.01253
 
 PAO| energy:  -7.7896962167006469      penalty:   1.3112630578660759E-005
 PAO|LS| adapt:  T T F
 PAO|LS| adapt: scan_steps:    0.0000000000000000       0.44121805618056492        0.0000000000000000     
 PAO|LS| adapt: energies:   -7.7896928265924288       -7.7896962167006469        0.0000000000000000     
 PAO| ======================= Iteration:        27 =============================

     Lanczos converged:  T threshold:   0.100E-02
     Est. extremal eigenvalues:    0.276E+01   0.181E+00
     Est. condition number :    0.153E+02

 Order=           3
     NS sqrt iter    1 1.00000000   0.703E+00       0.001       59.147
     NS sqrt iter    2 1.00000000   0.328E+00       0.001       99.265
     NS sqrt iter    3 1.00000000   0.749E-01       0.001       99.810
     NS sqrt iter    4 1.00000000   0.185E-02       0.001       98.115
     NS sqrt iter    5 1.00000000   0.560E-07       0.001       67.283
     Symmetrizing Results
     Final NS sqrt iter    5 1.00000000   0.677E-09

     Est. extremal eigenvalues     -0.93670     1.71177  converged:  T
     TRS4 it   1 1.00000000   0.883E+00       0.000       16.128   0.100E-07
     TRS4 it   2 1.00000000   0.622E+00       0.001       32.256   0.100E-07
     TRS4 it   3 1.00000000   0.423E+00       0.001       32.256   0.100E-07
     TRS4 it   4 1.00000000   0.215E+00       0.001       32.256   0.100E-07
     TRS4 it   5 1.00000000   0.694E-01       0.001       32.256   0.100E-07
     TRS4 it   6 1.00000000   0.911E-02       0.001       32.256   0.100E-07
     TRS4 it   7 1.00000000   0.208E-03       0.001       32.256   0.100E-07
     TRS4 it   8 1.00000000   0.150E-06       0.001       32.256   0.100E-07
     TRS4 it   9 1.00000000   0.956E-13       0.001       32.256   0.100E-07
     Final TRS4 iteration    9 1.00000000   0.956E-13
     Chemical potential (mu):       0.01263
 
 PAO| energy:  -7.7896378657828205      penalty:   1.2418389629242026E-005
 PAO|LS| adapt:  T T T
 PAO|LS| adapt: scan_steps:    0.0000000000000000       0.44121805618056492       0.88243611236112984     
 PAO|LS| adapt: energies:   -7.7896928265924288       -7.7896962167006469       -7.7896378657828205     
 PAO|LS| adapt: suggested step_size:   0.24483565751449127     
 PAO|LS| adapt: predicted energy  -7.7897023323477015     
 PAO| ======================= Iteration:        28 =============================

     Lanczos converged:  T threshold:   0.100E-02
     Est. extremal eigenvalues:    0.276E+01   0.180E+00
     Est. condition number :    0.153E+02

 Order=           3
     NS sqrt iter    1 1.00000000   0.704E+00       0.001       59.808
     NS sqrt iter    2 1.00000000   0.328E+00       0.001       97.282
     NS sqrt iter    3 1.00000000   0.751E-01       0.001       99.802
     NS sqrt iter    4 1.00000000   0.186E-02       0.001       99.363
     NS sqrt iter    5 1.00000000   0.569E-07       0.001       68.879
     Symmetrizing Results
     Final NS sqrt iter    5 1.00000000   0.697E-09

     Est. extremal eigenvalues     -0.93669     1.71231  converged:  T
     TRS4 it   1 1.00000000   0.883E+00       0.000       16.128   0.100E-07
     TRS4 it   2 1.00000000   0.622E+00       0.001       32.256   0.100E-07
     TRS4 it   3 1.00000000   0.423E+00       0.001       32.256   0.100E-07
     TRS4 it   4 1.00000000   0.215E+00       0.001       32.256   0.100E-07
     TRS4 it   5 1.00000000   0.695E-01       0.001       32.256   0.100E-07
     TRS4 it   6 1.00000000   0.913E-02       0.001       32.256   0.100E-07
     TRS4 it   7 1.00000000   0.209E-03       0.001       32.256   0.100E-07
     TRS4 it   8 1.00000000   0.153E-06       0.001       32.256   0.100E-07
     TRS4 it   9 1.00000000   0.987E-13       0.001       32.256   0.100E-07
     Final TRS4 iteration    9 1.00000000   0.987E-13
     Chemical potential (mu):       0.01249
 
 PAO| energy:  -7.7897023234352645      penalty:   1.3429076241682387E-005
 PAO|CG| trace_G_new    2.9479085893722897E-005
 PAO|CG| trace_G_prev    7.7416776116030376E-005
 PAO|CG| trace_G_mix    4.2688160936666678E-008
 PAO|CG| trace_D    1.1543164273284985E-004
 PAO|CG| trace_D_Gnew  -2.3166434923842791E-008
 PAO|CG| beta:   0.38023280236660434     
 PAO| norm of gradient:   5.4294646047030179E-003
 PAO| energy improvement:  -9.4968428356878576E-006
 PAO| step     28                   -7.789702323  0.339E-03  0.245E+00     0.057
 PAO|LS| adapt:  T F F
 PAO|LS| adapt: scan_steps:    0.0000000000000000        0.0000000000000000        0.0000000000000000     
 PAO|LS| adapt: energies:   -7.7897023234352645        0.0000000000000000        0.0000000000000000     
 PAO| ======================= Iteration:        29 =============================

     Lanczos converged:  T threshold:   0.100E-02
     Est. extremal eigenvalues:    0.276E+01   0.180E+00
     Est. condition number :    0.153E+02

 Order=           3
     NS sqrt iter    1 1.00000000   0.704E+00       0.001       59.940
     NS sqrt iter    2 1.00000000   0.328E+00       0.001       99.472
     NS sqrt iter    3 1.00000000   0.750E-01       0.001       99.113
     NS sqrt iter    4 1.00000000   0.185E-02       0.001       97.334
     NS sqrt iter    5 1.00000000   0.566E-07       0.001       67.290
     Symmetrizing Results
     Final NS sqrt iter    5 1.00000000   0.689E-09

     Est. extremal eigenvalues     -0.93670     1.71217  converged:  T
     TRS4 it   1 1.00000000   0.883E+00       0.000       16.128   0.100E-07
     TRS4 it   2 1.00000000   0.622E+00       0.001       32.256   0.100E-07
     TRS4 it   3 1.00000000   0.423E+00       0.001       32.256   0.100E-07
     TRS4 it   4 1.00000000   0.215E+00       0.001       32.256   0.100E-07
     TRS4 it   5 1.00000000   0.694E-01       0.001       32.256   0.100E-07
     TRS4 it   6 1.00000000   0.911E-02       0.001       32.256   0.100E-07
     TRS4 it   7 1.00000000   0.208E-03       0.001       32.256   0.100E-07
     TRS4 it   8 1.00000000   0.151E-06       0.001       32.256   0.100E-07
     TRS4 it   9 1.00000000   0.968E-13       0.001       32.256   0.100E-07
     Final TRS4 iteration    9 1.00000000   0.968E-13
     Chemical potential (mu):       0.01261
 
 PAO| energy:  -7.7897086881007462      penalty:   1.3013568900054355E-005
 PAO|LS| adapt:  T T F
 PAO|LS| adapt: scan_steps:    0.0000000000000000       0.24483565751449127        0.0000000000000000     
 PAO|LS| adapt: energies:   -7.7897023234352645       -7.7897086881007462        0.0000000000000000     
 PAO| ======================= Iteration:        30 =============================

     Lanczos converged:  T threshold:   0.100E-02
     Est. extremal eigenvalues:    0.276E+01   0.181E+00
     Est. condition number :    0.153E+02

 Order=           3
     NS sqrt iter    1 1.00000000   0.703E+00       0.001       59.980
     NS sqrt iter    2 1.00000000   0.328E+00       0.001       97.507
     NS sqrt iter    3 1.00000000   0.750E-01       0.001       98.978
     NS sqrt iter    4 1.00000000   0.185E-02       0.001       99.116
     NS sqrt iter    5 1.00000000   0.563E-07       0.001       67.060
     Symmetrizing Results
     Final NS sqrt iter    5 1.00000000   0.681E-09

     Est. extremal eigenvalues     -0.93670     1.71204  converged:  T
     TRS4 it   1 1.00000000   0.883E+00       0.000       16.128   0.100E-07
     TRS4 it   2 1.00000000   0.622E+00       0.001       32.256   0.100E-07
     TRS4 it   3 1.00000000   0.423E+00       0.001       32.256   0.100E-07
     TRS4 it   4 1.00000000   0.215E+00       0.001       32.256   0.100E-07
     TRS4 it   5 1.00000000   0.693E-01       0.001       32.256   0.100E-07
     TRS4 it   6 1.00000000   0.909E-02       0.001       32.256   0.100E-07
     TRS4 it   7 1.00000000   0.207E-03       0.001       32.256   0.100E-07
     TRS4 it   8 1.00000000   0.149E-06       0.001       32.256   0.100E-07
     TRS4 it   9 1.00000000   0.951E-13       0.001       32.256   0.100E-07
     Final TRS4 iteration    9 1.00000000   0.951E-13
     Chemical potential (mu):       0.01272
 
 PAO| energy:  -7.7897133428324690      penalty:   1.2605291170387526E-005
 PAO|LS| adapt:  T T F
 PAO|LS| adapt: scan_steps:    0.0000000000000000       0.48967131502898253        0.0000000000000000     
 PAO|LS| adapt: energies:   -7.7897023234352645       -7.7897133428324690        0.0000000000000000     
 PAO| ======================= Iteration:        31 =============================

     Lanczos converged:  T threshold:   0.100E-02
     Est. extremal eigenvalues:    0.276E+01   0.181E+00
     Est. condition number :    0.153E+02

 Order=           3
     NS sqrt iter    1 1.00000000   0.703E+00       0.001       58.638
     NS sqrt iter    2 1.00000000   0.328E+00       0.001       98.843
     NS sqrt iter    3 1.00000000   0.748E-01       0.001       99.290
     NS sqrt iter    4 1.00000000   0.184E-02       0.001       99.909
     NS sqrt iter    5 1.00000000   0.558E-07       0.001       66.708
     Symmetrizing Results
     Final NS sqrt iter    5 1.00000000   0.659E-09

     Est. extremal eigenvalues     -0.93670     1.71178  converged:  T
     TRS4 it   1 1.00000000   0.883E+00       0.000       16.128   0.100E-07
     TRS4 it   2 1.00000000   0.622E+00       0.001       32.256   0.100E-07
     TRS4 it   3 1.00000000   0.423E+00       0.001       32.256   0.100E-07
     TRS4 it   4 1.00000000   0.214E+00       0.001       32.256   0.100E-07
     TRS4 it   5 1.00000000   0.692E-01       0.001       32.256   0.100E-07
     TRS4 it   6 1.00000000   0.905E-02       0.001       32.256   0.100E-07
     TRS4 it   7 1.00000000   0.205E-03       0.001       32.256   0.100E-07
     TRS4 it   8 1.00000000   0.146E-06       0.001       32.256   0.100E-07
     TRS4 it   9 1.00000000   0.902E-13       0.001       32.256   0.100E-07
     Final TRS4 iteration    9 1.00000000   0.902E-13
     Chemical potential (mu):       0.01295
 
 PAO| energy:  -7.7897175215200338      penalty:   1.1810292033722058E-005
 PAO|LS| Need extra step
 PAO|LS| adapt:  T T F
 PAO|LS| adapt: scan_steps:    0.0000000000000000       0.97934263005796507        0.0000000000000000     
 PAO|LS| adapt: energies:   -7.7897023234352645       -7.7897175215200338        0.0000000000000000     
 PAO| ======================= Iteration:        32 =============================

     Lanczos converged:  T threshold:   0.100E-02
     Est. extremal eigenvalues:    0.276E+01   0.181E+00
     Est. condition number :    0.153E+02

 Order=           3
[...]
     NS sqrt iter    4 1.00000000   0.741E-03       0.001       93.162
     NS sqrt iter    5 1.00000000   0.536E-08       0.001       31.799
     Symmetrizing Results
     Final NS sqrt iter    5 1.00000000   0.320E-09

     Est. extremal eigenvalues     -0.93640     1.63081  converged:  T
     TRS4 it   1 1.00000000   0.883E+00       0.001       16.128   0.100E-07
     TRS4 it   2 1.00000000   0.633E+00       0.001       32.256   0.100E-07
     TRS4 it   3 1.00000000   0.454E+00       0.001       32.256   0.100E-07
     TRS4 it   4 1.00000000   0.277E+00       0.001       32.256   0.100E-07
     TRS4 it   5 1.00000000   0.137E+00       0.001       32.256   0.100E-07
     TRS4 it   6 1.00000000   0.424E-01       0.001       32.256   0.100E-07
     TRS4 it   7 1.00000000   0.566E-02       0.001       32.256   0.100E-07
     TRS4 it   8 1.00000000   0.136E-03       0.001       32.256   0.100E-07
     TRS4 it   9 1.00000000   0.832E-07       0.001       32.256   0.100E-07
     TRS4 it  10 1.00000000   0.308E-13       0.001       32.256   0.100E-07
     Final TRS4 iteration   10 1.00000000   0.308E-13
     Chemical potential (mu):      -0.07319
 
 PAO| energy:  -7.7889511872465489      penalty:   3.0174065884985185E-008
 PAO|CG| warming up with steepest descent
 PAO|CG| beta:    0.0000000000000000     
 PAO| norm of gradient:   1.3476241222980245E-004
 PAO| energy improvement:  -5.5221569539298798E-009
 PAO| step    415                   -7.788951187  0.842E-05  0.257E+00     0.079
 PAO| converged after          415  steps :-)
 PAO| Recalculating energy after mixing.

     Lanczos converged:  T threshold:   0.100E-02
     Est. extremal eigenvalues:    0.249E+01   0.191E+00
     Est. condition number :    0.130E+02

 Order=           3
     NS sqrt iter    1 1.00000000   0.630E+00       0.001       64.512
     NS sqrt iter    2 1.00000000   0.273E+00       0.001      109.908
     NS sqrt iter    3 1.00000000   0.481E-01       0.001      110.592
     NS sqrt iter    4 1.00000000   0.741E-03       0.001      110.592
     NS sqrt iter    5 1.00000000   0.536E-08       0.001       38.144
     Symmetrizing Results
     Final NS sqrt iter    5 1.00000000   0.320E-09

     Est. extremal eigenvalues     -0.93640     1.63081  converged:  T
     TRS4 it   1 1.00000000   0.883E+00       0.000       16.128   0.100E-07
     TRS4 it   2 1.00000000   0.633E+00       0.001       32.256   0.100E-07
     TRS4 it   3 1.00000000   0.454E+00       0.001       32.256   0.100E-07
     TRS4 it   4 1.00000000   0.277E+00       0.001       32.256   0.100E-07
     TRS4 it   5 1.00000000   0.137E+00       0.001       32.256   0.100E-07
     TRS4 it   6 1.00000000   0.424E-01       0.001       32.256   0.100E-07
     TRS4 it   7 1.00000000   0.566E-02       0.001       32.256   0.100E-07
     TRS4 it   8 1.00000000   0.136E-03       0.001       32.256   0.100E-07
     TRS4 it   9 1.00000000   0.832E-07       0.001       32.256   0.100E-07
     TRS4 it  10 1.00000000   0.307E-13       0.001       32.256   0.100E-07
     Final TRS4 iteration   10 1.00000000   0.307E-13
     Chemical potential (mu):      -0.07319
 
 PAO| energy:  -7.7889511858660008      penalty:   3.0488041052447563E-008
 PAO| Writing restart file.
     Est. extremal eigenvalues     -0.93640     1.63081  converged:  T
     TRS4 it   1 1.00000000   0.883E+00       0.000       16.128   0.100E-07
     TRS4 it   2 1.00000000   0.633E+00       0.001       32.256   0.100E-07
     TRS4 it   3 1.00000000   0.454E+00       0.001       32.256   0.100E-07
     TRS4 it   4 1.00000000   0.277E+00       0.001       32.256   0.100E-07
     TRS4 it   5 1.00000000   0.137E+00       0.001       32.256   0.100E-07
     TRS4 it   6 1.00000000   0.424E-01       0.001       32.256   0.100E-07
     TRS4 it   7 1.00000000   0.566E-02       0.001       32.256   0.100E-07
     TRS4 it   8 1.00000000   0.136E-03       0.001       32.256   0.100E-07
     TRS4 it   9 1.00000000   0.832E-07       0.001       32.256   0.100E-07
     TRS4 it  10 1.00000000   0.307E-13       0.001       32.256   0.100E-07
     Final TRS4 iteration   10 1.00000000   0.307E-13
     Chemical potential (mu):      -0.07319

 SCF     1       -34.449839002       -34.449839002    1.753059

*********************************************************
 Using MIXING_FRACTION=0.450 to mix KS matrix:  iscf=  2
 KS_nw=0.450*KS + 0.550*KS_old
*********************************************************
     Est. extremal eigenvalues     -0.93641     1.63081  converged:  T
     TRS4 it   1 1.00000000   0.883E+00       0.000       16.128   0.100E-07
     TRS4 it   2 1.00000000   0.633E+00       0.001       32.256   0.100E-07
     TRS4 it   3 1.00000000   0.454E+00       0.001       32.256   0.100E-07
     TRS4 it   4 1.00000000   0.277E+00       0.001       32.256   0.100E-07
     TRS4 it   5 1.00000000   0.137E+00       0.000       32.256   0.100E-07
     TRS4 it   6 1.00000000   0.424E-01       0.000       32.256   0.100E-07
     TRS4 it   7 1.00000000   0.567E-02       0.000       32.256   0.100E-07
     TRS4 it   8 1.00000000   0.136E-03       0.001       32.256   0.100E-07
     TRS4 it   9 1.00000000   0.832E-07       0.000       32.256   0.100E-07
     TRS4 it  10 1.00000000   0.309E-13       0.001       32.256   0.100E-07
     Final TRS4 iteration   10 1.00000000   0.309E-13
     Chemical potential (mu):      -0.07319

 SCF     2       -34.449839002        -0.000000000    1.457869


 SCF run converged in     2 steps.

 PAO| Storing density matrix for ASPC guess in slot:           1

 ENERGY| Total FORCE_EVAL ( QS ) energy [a.u.]:              -34.449839001703204

 -------------------------------------------------------------------------------
 -                                                                             -
 -                                DBCSR STATISTICS                             -
 -                                                                             -
 -------------------------------------------------------------------------------
 COUNTER                                    TOTAL       BLAS       SMM       ACC
 flops     5 x     5 x     4                20000       0.0%    100.0%      0.0%
 flops    13 x     5 x     4                20800       0.0%    100.0%      0.0%
 flops     5 x    13 x     4                20800       0.0%    100.0%      0.0%
 flops    13 x    13 x     4                40560       0.0%    100.0%      0.0%
 flops     4 x     4 x     5              3260160       0.0%    100.0%      0.0%
 flops     5 x     4 x     5              3974400       0.0%    100.0%      0.0%
 flops     4 x     4 x    13              4238208       0.0%    100.0%      0.0%
 flops    13 x     4 x     5              5166720       0.0%    100.0%      0.0%
 flops     5 x     4 x    13              5166720       0.0%    100.0%      0.0%
 flops     5 x     4 x     4              6369920       0.0%    100.0%      0.0%
 flops    13 x     4 x    13              6716736       0.0%    100.0%      0.0%
 flops    13 x     4 x     4              8489312       0.0%    100.0%      0.0%
 flops     4 x     4 x     4            419423104       0.0%    100.0%      0.0%
 flops inhomo. stacks                           0       0.0%      0.0%      0.0%
 flops total                       462.907440E+06       0.0%    100.0%      0.0%
 flops max/rank                    462.907440E+06       0.0%    100.0%      0.0%
 matmuls inhomo. stacks                         0       0.0%      0.0%      0.0%
 matmuls total                            3412448       0.0%    100.0%      0.0%
 number of processed stacks                 27220       0.0%    100.0%      0.0%
 average stack size                                     0.0     125.4       0.0
 marketing flops                   752.385792E+06
 -------------------------------------------------------------------------------
 # multiplications                          22718
 max memory usage/rank             506.642432E+06
 # max total images/rank                        1
 # max 3D layers                                1
 # MPI messages exchanged                       0
 -------------------------------------------------------------------------------

 -------------------------------------------------------------------------------
 -                                                                             -
 -                                DBM STATISTICS                               -
 -                                                                             -
 -------------------------------------------------------------------------------
    M  x    N  x    K                                          COUNT     PERCENT
 -------------------------------------------------------------------------------

 -------------------------------------------------------------------------------
 -                                                                             -
 -                                GRID STATISTICS                              -
 -                                                                             -
 -------------------------------------------------------------------------------
 LP    KERNEL             BACKEND                              COUNT     PERCENT
 2     collocate ortho    REF                                  38130      30.78%
 2     integrate ortho    REF                                  38130      30.78%
 3     collocate ortho    REF                                  19620      15.84%
 3     integrate ortho    REF                                  19620      15.84%
 4     collocate ortho    REF                                   4180       3.37%
 4     integrate ortho    REF                                   4180       3.37%
 0     collocate general  REF                                      6       0.00%
 -------------------------------------------------------------------------------

 MEMORY| Estimated peak process memory [MiB]                                 484

 -------------------------------------------------------------------------------
 -                                                                             -
 -                           R E F E R E N C E S                               -
 -                                                                             -
 -------------------------------------------------------------------------------
 
 CP2K version 2023.1 (Development Version), the CP2K developers group (2023).
 CP2K is freely available from https://www.cp2k.org/ .

 Kuehne,Thomas D.; Iannuzzi,Marcella; Del Ben,Mauro;
 Rybkin,Vladimir V.; Seewald,Patrick; Stein,Frederick; Laino,Teodoro;
 Khaliullin,Rustam Z.; Schuett,Ole; Schiffmann,Florian; Golze,Dorothea;
 Wilhelm,Jan; Chulkov,Sergey; Bani-Hashemian,Mohammad Hossein;
 Weber,Valery; Borstnik,Urban; Taillefumier,Mathieu;
 Jakobovits,Alice Shoshana; Lazzaro,Alfio; Pabst,Hans; Mueller,Tiziano;
 Schade,Robert; Guidon,Manuel; Andermatt,Samuel; Holmberg,Nico;
 Schenter,Gregory K.; Hehn,Anna; Bussy,Augustin; Belleflamme,Fabian;
 Tabacchi,Gloria; Gloess,Andreas; Lass,Michael; Bethune,Iain;
 Mundy,Christopher J.; Plessl,Christian; Watkins,Matt;
 VandeVondele,Joost; Krack,Matthias; Hutter,Juerg. 
 The Journal of Chemical Physics, 152 (19), (2020). 
 CP2K: An electronic structure and molecular dynamics software package -
 Quickstep: Efficient and accurate electronic structure calculations.
 https://doi.org/10.1063/5.0007045

 Schuett, O; VandeVondele, J. 
 Journal of Chemical Theory and Computation, 14, (2018). 
 Machine Learning Adaptive Basis Sets for Efficient Large Scale
 Density Functional Theory Simulation.
 https://doi.org/10.1021/acs.jctc.8b00378

 Schuett, Ole; Messmer, Peter; Hutter, Juerg; VandeVondele, Joost. 
 Electronic Structure Calculations on Graphics Processing Units, John
 Wiley & Sons, Ltd, 173-190 (2016). 
 GPU-Accelerated Sparse Matrix-Matrix Multiplication for
 Linear Scaling Density Functional Theory.
 https://doi.org/10.1002/9781118670712.ch8

 Heinecke, A; Henry, G; Hutchinson, M; Pabst, H. 
 Proceedings of Intl. Supercomputing Conference, 981-991 (2016). 
 LIBXSMM: Accelerating Small Matrix Multiplications
 by Runtime Code Generation.
 https://doi.org/10.1109/SC.2016.83

 Borstnik, U; VandeVondele, J; Weber, V; Hutter, J. 
 PARALLEL COMPUTING, 40 (5-6), 47-58 (2014). 
 Sparse matrix multiplication: The distributed block-compressed sparse
 row library.
 https://doi.org/10.1016/j.parco.2014.03.012

 Hutter, J; Iannuzzi, M; Schiffmann, F; VandeVondele, J. 
 WIREs Comput Mol Sci., 4 (1), 15-25 (2014). 
 CP2K: atomistic simulations of condensed matter systems.
 https://doi.org/10.1002/wcms.1159

 VandeVondele, J; Borstnik, U; Hutter, J. 
 JOURNAL OF CHEMICAL THEORY AND COMPUTATION, 8 (10), 3565-3573 (2012). 
 Linear Scaling Self-Consistent Field Calculations with Millions of Atoms
 in the Condensed Phase.
 https://doi.org/10.1021/ct200897x

 VandeVondele, J; Hutter, J. 
 JOURNAL OF CHEMICAL PHYSICS, 127 (11), 114105 (2007). 
 Gaussian basis sets for accurate calculations on molecular systems in
 gas and condensed phases.
 https://doi.org/10.1063/1.2770708

 Krack, M. 
 THEORETICAL CHEMISTRY ACCOUNTS, 114 (1-3), 145-152 (2005). 
 Pseudopotentials for H to Kr optimized for gradient-corrected
 exchange-correlation functionals.
 https://doi.org/10.1007/s00214-005-0655-y

 VandeVondele, J; Krack, M; Mohamed, F; Parrinello, M; Chassaing, T;
 Hutter, J. COMPUTER PHYSICS COMMUNICATIONS, 167 (2), 103-128 (2005). 
 QUICKSTEP: Fast and accurate density functional calculations using a
 mixed Gaussian and plane waves approach.
 https://doi.org/10.1016/j.cpc.2004.12.014

 Frigo, M; Johnson, SG. 
 PROCEEDINGS OF THE IEEE, 93 (2), 216-231 (2005). 
 The design and implementation of FFTW3.
 https://doi.org/10.1109/JPROC.2004.840301

 Niklasson, AMN; Tymczak, CJ; Challacombe, M. 
 JOURNAL OF CHEMICAL PHYSICS, 118 (19), 8611-8620 (2003). 
 Trace resetting density matrix purification in O(N)
 self-consistent-field theory.
 https://doi.org/10.1063/1.1559913

 Hartwigsen, C; Goedecker, S; Hutter, J. 
 PHYSICAL REVIEW B, 58 (7), 3641-3662 (1998). 
 Relativistic separable dual-space Gaussian pseudopotentials from H to Rn.
 https://doi.org/10.1103/PhysRevB.58.3641

 Lippert, G; Hutter, J; Parrinello, M. 
 MOLECULAR PHYSICS, 92 (3), 477-487 (1997). 
 A hybrid Gaussian and plane wave density functional scheme.
 https://doi.org/10.1080/002689797170220

 Perdew, JP; Burke, K; Ernzerhof, M. 
 PHYSICAL REVIEW LETTERS, 77 (18), 3865-3868 (1996). 
 Generalized gradient approximation made simple.
 https://doi.org/10.1103/PhysRevLett.77.3865

 Goedecker, S; Teter, M; Hutter, J. 
 PHYSICAL REVIEW B, 54 (3), 1703-1710 (1996). 
 Separable dual-space Gaussian pseudopotentials.
 https://doi.org/10.1103/PhysRevB.54.1703


 -------------------------------------------------------------------------------
 -                                                                             -
 -                                T I M I N G                                  -
 -                                                                             -
 -------------------------------------------------------------------------------
 SUBROUTINE                       CALLS  ASD         SELF TIME        TOTAL TIME
                                MAXIMUM       AVERAGE  MAXIMUM  AVERAGE  MAXIMUM
 CP2K                                 1  1.0    0.009    0.009   38.985   38.985
 qs_energies                          1  2.0    0.000    0.000   38.355   38.355
 ls_scf                               1  3.0    0.000    0.000   38.116   38.116
 ls_scf_main                          4  4.0    0.001    0.001   26.093   26.093
 ls_scf_dm_to_ks                      9  5.0    0.000    0.000   26.004   26.004
 qs_ks_update_qs_env                 10  6.0    0.000    0.000   23.140   23.140
 rebuild_ks_matrix                   10  7.0    0.000    0.000   23.139   23.139
 qs_ks_build_kohn_sham_matrix        10  8.0    0.003    0.003   23.139   23.139
 qs_vxc_create                       10  9.0    0.000    0.000   14.727   14.727
 xc_vxc_pw_create                    10 10.0    0.255    0.255   14.726   14.726
 pw_transfer                        191 11.1    0.032    0.032   13.235   13.235
 fft_wrap_pw1pw2                    171 12.3    0.004    0.004   12.916   12.916
 fft_wrap_pw1pw2_200                111 13.7    1.205    1.205   12.513   12.513
 xc_pw_derive                        60 12.0    0.002    0.002    8.951    8.951
 xc_rho_set_and_dset_create          10 11.0    0.307    0.307    8.351    8.351
 pao_update                           4  4.0    0.008    0.008    8.151    8.151
 pao_calc_energy                    418  5.0    0.003    0.003    7.379    7.379
 qs_rho_update_rho_low               10  6.0    0.000    0.000    6.683    6.683
 calculate_rho_elec                  10  7.0    0.047    0.047    6.683    6.683
 sum_up_and_integrate                10  9.0    0.207    0.207    6.267    6.267
 integrate_v_rspace                  10 10.0    0.001    0.001    6.060    6.060
 xc_pw_divergence                    10 11.0    0.001    0.001    5.949    5.949
 dbcsr_multiply_generic           22718  8.4    0.370    0.370    5.869    5.869
 fft3d_s                            172 14.2    5.809    5.809    5.834    5.834
 grid_integrate_task_list            10 11.0    4.571    4.571    4.571    4.571
 grid_collocate_task_list            10  8.0    4.010    4.010    4.010    4.010
 pao_dm_trs4                        418  6.0    0.002    0.002    3.838    3.838
 pao_guess_initial_P                  1  4.0    0.000    0.000    3.826    3.826
 pao_read_preopt_dm                   1  5.0    0.000    0.000    3.826    3.826
 density_matrix_trs4                427  7.0    0.120    0.120    3.699    3.699
 ls_scf_init_matrix_S               422  7.0    0.003    0.003    3.520    3.520
 pao_rebuild_S                      418  6.0    0.001    0.001    3.489    3.489
 matrix_sqrt_Newton_Schulz          422  8.0    0.077    0.077    3.181    3.181
 xc_functional_eval                  10 12.0    0.000    0.000    3.081    3.081
 pbe_lda_eval                        10 13.0    3.081    3.081    3.081    3.081
 pw_scatter_s                        90 14.7    2.943    2.943    2.943    2.943
 pw_gather_s                         81 13.8    2.885    2.885    2.885    2.885
 density_rs2pw                       10  8.0    0.001    0.001    2.626    2.626
 make_m2s                         45436  9.4    0.141    0.141    2.202    2.202
 multiply_cannon                  22718  9.4    0.908    0.908    2.198    2.198
 make_images                      45436 10.4    0.543    0.543    1.950    1.950
 pw_derive                           60 13.0    1.583    1.583    1.583    1.583
 potential_pw2rs                     10 11.0    0.003    0.003    1.488    1.488
 arnoldi_extremal                   849  8.5    0.003    0.003    1.156    1.156
 arnoldi_normal_ev                  849  9.5    0.009    0.009    1.153    1.153
 pw_copy                            120 11.8    1.093    1.093    1.093    1.093
 build_subspace                     849 10.5    0.047    0.047    0.903    0.903
 dbcsr_matrix_vector_mult         20348 11.5    0.096    0.096    0.838    0.838
 pw_axpy                             90 10.3    0.823    0.823    0.823    0.823
 -------------------------------------------------------------------------------

 The number of warnings for this run is : 0
 
 -------------------------------------------------------------------------------
  **** **** ******  **  PROGRAM ENDED AT                 2023-02-01 10:44:34.194
 ***** ** ***  *** **   PROGRAM RAN ON                                    moritz
 **    ****   ******    PROGRAM RAN BY                                       ole
 ***** **    ** ** **   PROGRAM PROCESS ID                                148513
  **** **  *******  **  PROGRAM STOPPED IN /home/ole/git/pao_ml_equivar/2H2O_rot
                                           ations/rand_12
