 DBCSR| CPU Multiplication driver                                           BLAS
 DBCSR| Multrec recursion limit                                              512
 DBCSR| Multiplication stack size                                           1000
 DBCSR| Maximum elements for images                                    UNLIMITED
 DBCSR| Multiplicative factor virtual images                                   1
 DBCSR| Use multiplication densification                                       T
 DBCSR| Multiplication size stacks                                             3


  **** **** ******  **  PROGRAM STARTED AT               2019-03-28 17:34:04.397
 ***** ** ***  *** **   PROGRAM STARTED ON        oleschuett.zrh.corp.google.com
 **    ****   ******    PROGRAM STARTED BY                            oleschuett
 ***** **    ** ** **   PROGRAM PROCESS ID                                 35905
  **** **  *******  **  PROGRAM STARTED IN /usr/local/google/home/oleschuett/git
                                           /pao_ml_equivar/2H2O_rotations/rand_1
                                           2

 CP2K| version string:                    CP2K version 7.0 (Development Version)
 CP2K| source code revision number:                                git:d9814d431
 CP2K| cp2kflags: libint fftw3 libxc libderiv_max_am1=5 libint_max_am=6         
 CP2K| is freely available from                            https://www.cp2k.org/
 CP2K| Program compiled at                          Mon Mar 25 16:50:07 CET 2019
 CP2K| Program compiled on                        oleschuett.zrh.corp.google.com
 CP2K| Program compiled for                                                local
 CP2K| Data directory path       /usr/local/google/home/oleschuett/git/cp2k/data
 CP2K| Input file name                                            2H2O_pao44.inp

 GLOBAL| Force Environment number                                              1
 GLOBAL| Basis set file name                                        BASIS_MOLOPT
 GLOBAL| Potential file name                                      GTH_POTENTIALS
 GLOBAL| MM Potential file name                                     MM_POTENTIAL
 GLOBAL| Coordinate file name                                         coords.xyz
 GLOBAL| Method name                                                        CP2K
 GLOBAL| Project name                                                 2H2O_pao44
 GLOBAL| Preferred FFT library                                             FFTW3
 GLOBAL| Preferred diagonalization lib.                                       SL
 GLOBAL| Run type                                                         ENERGY
 GLOBAL| All-to-all communication in single precision                          F
 GLOBAL| FFTs using library dependent lengths                                  F
 GLOBAL| Global print level                                                  LOW
 GLOBAL| MPI I/O enabled                                                       T
 GLOBAL| Total number of message passing processes                             1
 GLOBAL| Number of threads for this process                                    1
 GLOBAL| This output is from process                                           0
 GLOBAL| CPU model name :  Intel(R) Xeon(R) CPU E5-1650 v4 @ 3.60GHz

 MEMORY| system memory details [Kb]
 MEMORY|                        rank 0           min           max       average
 MEMORY| MemTotal             65953612      65953612      65953612      65953612
 MEMORY| MemFree               4427944       4427944       4427944       4427944
 MEMORY| Buffers               2543220       2543220       2543220       2543220
 MEMORY| Cached               25349288      25349288      25349288      25349288
 MEMORY| Slab                  3623252       3623252       3623252       3623252
 MEMORY| SReclaimable          2422216       2422216       2422216       2422216
 MEMORY| MemLikelyFree        34742668      34742668      34742668      34742668


 GENERATE|  Preliminary Number of Bonds generated:                             0
 GENERATE|  Achieved consistency in connectivity generation.

 *******************************************************************************
 *******************************************************************************
 **                                                                           **
 **     #####                         ##              ##                      **
 **    ##   ##            ##          ##              ##                      **
 **   ##     ##                       ##            ######                    **
 **   ##     ##  ##   ##  ##   #####  ##  ##   ####   ##    #####    #####    **
 **   ##     ##  ##   ##  ##  ##      ## ##   ##      ##   ##   ##  ##   ##   **
 **   ##  ## ##  ##   ##  ##  ##      ####     ###    ##   ######   ######    **
 **    ##  ###   ##   ##  ##  ##      ## ##      ##   ##   ##       ##        **
 **     #######   #####   ##   #####  ##  ##  ####    ##    #####   ##        **
 **           ##                                                    ##        **
 **                                                                           **
 **                                                ... make the atoms dance   **
 **                                                                           **
 **            Copyright (C) by CP2K developers group (2000 - 2018)           **
 **                                                                           **
 *******************************************************************************


 TOTAL NUMBERS AND MAXIMUM NUMBERS

  Total number of            - Atomic kinds:                                   2
                             - Atoms:                                          6
                             - Shell sets:                                     6
                             - Shells:                                        22
                             - Primitive Cartesian functions:                 42
                             - Cartesian basis functions:                     48
                             - Spherical basis functions:                     46

  Maximum angular momentum of- Orbital basis functions:                        2
                             - Local part of the GTH pseudopotential:          2
                             - Non-local part of the GTH pseudopotential:      0

 ------------------------------ Linear scaling SCF -----------------------------
 eps_scf:                                                              0.100E-07
 eps_filter:                                                           0.100E-07
 mixing_fraction:                                                      0.450E+00
 max_scf:                                                                     25
 fixed chemical potential (mu)                                                 F
 has unit metric:                                                              F
 Computing inv(S):                                                             T
 Computing sqrt(S):                                                            T
 Computing s preconditioner                                                    F
 sign sqrt order:                                                              3
 Extrapolation order:                                                          1
 Use single precision matrices                                                 F
 S preconditioner type                                                      NONE
 Polarized Atomic Orbitals (PAO)                                               T
 Purification method                                   Trace resetting 4th order
 Cluster type                                                             ATOMIC
 Computing Chebyshev                                                       FALSE
 Using PAO                                                                     T
 -------------------------------------------------------------------------------

 
 PAO|                                  EPS_PAO                           0.1E-04
 PAO|                                  MIXING                            0.5E+00
 PAO|                                  MAX_PAO                              1000
 PAO|                                  MAX_CYCLES                           1000
 PAO|                                  PARAMETERIZATION                   DIRECT
 PAO|                                  PRECONDITION                            F
 PAO|                                  REGULARIZATION                    0.0E+00
 PAO|                                  EPS_PGF                           0.1E-09
 PAO|                                  PENALTY_DISTANCE                  0.1E+00
 PAO|                                  PENALTY_STRENGTH                  0.5E-02
 PAO|                                  LINPOT_PRECONDITION_DELTA         0.0E+00
 PAO|                                  LINPOT_INITGUESS_DELT             0.0E+00
 PAO|                                  LINPOT_REGULARIZATION_DELTA       0.0E+00
 PAO|                                  LINPOT_REGULARIZATION_STRENGTH    0.0E+00
 PAO|                                  OPTIMIZER                              CG
 PAO|                                  CG_INIT_STEPS                           2
 PAO|                                  CG_RESET_LIMIT                    0.1E+00
 PAO|                                  CHECK_UNITARY_TOL                -0.1E+01
 PAO|                                  CHECK_GRADIENT_TOL               -0.1E+01
 PAO|                                  NUM_GRADIENT_ORDER                      2
 PAO|                                  NUM_GRADIENT_EPS                  0.1E-07
 PAO|                                  PRINT%RESTART%WRITE_CYCLES            100
 PAO|                                  RESTART_FILE 
 PAO|                                  PREOPT_DM_FILE 2H2O_ref_LS_DM_SPIN_1_RESTART.dm
 PAO|                                  MACHINE_LEARNING%METHOD        GAUSSIAN_P
 PAO|                                  MACHINE_LEARNING%PRIOR               ZERO
 PAO|                                  MACHINE_LEARNING%DESCRIPTOR     POTENTIAL
 PAO|                                  MACHINE_LEARNING%TOLERANCE        0.1E-01
 PAO|                                  MACHINE_LEARNING%GP_NOISE_VAR     0.1E+00
 PAO|                                  MACHINE_LEARNING%GP_SCALE         0.5E-01
 

 Calculating atomic Fock matrix for atomic kind: O

 Electronic structure
    Total number of core electrons                                          2.00
    Total number of valence electrons                                       6.00
    Total number of electrons                                               8.00
    Multiplicity                                                   not specified
    S   [  2.00] 2.00
    P      4.00


 *******************************************************************************
                  Iteration          Convergence                     Energy [au]
 *******************************************************************************
                          1        0.708315                     -15.576645311500
                          2        0.608879                     -15.587933561584
                          3        0.102828E-01                 -15.656849565404
                          4        0.113889E-02                 -15.656866888140
                          5        0.434197E-03                 -15.656867072159
                          6        0.263771E-03                 -15.656867091904
                          7        0.478536E-06                 -15.656867103452

 Energy components [Hartree]           Total Energy ::          -15.656867103452
                                        Band Energy ::           -3.000198112285
                                     Kinetic Energy ::           11.759971203220
                                   Potential Energy ::          -27.416838306672
                                      Virial (-V/T) ::            2.331369510426
                                        Core Energy ::          -26.140716385623
                                          XC Energy ::           -3.154051012914
                                     Coulomb Energy ::           13.637900295084
                       Total Pseudopotential Energy ::          -37.935781716540
                       Local Pseudopotential Energy ::          -39.218907440693
                    Nonlocal Pseudopotential Energy ::            1.283125724153
                                        Confinement ::            0.350941276976

 Orbital energies  State     L     Occupation   Energy[a.u.]          Energy[eV]

                       1     0          2.000      -0.864471          -23.523463

                       1     1          4.000      -0.317814           -8.648154


 Total Electron Density at R=0:                                         0.000068

 Calculating atomic Fock matrix for atomic kind: H

 Electronic structure
    Total number of core electrons                                          0.00
    Total number of valence electrons                                       1.00
    Total number of electrons                                               1.00
    Multiplicity                                                   not specified
    S      1.00


 *******************************************************************************
                  Iteration          Convergence                     Energy [au]
 *******************************************************************************
                          1        0.437545E-02                  -0.424159432110
                          2        0.531356E-03                  -0.424178438213
                          3        0.259176E-06                  -0.424178722480

 Energy components [Hartree]           Total Energy ::           -0.424178722480
                                        Band Energy ::           -0.199015229016
                                     Kinetic Energy ::            0.464007633961
                                   Potential Energy ::           -0.888186356441
                                      Virial (-V/T) ::            1.914163240935
                                        Core Energy ::           -0.479160803564
                                          XC Energy ::           -0.244352904054
                                     Coulomb Energy ::            0.299334985138
                       Total Pseudopotential Energy ::           -0.962295316385
                       Local Pseudopotential Energy ::           -0.962295316385
                    Nonlocal Pseudopotential Energy ::            0.000000000000
                                        Confinement ::            0.191268788606

 Orbital energies  State     L     Occupation   Energy[a.u.]          Energy[eV]

                       1     0          1.000      -0.199015           -5.415480


 Total Electron Density at R=0:                                         0.242907
 PAO| Made initial guess for matrix_X with norm:   4.8989794855663558     

     Lanczos converged:  T threshold:   0.100E-02
     Est. extremal eigenvalues:    0.336E+01   0.115E+00
     Est. condition number :    0.291E+02
     NS sqrt iter    1 1.00000000   0.821E+00       0.002       41.867
     NS sqrt iter    2 1.00000000   0.440E+00       0.002       66.152
     NS sqrt iter    3 1.00000000   0.170E+00       0.002       66.579
     NS sqrt iter    4 1.00000000   0.204E-01       0.002       66.887
     NS sqrt iter    5 1.00000000   0.517E-04       0.002       50.997
     Final NS sqrt iter    5 1.00000000   0.452E-08

 PAO| Read restart DM 2H2O_ref_LS_DM_SPIN_1_RESTART.dm with checksum:    71.076213817180019     
 PAO| Quickstep energy from restart density:  -34.451043225823717     
 PAO| ======================= Iteration:         1 =============================

     Lanczos converged:  T threshold:   0.100E-02
     Est. extremal eigenvalues:    0.336E+01   0.115E+00
     Est. condition number :    0.291E+02
     NS sqrt iter    1 1.00000000   0.821E+00       0.001       55.682
     NS sqrt iter    2 1.00000000   0.440E+00       0.001       95.195
     NS sqrt iter    3 1.00000000   0.170E+00       0.001       93.210
     NS sqrt iter    4 1.00000000   0.204E-01       0.001       96.926
     NS sqrt iter    5 1.00000000   0.517E-04       0.001       79.087
     Final NS sqrt iter    5 1.00000000   0.452E-08

     Est. extremal eigenvalues     -0.91861     1.86149  converged:  T
     TRS4 it   1 1.00000000   0.879E+00       0.001       16.128   0.100E-07
     TRS4 it   2 1.00000000   0.685E+00       0.001       32.256   0.100E-07
     TRS4 it   3 1.00000000   0.496E+00       0.001       32.256   0.100E-07
     TRS4 it   4 1.00000000   0.309E+00       0.001       32.256   0.100E-07
     TRS4 it   5 1.00000000   0.152E+00       0.001       32.256   0.100E-07
     TRS4 it   6 1.00000000   0.472E-01       0.001       32.256   0.100E-07
     TRS4 it   7 1.00000000   0.628E-02       0.001       32.256   0.100E-07
     TRS4 it   8 1.00000000   0.156E-03       0.001       32.256   0.100E-07
     TRS4 it   9 1.00000000   0.108E-06       0.001       32.256   0.100E-07
     TRS4 it  10 1.00000000   0.529E-13       0.001       32.256   0.100E-07
     Final TRS4 iteration   10 1.00000000   0.529E-13
     Chemical potential (mu):      -0.06328
 
 PAO| energy:  -7.6049704513901029      penalty:   5.4850484816148492E-033
 PAO|CG| warming up with steepest descent
 PAO|CG| beta:    0.0000000000000000     
 PAO| norm of gradient:  0.78388812308113576     
 PAO|LS| adapt:  T F F
 PAO|LS| adapt: scan_steps:    0.0000000000000000        0.0000000000000000        0.0000000000000000     
 PAO|LS| adapt: energies:   -7.6049704513901029        0.0000000000000000        0.0000000000000000     
 PAO| ======================= Iteration:         2 =============================

     Lanczos converged:  T threshold:   0.100E-02
     Est. extremal eigenvalues:    0.327E+01   0.129E+00
     Est. condition number :    0.255E+02
     NS sqrt iter    1 1.00000000   0.805E+00       0.001       56.795
     NS sqrt iter    2 1.00000000   0.425E+00       0.001       91.885
     NS sqrt iter    3 1.00000000   0.152E+00       0.001       98.043
     NS sqrt iter    4 1.00000000   0.141E-01       0.001       96.691
     NS sqrt iter    5 1.00000000   0.160E-04       0.001       58.795
     Final NS sqrt iter    5 1.00000000   0.383E-09

     Est. extremal eigenvalues     -0.92227     1.80734  converged:  T
     TRS4 it   1 1.00000000   0.875E+00       0.000       16.128   0.100E-07
     TRS4 it   2 1.00000000   0.667E+00       0.001       32.256   0.100E-07
     TRS4 it   3 1.00000000   0.479E+00       0.001       32.256   0.100E-07
     TRS4 it   4 1.00000000   0.288E+00       0.001       32.256   0.100E-07
     TRS4 it   5 1.00000000   0.133E+00       0.001       32.256   0.100E-07
     TRS4 it   6 1.00000000   0.359E-01       0.001       32.256   0.100E-07
     TRS4 it   7 1.00000000   0.370E-02       0.001       32.256   0.100E-07
     TRS4 it   8 1.00000000   0.546E-04       0.001       32.256   0.100E-07
     TRS4 it   9 1.00000000   0.133E-07       0.001       32.256   0.100E-07
     Final TRS4 iteration    9 1.00000000   0.133E-07
     Chemical potential (mu):      -0.05126
 
 PAO| energy:  -7.6605310413145542      penalty:   2.2527101821716863E-008
 PAO|LS| adapt:  T T F
 PAO|LS| adapt: scan_steps:    0.0000000000000000       0.10000000000000001        0.0000000000000000     
 PAO|LS| adapt: energies:   -7.6049704513901029       -7.6605310413145542        0.0000000000000000     
 PAO| ======================= Iteration:         3 =============================

     Lanczos converged:  T threshold:   0.100E-02
     Est. extremal eigenvalues:    0.318E+01   0.140E+00
     Est. condition number :    0.227E+02
     NS sqrt iter    1 1.00000000   0.787E+00       0.002       41.878
     NS sqrt iter    2 1.00000000   0.408E+00       0.002       64.637
     NS sqrt iter    3 1.00000000   0.135E+00       0.002       64.498
     NS sqrt iter    4 1.00000000   0.963E-02       0.002       64.778
     NS sqrt iter    5 1.00000000   0.517E-05       0.002       52.333
     Final NS sqrt iter    5 1.00000000   0.402E-10

     Est. extremal eigenvalues     -0.92570     1.76433  converged:  T
     TRS4 it   1 1.00000000   0.872E+00       0.001       16.128   0.100E-07
     TRS4 it   2 1.00000000   0.650E+00       0.001       32.256   0.100E-07
     TRS4 it   3 1.00000000   0.463E+00       0.001       32.256   0.100E-07
     TRS4 it   4 1.00000000   0.268E+00       0.001       32.256   0.100E-07
     TRS4 it   5 1.00000000   0.114E+00       0.001       32.256   0.100E-07
     TRS4 it   6 1.00000000   0.265E-01       0.001       32.256   0.100E-07
     TRS4 it   7 1.00000000   0.201E-02       0.001       32.256   0.100E-07
     TRS4 it   8 1.00000000   0.163E-04       0.001       32.256   0.100E-07
     TRS4 it   9 1.00000000   0.118E-08       0.001       32.256   0.100E-07
     Final TRS4 iteration    9 1.00000000   0.118E-08
     Chemical potential (mu):      -0.03828
 
 PAO| energy:  -7.7036534554369434      penalty:   3.6043309704039555E-007
 PAO|LS| adapt:  T T F
 PAO|LS| adapt: scan_steps:    0.0000000000000000       0.20000000000000001        0.0000000000000000     
 PAO|LS| adapt: energies:   -7.6049704513901029       -7.7036534554369434        0.0000000000000000     
 PAO| ======================= Iteration:         4 =============================

     Lanczos converged:  T threshold:   0.100E-02
     Est. extremal eigenvalues:    0.299E+01   0.158E+00
     Est. condition number :    0.188E+02
     NS sqrt iter    1 1.00000000   0.750E+00       0.002       41.322
     NS sqrt iter    2 1.00000000   0.374E+00       0.002       64.177
     NS sqrt iter    3 1.00000000   0.105E+00       0.002       64.707
     NS sqrt iter    4 1.00000000   0.466E-02       0.002       65.756
     NS sqrt iter    5 1.00000000   0.715E-06       0.002       52.761
     Final NS sqrt iter    5 1.00000000   0.859E-12

     Est. extremal eigenvalues     -0.93103     1.70338  converged:  T
     TRS4 it   1 1.00000000   0.867E+00       0.001       16.128   0.100E-07
     TRS4 it   2 1.00000000   0.624E+00       0.001       32.256   0.100E-07
     TRS4 it   3 1.00000000   0.433E+00       0.001       32.256   0.100E-07
     TRS4 it   4 1.00000000   0.231E+00       0.001       32.256   0.100E-07
     TRS4 it   5 1.00000000   0.825E-01       0.001       32.256   0.100E-07
     TRS4 it   6 1.00000000   0.134E-01       0.001       32.256   0.100E-07
     TRS4 it   7 1.00000000   0.492E-03       0.001       32.256   0.100E-07
     TRS4 it   8 1.00000000   0.948E-06       0.001       32.256   0.100E-07
     TRS4 it   9 1.00000000   0.400E-11       0.001       32.256   0.100E-07
     Final TRS4 iteration    9 1.00000000   0.400E-11
     Chemical potential (mu):      -0.00980
 
 PAO| energy:  -7.7509538618873473      penalty:   5.7669252957998047E-006
 PAO|LS| Need extra step
 PAO|LS| adapt:  T T F
 PAO|LS| adapt: scan_steps:    0.0000000000000000       0.40000000000000002        0.0000000000000000     
 PAO|LS| adapt: energies:   -7.6049704513901029       -7.7509538618873473        0.0000000000000000     
 PAO| ======================= Iteration:         5 =============================

     Lanczos converged:  T threshold:   0.100E-02
     Est. extremal eigenvalues:    0.263E+01   0.185E+00
     Est. condition number :    0.142E+02
     NS sqrt iter    1 1.00000000   0.686E+00       0.002       40.133
     NS sqrt iter    2 1.00000000   0.312E+00       0.002       63.879
     NS sqrt iter    3 1.00000000   0.648E-01       0.002       65.368
     NS sqrt iter    4 1.00000000   0.127E-02       0.002       64.294
     NS sqrt iter    5 1.00000000   0.202E-07       0.002       36.739
     Final NS sqrt iter    5 1.00000000   0.657E-09

     Est. extremal eigenvalues     -0.93229     1.63920  converged:  T
     TRS4 it   1 1.00000000   0.864E+00       0.001       16.128   0.100E-07
     TRS4 it   2 1.00000000   0.589E+00       0.001       32.256   0.100E-07
     TRS4 it   3 1.00000000   0.385E+00       0.001       32.256   0.100E-07
     TRS4 it   4 1.00000000   0.175E+00       0.001       32.256   0.100E-07
     TRS4 it   5 1.00000000   0.439E-01       0.001       32.256   0.100E-07
     TRS4 it   6 1.00000000   0.344E-02       0.001       32.256   0.100E-07
     TRS4 it   7 1.00000000   0.274E-04       0.001       32.256   0.100E-07
     TRS4 it   8 1.00000000   0.217E-08       0.001       32.256   0.100E-07
     Final TRS4 iteration    8 1.00000000   0.217E-08
     Chemical potential (mu):       0.03895
 
 PAO| energy:  -7.6960786818408540      penalty:   9.2270770678060630E-005
 PAO|LS| Need extra step
 PAO|LS| adapt:  T T T
 PAO|LS| adapt: scan_steps:    0.0000000000000000       0.40000000000000002       0.80000000000000004     
 PAO|LS| adapt: energies:   -7.6049704513901029       -7.7509538618873473       -7.6960786818408540     
 PAO|LS| adapt: suggested step_size:   0.49071877902171385     
 PAO|LS| adapt: predicted energy  -7.7561196290281726     
 PAO| ======================= Iteration:         6 =============================

     Lanczos converged:  T threshold:   0.100E-02
     Est. extremal eigenvalues:    0.290E+01   0.165E+00
     Est. condition number :    0.175E+02
     NS sqrt iter    1 1.00000000   0.734E+00       0.002       41.107
     NS sqrt iter    2 1.00000000   0.358E+00       0.002       64.098
     NS sqrt iter    3 1.00000000   0.941E-01       0.002       65.312
     NS sqrt iter    4 1.00000000   0.341E-02       0.002       64.334
     NS sqrt iter    5 1.00000000   0.313E-06       0.002       51.758
     Final NS sqrt iter    5 1.00000000   0.281E-09

     Est. extremal eigenvalues     -0.93251     1.68368  converged:  T
     TRS4 it   1 1.00000000   0.866E+00       0.001       16.128   0.100E-07
     TRS4 it   2 1.00000000   0.614E+00       0.001       32.256   0.100E-07
     TRS4 it   3 1.00000000   0.420E+00       0.001       32.256   0.100E-07
     TRS4 it   4 1.00000000   0.216E+00       0.001       32.256   0.100E-07
     TRS4 it   5 1.00000000   0.710E-01       0.001       32.256   0.100E-07
     TRS4 it   6 1.00000000   0.969E-02       0.001       32.256   0.100E-07
     TRS4 it   7 1.00000000   0.246E-03       0.001       32.256   0.100E-07
     TRS4 it   8 1.00000000   0.226E-06       0.001       32.256   0.100E-07
     TRS4 it   9 1.00000000   0.227E-12       0.001       32.256   0.100E-07
     Final TRS4 iteration    9 1.00000000   0.227E-12
     Chemical potential (mu):       0.00386
 
 PAO| energy:  -7.7553967561023347      penalty:   1.3062761972379469E-005
 PAO|CG| warming up with steepest descent
 PAO|CG| beta:    0.0000000000000000     
 PAO| norm of gradient:  0.41833883112585307     
 PAO| energy improvement: -0.15042630471223184     
 PAO| step      6                   -7.755396756  0.261E-01  0.491E+00     0.125
 PAO|LS| adapt:  T F F
 PAO|LS| adapt: scan_steps:    0.0000000000000000        0.0000000000000000        0.0000000000000000     
 PAO|LS| adapt: energies:   -7.7553967561023347        0.0000000000000000        0.0000000000000000     
 PAO| ======================= Iteration:         7 =============================

     Lanczos converged:  T threshold:   0.100E-02
     Est. extremal eigenvalues:    0.281E+01   0.179E+00
     Est. condition number :    0.157E+02
     NS sqrt iter    1 1.00000000   0.716E+00       0.002       40.868
     NS sqrt iter    2 1.00000000   0.338E+00       0.002       64.504
     NS sqrt iter    3 1.00000000   0.785E-01       0.002       64.813
     NS sqrt iter    4 1.00000000   0.205E-02       0.002       64.318
     NS sqrt iter    5 1.00000000   0.765E-07       0.002       46.877
     Final NS sqrt iter    5 1.00000000   0.630E-09

     Est. extremal eigenvalues     -0.93424     1.67253  converged:  T
     TRS4 it   1 1.00000000   0.865E+00       0.001       16.128   0.100E-07
     TRS4 it   2 1.00000000   0.612E+00       0.001       32.256   0.100E-07
     TRS4 it   3 1.00000000   0.420E+00       0.001       32.256   0.100E-07
     TRS4 it   4 1.00000000   0.217E+00       0.001       32.256   0.100E-07
     TRS4 it   5 1.00000000   0.717E-01       0.001       32.256   0.100E-07
     TRS4 it   6 1.00000000   0.963E-02       0.001       32.256   0.100E-07
     TRS4 it   7 1.00000000   0.229E-03       0.001       32.256   0.100E-07
     TRS4 it   8 1.00000000   0.187E-06       0.001       32.256   0.100E-07
     TRS4 it   9 1.00000000   0.152E-12       0.001       32.256   0.100E-07
     Final TRS4 iteration    9 1.00000000   0.152E-12
     Chemical potential (mu):       0.00600
 
 PAO| energy:  -7.7493651436641313      penalty:   1.9833191317214161E-005
 PAO|LS| adapt:  T F T
 PAO|LS| adapt: scan_steps:    0.0000000000000000        0.0000000000000000       0.49071877902171385     
 PAO|LS| adapt: energies:   -7.7553967561023347        0.0000000000000000       -7.7493651436641313     
 PAO| ======================= Iteration:         8 =============================

     Lanczos converged:  T threshold:   0.100E-02
     Est. extremal eigenvalues:    0.285E+01   0.172E+00
     Est. condition number :    0.166E+02
     NS sqrt iter    1 1.00000000   0.725E+00       0.002       41.126
     NS sqrt iter    2 1.00000000   0.348E+00       0.002       64.889
     NS sqrt iter    3 1.00000000   0.861E-01       0.002       63.065
     NS sqrt iter    4 1.00000000   0.266E-02       0.002       65.518
     NS sqrt iter    5 1.00000000   0.158E-06       0.002       49.236
     Final NS sqrt iter    5 1.00000000   0.127E-08

     Est. extremal eigenvalues     -0.93433     1.67745  converged:  T
     TRS4 it   1 1.00000000   0.865E+00       0.001       16.128   0.100E-07
     TRS4 it   2 1.00000000   0.613E+00       0.001       32.256   0.100E-07
     TRS4 it   3 1.00000000   0.420E+00       0.001       32.256   0.100E-07
     TRS4 it   4 1.00000000   0.215E+00       0.001       32.256   0.100E-07
     TRS4 it   5 1.00000000   0.711E-01       0.001       32.256   0.100E-07
     TRS4 it   6 1.00000000   0.971E-02       0.001       32.256   0.100E-07
     TRS4 it   7 1.00000000   0.244E-03       0.001       32.256   0.100E-07
     TRS4 it   8 1.00000000   0.218E-06       0.001       32.256   0.100E-07
     TRS4 it   9 1.00000000   0.209E-12       0.001       32.256   0.100E-07
     Final TRS4 iteration    9 1.00000000   0.209E-12
     Chemical potential (mu):       0.00449
 
 PAO| energy:  -7.7751155102554055      penalty:   1.4177054077237779E-005
 PAO|LS| adapt:  T T T
 PAO|LS| adapt: scan_steps:    0.0000000000000000       0.24535938951085692       0.49071877902171385     
 PAO|LS| adapt: energies:   -7.7553967561023347       -7.7751155102554055       -7.7493651436641313     
 PAO|LS| adapt: suggested step_size:   0.22908556761396295     
 PAO|LS| adapt: predicted energy  -7.7752155241439773     
 PAO| ======================= Iteration:         9 =============================

     Lanczos converged:  T threshold:   0.100E-02
     Est. extremal eigenvalues:    0.286E+01   0.172E+00
     Est. condition number :    0.166E+02
     NS sqrt iter    1 1.00000000   0.725E+00       0.002       40.727
     NS sqrt iter    2 1.00000000   0.349E+00       0.002       64.895
     NS sqrt iter    3 1.00000000   0.866E-01       0.002       63.943
     NS sqrt iter    4 1.00000000   0.271E-02       0.002       64.168
     NS sqrt iter    5 1.00000000   0.165E-06       0.002       49.015
     Final NS sqrt iter    5 1.00000000   0.133E-08

     Est. extremal eigenvalues     -0.93427     1.67782  converged:  T
     TRS4 it   1 1.00000000   0.865E+00       0.001       16.128   0.100E-07
     TRS4 it   2 1.00000000   0.613E+00       0.001       32.256   0.100E-07
     TRS4 it   3 1.00000000   0.420E+00       0.001       32.256   0.100E-07
     TRS4 it   4 1.00000000   0.215E+00       0.001       32.256   0.100E-07
     TRS4 it   5 1.00000000   0.711E-01       0.001       32.256   0.100E-07
     TRS4 it   6 1.00000000   0.971E-02       0.001       32.256   0.100E-07
     TRS4 it   7 1.00000000   0.244E-03       0.001       32.256   0.100E-07
     TRS4 it   8 1.00000000   0.219E-06       0.001       32.256   0.100E-07
     TRS4 it   9 1.00000000   0.211E-12       0.001       32.256   0.100E-07
     Final TRS4 iteration    9 1.00000000   0.211E-12
     Chemical potential (mu):       0.00442
 
 PAO| energy:  -7.7752400718893551      penalty:   1.4001514152093685E-005
 PAO|CG| trace_G_new    3.6986346619939936E-002
 PAO|CG| trace_G_prev   0.17500737762774501     
 PAO|CG| trace_G_mix   -1.4598207610217843E-003
 PAO|CG| trace_D   0.17500737762774501     
 PAO|CG| trace_D_Gnew   1.4598207610217843E-003
 PAO|CG| beta:   0.21968312366087708     
 PAO| norm of gradient:  0.19231834707052767     
 PAO| energy improvement:  -1.9843315787020366E-002
 PAO| step      9                   -7.775240072  0.120E-01  0.229E+00     0.082
 PAO|LS| adapt:  T F F
 PAO|LS| adapt: scan_steps:    0.0000000000000000        0.0000000000000000        0.0000000000000000     
 PAO|LS| adapt: energies:   -7.7752400718893551        0.0000000000000000        0.0000000000000000     
 PAO| ======================= Iteration:        10 =============================

     Lanczos converged:  T threshold:   0.100E-02
     Est. extremal eigenvalues:    0.282E+01   0.177E+00
     Est. condition number :    0.159E+02
     NS sqrt iter    1 1.00000000   0.718E+00       0.002       40.851
     NS sqrt iter    2 1.00000000   0.340E+00       0.002       63.737
     NS sqrt iter    3 1.00000000   0.810E-01       0.002       63.939
     NS sqrt iter    4 1.00000000   0.222E-02       0.002       64.351
     NS sqrt iter    5 1.00000000   0.926E-07       0.002       48.626
     Final NS sqrt iter    5 1.00000000   0.982E-09

     Est. extremal eigenvalues     -0.93516     1.67641  converged:  T
     TRS4 it   1 1.00000000   0.864E+00       0.001       16.128   0.100E-07
     TRS4 it   2 1.00000000   0.612E+00       0.001       32.256   0.100E-07
     TRS4 it   3 1.00000000   0.418E+00       0.001       32.256   0.100E-07
     TRS4 it   4 1.00000000   0.213E+00       0.001       32.256   0.100E-07
     TRS4 it   5 1.00000000   0.694E-01       0.001       32.256   0.100E-07
     TRS4 it   6 1.00000000   0.919E-02       0.001       32.256   0.100E-07
     TRS4 it   7 1.00000000   0.215E-03       0.001       32.256   0.100E-07
     TRS4 it   8 1.00000000   0.166E-06       0.001       32.256   0.100E-07
     TRS4 it   9 1.00000000   0.120E-12       0.001       32.256   0.100E-07
     Final TRS4 iteration    9 1.00000000   0.120E-12
     Chemical potential (mu):       0.00752
 
 PAO| energy:  -7.7803029233198275      penalty:   1.4545119125201464E-005
 PAO|LS| adapt:  T T F
 PAO|LS| adapt: scan_steps:    0.0000000000000000       0.22908556761396295        0.0000000000000000     
 PAO|LS| adapt: energies:   -7.7752400718893551       -7.7803029233198275        0.0000000000000000     
 PAO| ======================= Iteration:        11 =============================

     Lanczos converged:  T threshold:   0.100E-02
     Est. extremal eigenvalues:    0.278E+01   0.183E+00
     Est. condition number :    0.152E+02
     NS sqrt iter    1 1.00000000   0.710E+00       0.001       43.266
     NS sqrt iter    2 1.00000000   0.332E+00       0.002       62.655
     NS sqrt iter    3 1.00000000   0.756E-01       0.002       65.775
     NS sqrt iter    4 1.00000000   0.182E-02       0.002       64.177
     NS sqrt iter    5 1.00000000   0.511E-07       0.002       45.707
     Final NS sqrt iter    5 1.00000000   0.339E-09

     Est. extremal eigenvalues     -0.93508     1.67644  converged:  T
     TRS4 it   1 1.00000000   0.864E+00       0.001       16.128   0.100E-07
     TRS4 it   2 1.00000000   0.612E+00       0.001       32.256   0.100E-07
     TRS4 it   3 1.00000000   0.417E+00       0.001       32.256   0.100E-07
     TRS4 it   4 1.00000000   0.212E+00       0.001       32.256   0.100E-07
     TRS4 it   5 1.00000000   0.679E-01       0.001       32.256   0.100E-07
     TRS4 it   6 1.00000000   0.872E-02       0.001       32.256   0.100E-07
     TRS4 it   7 1.00000000   0.190E-03       0.001       32.256   0.100E-07
     TRS4 it   8 1.00000000   0.126E-06       0.001       32.256   0.100E-07
     TRS4 it   9 1.00000000   0.675E-13       0.001       32.256   0.100E-07
     Final TRS4 iteration    9 1.00000000   0.675E-13
     Chemical potential (mu):       0.01072
 
 PAO| energy:  -7.7789339989621258      penalty:   1.5761486287728659E-005
 PAO|LS| adapt:  T T T
 PAO|LS| adapt: scan_steps:    0.0000000000000000       0.22908556761396295       0.45817113522792591     
 PAO|LS| adapt: energies:   -7.7752400718893551       -7.7803029233198275       -7.7789339989621258     
 PAO|LS| adapt: suggested step_size:   0.29487030639062989     
 PAO|LS| adapt: predicted energy  -7.7805681124695329     
 PAO| ======================= Iteration:        12 =============================

     Lanczos converged:  T threshold:   0.100E-02
     Est. extremal eigenvalues:    0.281E+01   0.179E+00
     Est. condition number :    0.157E+02
     NS sqrt iter    1 1.00000000   0.715E+00       0.002       40.623
     NS sqrt iter    2 1.00000000   0.338E+00       0.010       11.248
     NS sqrt iter    3 1.00000000   0.794E-01       0.002       65.198
     NS sqrt iter    4 1.00000000   0.210E-02       0.002       62.904
     NS sqrt iter    5 1.00000000   0.781E-07       0.002       46.043
     Final NS sqrt iter    5 1.00000000   0.637E-09

     Est. extremal eigenvalues     -0.93524     1.67628  converged:  T
     TRS4 it   1 1.00000000   0.864E+00       0.001       16.128   0.100E-07
     TRS4 it   2 1.00000000   0.612E+00       0.001       32.256   0.100E-07
     TRS4 it   3 1.00000000   0.418E+00       0.001       32.256   0.100E-07
     TRS4 it   4 1.00000000   0.213E+00       0.001       32.256   0.100E-07
     TRS4 it   5 1.00000000   0.689E-01       0.001       32.256   0.100E-07
     TRS4 it   6 1.00000000   0.905E-02       0.001       32.256   0.100E-07
     TRS4 it   7 1.00000000   0.208E-03       0.001       32.256   0.100E-07
     TRS4 it   8 1.00000000   0.153E-06       0.001       32.256   0.100E-07
     TRS4 it   9 1.00000000   0.103E-12       0.001       32.256   0.100E-07
     Final TRS4 iteration    9 1.00000000   0.103E-12
     Chemical potential (mu):       0.00843
 
 PAO| energy:  -7.7805517689501240      penalty:   1.4817775399051024E-005
 PAO|CG| trace_G_new    1.1869216010520262E-002
 PAO|CG| trace_G_prev    3.6986346619939936E-002
 PAO|CG| trace_G_mix   -4.5360459642444892E-004
 PAO|CG| trace_D    4.4790924793445999E-002
 PAO|CG| trace_D_Gnew   2.0488942750190777E-004
 PAO|CG| beta:   0.33317214953858892     
 PAO| norm of gradient:  0.10894593159232822     
 PAO| energy improvement:  -5.3116970607689495E-003
 PAO| step     12                   -7.780551769  0.681E-02  0.295E+00     0.089
 PAO|LS| adapt:  T F F
 PAO|LS| adapt: scan_steps:    0.0000000000000000        0.0000000000000000        0.0000000000000000     
 PAO|LS| adapt: energies:   -7.7805517689501240        0.0000000000000000        0.0000000000000000     
 PAO| ======================= Iteration:        13 =============================

     Lanczos converged:  T threshold:   0.100E-02
     Est. extremal eigenvalues:    0.277E+01   0.183E+00
     Est. condition number :    0.151E+02
     NS sqrt iter    1 1.00000000   0.708E+00       0.002       39.809
     NS sqrt iter    2 1.00000000   0.331E+00       0.002       63.974
     NS sqrt iter    3 1.00000000   0.750E-01       0.002       62.545
     NS sqrt iter    4 1.00000000   0.178E-02       0.002       63.724
     NS sqrt iter    5 1.00000000   0.488E-07       0.002       43.737
     Final NS sqrt iter    5 1.00000000   0.332E-09

     Est. extremal eigenvalues     -0.93572     1.67102  converged:  T
     TRS4 it   1 1.00000000   0.864E+00       0.001       16.128   0.100E-07
     TRS4 it   2 1.00000000   0.609E+00       0.001       32.256   0.100E-07
     TRS4 it   3 1.00000000   0.414E+00       0.001       32.256   0.100E-07
     TRS4 it   4 1.00000000   0.208E+00       0.001       32.256   0.100E-07
     TRS4 it   5 1.00000000   0.655E-01       0.001       32.256   0.100E-07
     TRS4 it   6 1.00000000   0.813E-02       0.001       32.256   0.100E-07
     TRS4 it   7 1.00000000   0.165E-03       0.001       32.256   0.100E-07
     TRS4 it   8 1.00000000   0.947E-07       0.001       32.256   0.100E-07
     TRS4 it   9 1.00000000   0.380E-13       0.001       32.256   0.100E-07
     Final TRS4 iteration    9 1.00000000   0.380E-13
     Chemical potential (mu):       0.01293
 
 PAO| energy:  -7.7826329086637882      penalty:   1.5134084585881865E-005
 PAO|LS| adapt:  T T F
 PAO|LS| adapt: scan_steps:    0.0000000000000000       0.29487030639062989        0.0000000000000000     
 PAO|LS| adapt: energies:   -7.7805517689501240       -7.7826329086637882        0.0000000000000000     
 PAO| ======================= Iteration:        14 =============================

     Lanczos converged:  T threshold:   0.100E-02
     Est. extremal eigenvalues:    0.274E+01   0.187E+00
     Est. condition number :    0.146E+02
     NS sqrt iter    1 1.00000000   0.701E+00       0.002       39.876
     NS sqrt iter    2 1.00000000   0.324E+00       0.002       62.658
     NS sqrt iter    3 1.00000000   0.709E-01       0.002       62.805
     NS sqrt iter    4 1.00000000   0.152E-02       0.002       62.495
     NS sqrt iter    5 1.00000000   0.301E-07       0.002       38.506
     Final NS sqrt iter    5 1.00000000   0.248E-08

     Est. extremal eigenvalues     -0.93570     1.66603  converged:  T
     TRS4 it   1 1.00000000   0.864E+00       0.001       16.128   0.100E-07
     TRS4 it   2 1.00000000   0.606E+00       0.001       32.256   0.100E-07
     TRS4 it   3 1.00000000   0.410E+00       0.001       32.256   0.100E-07
     TRS4 it   4 1.00000000   0.203E+00       0.001       32.256   0.100E-07
     TRS4 it   5 1.00000000   0.623E-01       0.001       32.256   0.100E-07
     TRS4 it   6 1.00000000   0.730E-02       0.001       32.256   0.100E-07
     TRS4 it   7 1.00000000   0.131E-03       0.001       32.256   0.100E-07
     TRS4 it   8 1.00000000   0.585E-07       0.001       32.256   0.100E-07
     Final TRS4 iteration    8 1.00000000   0.585E-07
     Chemical potential (mu):       0.01476
 
 PAO| energy:  -7.7819674058633357      penalty:   1.5938633025760675E-005
 PAO|LS| adapt:  T T T
 PAO|LS| adapt: scan_steps:    0.0000000000000000       0.29487030639062989       0.58974061278125978     
 PAO|LS| adapt: energies:   -7.7805517689501240       -7.7826329086637882       -7.7819674058633357     
 PAO|LS| adapt: suggested step_size:   0.37085931628019164     
 PAO|LS| adapt: predicted energy  -7.7827241121904462     
 PAO| ======================= Iteration:        15 =============================

     Lanczos converged:  T threshold:   0.100E-02
     Est. extremal eigenvalues:    0.276E+01   0.184E+00
     Est. condition number :    0.150E+02
     NS sqrt iter    1 1.00000000   0.706E+00       0.002       40.456
     NS sqrt iter    2 1.00000000   0.329E+00       0.001       77.624
     NS sqrt iter    3 1.00000000   0.740E-01       0.001       76.438
     NS sqrt iter    4 1.00000000   0.171E-02       0.002       66.869
     NS sqrt iter    5 1.00000000   0.432E-07       0.001       47.687
     Final NS sqrt iter    5 1.00000000   0.334E-09

     Est. extremal eigenvalues     -0.93577     1.66971  converged:  T
     TRS4 it   1 1.00000000   0.864E+00       0.001       16.128   0.100E-07
     TRS4 it   2 1.00000000   0.608E+00       0.001       32.256   0.100E-07
     TRS4 it   3 1.00000000   0.413E+00       0.001       32.256   0.100E-07
     TRS4 it   4 1.00000000   0.207E+00       0.001       32.256   0.100E-07
     TRS4 it   5 1.00000000   0.647E-01       0.001       32.256   0.100E-07
     TRS4 it   6 1.00000000   0.790E-02       0.001       32.256   0.100E-07
     TRS4 it   7 1.00000000   0.156E-03       0.001       32.256   0.100E-07
     TRS4 it   8 1.00000000   0.836E-07       0.001       32.256   0.100E-07
     TRS4 it   9 1.00000000   0.295E-13       0.001       32.256   0.100E-07
     Final TRS4 iteration    9 1.00000000   0.295E-13
     Chemical potential (mu):       0.01407
 
 PAO| energy:  -7.7827210507737750      penalty:   1.5291654790110462E-005
 PAO|CG| trace_G_new    2.6152724799804934E-003
 PAO|CG| trace_G_prev    1.1869216010520262E-002
 PAO|CG| trace_G_mix    6.3032530380368316E-005
 PAO|CG| trace_D    1.6704646646249523E-002
 PAO|CG| trace_D_Gnew   3.4609004890649985E-005
 PAO|CG| beta:   0.21503020480358190     
 PAO| norm of gradient:   5.1139734844643979E-002
 PAO| energy improvement:  -2.1692818236509481E-003
 PAO| step     15                   -7.782721051  0.320E-02  0.371E+00     0.081
 PAO|LS| adapt:  T F F
 PAO|LS| adapt: scan_steps:    0.0000000000000000        0.0000000000000000        0.0000000000000000     
 PAO|LS| adapt: energies:   -7.7827210507737750        0.0000000000000000        0.0000000000000000     
 PAO| ======================= Iteration:        16 =============================

     Lanczos converged:  T threshold:   0.100E-02
     Est. extremal eigenvalues:    0.276E+01   0.185E+00
     Est. condition number :    0.149E+02
     NS sqrt iter    1 1.00000000   0.704E+00       0.002       40.886
     NS sqrt iter    2 1.00000000   0.328E+00       0.002       63.657
     NS sqrt iter    3 1.00000000   0.733E-01       0.002       61.018
     NS sqrt iter    4 1.00000000   0.166E-02       0.002       62.650
     NS sqrt iter    5 1.00000000   0.393E-07       0.002       41.171
     Final NS sqrt iter    5 1.00000000   0.328E-09

     Est. extremal eigenvalues     -0.93579     1.66982  converged:  T
     TRS4 it   1 1.00000000   0.864E+00       0.001       16.128   0.100E-07
     TRS4 it   2 1.00000000   0.608E+00       0.001       32.256   0.100E-07
     TRS4 it   3 1.00000000   0.412E+00       0.001       32.256   0.100E-07
     TRS4 it   4 1.00000000   0.205E+00       0.001       32.256   0.100E-07
     TRS4 it   5 1.00000000   0.636E-01       0.001       32.256   0.100E-07
     TRS4 it   6 1.00000000   0.766E-02       0.001       32.256   0.100E-07
     TRS4 it   7 1.00000000   0.147E-03       0.001       32.256   0.100E-07
     TRS4 it   8 1.00000000   0.753E-07       0.001       32.256   0.100E-07
     Final TRS4 iteration    8 1.00000000   0.753E-07
     Chemical potential (mu):       0.01282
 
 PAO| energy:  -7.7828460661452006      penalty:   1.5072954917811353E-005
 PAO|LS| adapt:  T T F
 PAO|LS| adapt: scan_steps:    0.0000000000000000       0.37085931628019164        0.0000000000000000     
 PAO|LS| adapt: energies:   -7.7827210507737750       -7.7828460661452006        0.0000000000000000     
 PAO| ======================= Iteration:        17 =============================

     Lanczos converged:  T threshold:   0.100E-02
     Est. extremal eigenvalues:    0.275E+01   0.185E+00
     Est. condition number :    0.148E+02
     NS sqrt iter    1 1.00000000   0.702E+00       0.002       39.592
     NS sqrt iter    2 1.00000000   0.326E+00       0.002       62.157
     NS sqrt iter    3 1.00000000   0.726E-01       0.002       62.544
     NS sqrt iter    4 1.00000000   0.161E-02       0.002       62.362
     NS sqrt iter    5 1.00000000   0.358E-07       0.002       37.738
     Final NS sqrt iter    5 1.00000000   0.331E-08

     Est. extremal eigenvalues     -0.93570     1.67002  converged:  T
     TRS4 it   1 1.00000000   0.865E+00       0.000       16.128   0.100E-07
     TRS4 it   2 1.00000000   0.607E+00       0.001       32.256   0.100E-07
     TRS4 it   3 1.00000000   0.411E+00       0.001       32.256   0.100E-07
     TRS4 it   4 1.00000000   0.204E+00       0.001       32.256   0.100E-07
     TRS4 it   5 1.00000000   0.626E-01       0.001       32.256   0.100E-07
     TRS4 it   6 1.00000000   0.742E-02       0.001       32.256   0.100E-07
     TRS4 it   7 1.00000000   0.139E-03       0.001       32.256   0.100E-07
     TRS4 it   8 1.00000000   0.678E-07       0.001       32.256   0.100E-07
     Final TRS4 iteration    8 1.00000000   0.678E-07
     Chemical potential (mu):       0.01378
 
 PAO| energy:  -7.7812813652098818      penalty:   1.4980042374853313E-005
 PAO|LS| adapt:  T T T
 PAO|LS| adapt: scan_steps:    0.0000000000000000       0.37085931628019164       0.74171863256038328     
 PAO|LS| adapt: energies:   -7.7827210507737750       -7.7828460661452006       -7.7812813652098818     
 PAO|LS| adapt: suggested step_size:   0.21286806006967607     
 PAO|LS| adapt: predicted energy  -7.7829993976922340     
 PAO| ======================= Iteration:        18 =============================

     Lanczos converged:  T threshold:   0.100E-02
     Est. extremal eigenvalues:    0.276E+01   0.185E+00
     Est. condition number :    0.150E+02
     NS sqrt iter    1 1.00000000   0.705E+00       0.001       62.991
     NS sqrt iter    2 1.00000000   0.328E+00       0.001       92.554
     NS sqrt iter    3 1.00000000   0.736E-01       0.002       62.050
     NS sqrt iter    4 1.00000000   0.168E-02       0.002       63.419
     NS sqrt iter    5 1.00000000   0.409E-07       0.001       46.284
     Final NS sqrt iter    5 1.00000000   0.322E-09

     Est. extremal eigenvalues     -0.93580     1.66976  converged:  T
     TRS4 it   1 1.00000000   0.864E+00       0.001       16.128   0.100E-07
     TRS4 it   2 1.00000000   0.608E+00       0.001       32.256   0.100E-07
     TRS4 it   3 1.00000000   0.412E+00       0.001       32.256   0.100E-07
     TRS4 it   4 1.00000000   0.206E+00       0.001       32.256   0.100E-07
     TRS4 it   5 1.00000000   0.641E-01       0.001       32.256   0.100E-07
     TRS4 it   6 1.00000000   0.776E-02       0.001       32.256   0.100E-07
     TRS4 it   7 1.00000000   0.151E-03       0.001       32.256   0.100E-07
     TRS4 it   8 1.00000000   0.787E-07       0.001       32.256   0.100E-07
     Final TRS4 iteration    8 1.00000000   0.787E-07
     Chemical potential (mu):       0.01241
 
 PAO| energy:  -7.7829988829568357      penalty:   1.5151013478767696E-005
 PAO|CG| trace_G_new    7.3367436826846295E-004
 PAO|CG| trace_G_prev    2.6152724799804934E-003
 PAO|CG| trace_G_mix    2.2010678317715135E-006
 PAO|CG| trace_D    3.3727777846696300E-003
 PAO|CG| trace_D_Gnew  -2.0757796055060396E-006
 PAO|CG| beta:   0.27969295973402636     
 PAO| norm of gradient:   2.7086424058344487E-002
 PAO| energy improvement:  -2.7783218306076662E-004
 PAO| step     18                   -7.782998883  0.169E-02  0.213E+00     0.073
 PAO|LS| adapt:  T F F
 PAO|LS| adapt: scan_steps:    0.0000000000000000        0.0000000000000000        0.0000000000000000     
 PAO|LS| adapt: energies:   -7.7829988829568357        0.0000000000000000        0.0000000000000000     
 PAO| ======================= Iteration:        19 =============================

     Lanczos converged:  T threshold:   0.100E-02
     Est. extremal eigenvalues:    0.276E+01   0.184E+00
     Est. condition number :    0.150E+02
     NS sqrt iter    1 1.00000000   0.705E+00       0.001       44.485
     NS sqrt iter    2 1.00000000   0.328E+00       0.002       69.398
     NS sqrt iter    3 1.00000000   0.738E-01       0.002       72.066
     NS sqrt iter    4 1.00000000   0.169E-02       0.002       66.832
     NS sqrt iter    5 1.00000000   0.413E-07       0.002       43.900
     Final NS sqrt iter    5 1.00000000   0.308E-09

     Est. extremal eigenvalues     -0.93580     1.67017  converged:  T
     TRS4 it   1 1.00000000   0.864E+00       0.001       16.128   0.100E-07
     TRS4 it   2 1.00000000   0.608E+00       0.001       32.256   0.100E-07
     TRS4 it   3 1.00000000   0.412E+00       0.001       32.256   0.100E-07
     TRS4 it   4 1.00000000   0.206E+00       0.001       32.256   0.100E-07
     TRS4 it   5 1.00000000   0.640E-01       0.001       32.256   0.100E-07
     TRS4 it   6 1.00000000   0.776E-02       0.001       32.256   0.100E-07
     TRS4 it   7 1.00000000   0.151E-03       0.001       32.256   0.100E-07
     TRS4 it   8 1.00000000   0.800E-07       0.001       32.227   0.100E-07
     Final TRS4 iteration    8 1.00000000   0.800E-07
     Chemical potential (mu):       0.01228
 
 PAO| energy:  -7.7831180029754705      penalty:   1.4860452661256202E-005
 PAO|LS| adapt:  T T F
 PAO|LS| adapt: scan_steps:    0.0000000000000000       0.21286806006967607        0.0000000000000000     
 PAO|LS| adapt: energies:   -7.7829988829568357       -7.7831180029754705        0.0000000000000000     
 PAO| ======================= Iteration:        20 =============================

     Lanczos converged:  T threshold:   0.100E-02
     Est. extremal eigenvalues:    0.276E+01   0.184E+00
     Est. condition number :    0.150E+02
     NS sqrt iter    1 1.00000000   0.705E+00       0.002       39.371
     NS sqrt iter    2 1.00000000   0.329E+00       0.002       61.935
     NS sqrt iter    3 1.00000000   0.740E-01       0.002       61.801
     NS sqrt iter    4 1.00000000   0.170E-02       0.002       62.026
     NS sqrt iter    5 1.00000000   0.417E-07       0.002       42.264
     Final NS sqrt iter    5 1.00000000   0.344E-09

     Est. extremal eigenvalues     -0.93580     1.67058  converged:  T
     TRS4 it   1 1.00000000   0.864E+00       0.001       16.128   0.100E-07
     TRS4 it   2 1.00000000   0.608E+00       0.001       32.256   0.100E-07
     TRS4 it   3 1.00000000   0.412E+00       0.001       32.256   0.100E-07
     TRS4 it   4 1.00000000   0.206E+00       0.001       32.127   0.100E-07
     TRS4 it   5 1.00000000   0.639E-01       0.001       32.256   0.100E-07
     TRS4 it   6 1.00000000   0.775E-02       0.001       32.256   0.100E-07
     TRS4 it   7 1.00000000   0.152E-03       0.001       32.256   0.100E-07
     TRS4 it   8 1.00000000   0.813E-07       0.001       32.256   0.100E-07
     TRS4 it   9 1.00000000   0.285E-13       0.001       32.256   0.100E-07
     Final TRS4 iteration    9 1.00000000   0.285E-13
     Chemical potential (mu):       0.01402
 
 PAO| energy:  -7.7831624754331630      penalty:   1.4582441987648838E-005
 PAO|LS| adapt:  T T F
 PAO|LS| adapt: scan_steps:    0.0000000000000000       0.42573612013935214        0.0000000000000000     
 PAO|LS| adapt: energies:   -7.7829988829568357       -7.7831624754331630        0.0000000000000000     
 PAO| ======================= Iteration:        21 =============================

     Lanczos converged:  T threshold:   0.100E-02
     Est. extremal eigenvalues:    0.276E+01   0.184E+00
     Est. condition number :    0.150E+02
     NS sqrt iter    1 1.00000000   0.705E+00       0.002       39.145
     NS sqrt iter    2 1.00000000   0.329E+00       0.002       61.021
     NS sqrt iter    3 1.00000000   0.744E-01       0.002       62.115
     NS sqrt iter    4 1.00000000   0.172E-02       0.002       61.536
     NS sqrt iter    5 1.00000000   0.427E-07       0.002       42.610
     Final NS sqrt iter    5 1.00000000   0.321E-09

     Est. extremal eigenvalues     -0.93579     1.67141  converged:  T
     TRS4 it   1 1.00000000   0.865E+00       0.001       16.128   0.100E-07
     TRS4 it   2 1.00000000   0.608E+00       0.001       32.020   0.100E-07
     TRS4 it   3 1.00000000   0.412E+00       0.001       32.256   0.100E-07
     TRS4 it   4 1.00000000   0.205E+00       0.001       32.256   0.100E-07
     TRS4 it   5 1.00000000   0.637E-01       0.001       32.256   0.100E-07
     TRS4 it   6 1.00000000   0.774E-02       0.001       32.256   0.100E-07
     TRS4 it   7 1.00000000   0.153E-03       0.001       32.256   0.100E-07
     TRS4 it   8 1.00000000   0.840E-07       0.001       32.256   0.100E-07
     TRS4 it   9 1.00000000   0.308E-13       0.001       32.256   0.100E-07
     Final TRS4 iteration    9 1.00000000   0.308E-13
     Chemical potential (mu):       0.01349
 
 PAO| energy:  -7.7830244151877572      penalty:   1.4063497747017887E-005
 PAO|LS| Need extra step
 PAO|LS| adapt:  T T T
 PAO|LS| adapt: scan_steps:    0.0000000000000000       0.42573612013935214       0.85147224027870427     
 PAO|LS| adapt: energies:   -7.7829988829568357       -7.7831624754331630       -7.7830244151877572     
 PAO|LS| adapt: suggested step_size:   0.44375351588597917     
 PAO|LS| adapt: predicted energy  -7.7831627455678118     
 PAO| ======================= Iteration:        22 =============================

     Lanczos converged:  T threshold:   0.100E-02
     Est. extremal eigenvalues:    0.276E+01   0.184E+00
     Est. condition number :    0.150E+02
     NS sqrt iter    1 1.00000000   0.705E+00       0.002       40.733
     NS sqrt iter    2 1.00000000   0.329E+00       0.002       63.630
     NS sqrt iter    3 1.00000000   0.740E-01       0.002       64.240
     NS sqrt iter    4 1.00000000   0.170E-02       0.002       63.588
     NS sqrt iter    5 1.00000000   0.418E-07       0.002       44.136
     Final NS sqrt iter    5 1.00000000   0.345E-09

     Est. extremal eigenvalues     -0.93579     1.67062  converged:  T
     TRS4 it   1 1.00000000   0.864E+00       0.001       16.128   0.100E-07
     TRS4 it   2 1.00000000   0.608E+00       0.001       32.256   0.100E-07
     TRS4 it   3 1.00000000   0.412E+00       0.001       32.256   0.100E-07
     TRS4 it   4 1.00000000   0.206E+00       0.001       32.256   0.100E-07
     TRS4 it   5 1.00000000   0.639E-01       0.001       32.256   0.100E-07
     TRS4 it   6 1.00000000   0.775E-02       0.001       32.256   0.100E-07
     TRS4 it   7 1.00000000   0.152E-03       0.001       32.256   0.100E-07
     TRS4 it   8 1.00000000   0.814E-07       0.001       32.256   0.100E-07
     TRS4 it   9 1.00000000   0.281E-13       0.001       32.256   0.100E-07
     Final TRS4 iteration    9 1.00000000   0.281E-13
     Chemical potential (mu):       0.01400
 
 PAO| energy:  -7.7831627781856225      penalty:   1.4559481286010502E-005
 PAO|CG| trace_G_new    2.2578997917134709E-004
 PAO|CG| trace_G_prev    7.3367436826846295E-004
 PAO|CG| trace_G_mix    2.8971377568237221E-006
 PAO|CG| trace_D    9.9868170242480448E-004
 PAO|CG| trace_D_Gnew  -1.8095931609978897E-006
 PAO|CG| beta:   0.30380350064643857     
 PAO| norm of gradient:   1.5026309565936244E-002
 PAO| energy improvement:  -1.6389522878679230E-004
 PAO| step     22                   -7.783162778  0.939E-03  0.444E+00     0.106
 PAO|LS| adapt:  T F F
 PAO|LS| adapt: scan_steps:    0.0000000000000000        0.0000000000000000        0.0000000000000000     
 PAO|LS| adapt: energies:   -7.7831627781856225        0.0000000000000000        0.0000000000000000     
 PAO| ======================= Iteration:        23 =============================

     Lanczos converged:  T threshold:   0.100E-02
     Est. extremal eigenvalues:    0.276E+01   0.184E+00
     Est. condition number :    0.150E+02
     NS sqrt iter    1 1.00000000   0.705E+00       0.002       39.967
     NS sqrt iter    2 1.00000000   0.329E+00       0.002       63.941
     NS sqrt iter    3 1.00000000   0.741E-01       0.002       61.463
     NS sqrt iter    4 1.00000000   0.170E-02       0.002       63.842
     NS sqrt iter    5 1.00000000   0.419E-07       0.002       44.563
     Final NS sqrt iter    5 1.00000000   0.348E-09

     Est. extremal eigenvalues     -0.93580     1.67065  converged:  T
     TRS4 it   1 1.00000000   0.864E+00       0.001       16.128   0.100E-07
     TRS4 it   2 1.00000000   0.608E+00       0.001       32.256   0.100E-07
     TRS4 it   3 1.00000000   0.412E+00       0.001       32.256   0.100E-07
     TRS4 it   4 1.00000000   0.206E+00       0.001       32.256   0.100E-07
     TRS4 it   5 1.00000000   0.640E-01       0.001       32.256   0.100E-07
     TRS4 it   6 1.00000000   0.779E-02       0.001       32.256   0.100E-07
     TRS4 it   7 1.00000000   0.153E-03       0.001       32.256   0.100E-07
     TRS4 it   8 1.00000000   0.835E-07       0.001       32.256   0.100E-07
     TRS4 it   9 1.00000000   0.308E-13       0.001       32.256   0.100E-07
     Final TRS4 iteration    9 1.00000000   0.308E-13
     Chemical potential (mu):       0.01371
 
 PAO| energy:  -7.7832127801707651      penalty:   1.3875377536665416E-005
 PAO|LS| adapt:  T T F
 PAO|LS| adapt: scan_steps:    0.0000000000000000       0.44375351588597917        0.0000000000000000     
 PAO|LS| adapt: energies:   -7.7831627781856225       -7.7832127801707651        0.0000000000000000     
 PAO| ======================= Iteration:        24 =============================

     Lanczos converged:  T threshold:   0.100E-02
     Est. extremal eigenvalues:    0.276E+01   0.184E+00
     Est. condition number :    0.150E+02
     NS sqrt iter    1 1.00000000   0.705E+00       0.002       40.871
     NS sqrt iter    2 1.00000000   0.329E+00       0.002       64.554
     NS sqrt iter    3 1.00000000   0.741E-01       0.002       63.527
     NS sqrt iter    4 1.00000000   0.171E-02       0.002       64.951
     NS sqrt iter    5 1.00000000   0.420E-07       0.002       44.099
     Final NS sqrt iter    5 1.00000000   0.344E-09

     Est. extremal eigenvalues     -0.93579     1.67068  converged:  T
     TRS4 it   1 1.00000000   0.864E+00       0.001       16.128   0.100E-07
     TRS4 it   2 1.00000000   0.608E+00       0.001       32.256   0.100E-07
     TRS4 it   3 1.00000000   0.412E+00       0.001       32.256   0.100E-07
     TRS4 it   4 1.00000000   0.206E+00       0.001       32.256   0.100E-07
     TRS4 it   5 1.00000000   0.641E-01       0.001       32.256   0.100E-07
     TRS4 it   6 1.00000000   0.782E-02       0.001       32.256   0.100E-07
     TRS4 it   7 1.00000000   0.155E-03       0.001       32.256   0.100E-07
     TRS4 it   8 1.00000000   0.856E-07       0.001       32.256   0.100E-07
     TRS4 it   9 1.00000000   0.320E-13       0.001       32.256   0.100E-07
     Final TRS4 iteration    9 1.00000000   0.320E-13
     Chemical potential (mu):       0.01342
 
 PAO| energy:  -7.7831612456858101      penalty:   1.3219787614380098E-005
 PAO|LS| adapt:  T T T
 PAO|LS| adapt: scan_steps:    0.0000000000000000       0.44375351588597917       0.88750703177195833     
 PAO|LS| adapt: energies:   -7.7831627781856225       -7.7832127801707651       -7.7831612456858101     
 PAO|LS| adapt: suggested step_size:   0.44040470841223789     
 PAO|LS| adapt: predicted energy  -7.7832127830620355     
 PAO| ======================= Iteration:        25 =============================

     Lanczos converged:  T threshold:   0.100E-02
     Est. extremal eigenvalues:    0.276E+01   0.184E+00
     Est. condition number :    0.150E+02
     NS sqrt iter    1 1.00000000   0.705E+00       0.002       40.619
     NS sqrt iter    2 1.00000000   0.329E+00       0.002       63.752
     NS sqrt iter    3 1.00000000   0.741E-01       0.002       63.445
     NS sqrt iter    4 1.00000000   0.170E-02       0.002       63.924
     NS sqrt iter    5 1.00000000   0.419E-07       0.002       43.587
     Final NS sqrt iter    5 1.00000000   0.348E-09

     Est. extremal eigenvalues     -0.93580     1.67065  converged:  T
     TRS4 it   1 1.00000000   0.864E+00       0.001       16.128   0.100E-07
     TRS4 it   2 1.00000000   0.608E+00       0.001       32.256   0.100E-07
     TRS4 it   3 1.00000000   0.412E+00       0.001       32.256   0.100E-07
     TRS4 it   4 1.00000000   0.206E+00       0.001       32.256   0.100E-07
     TRS4 it   5 1.00000000   0.640E-01       0.001       32.256   0.100E-07
     TRS4 it   6 1.00000000   0.779E-02       0.001       32.256   0.100E-07
     TRS4 it   7 1.00000000   0.153E-03       0.001       32.256   0.100E-07
     TRS4 it   8 1.00000000   0.835E-07       0.001       32.256   0.100E-07
     TRS4 it   9 1.00000000   0.308E-13       0.001       32.256   0.100E-07
     Final TRS4 iteration    9 1.00000000   0.308E-13
     Chemical potential (mu):       0.01371
 
 PAO| energy:  -7.7832127818082038      penalty:   1.3880432615538009E-005
 PAO|CG| trace_G_new    8.1265999510296905E-005
 PAO|CG| trace_G_prev    2.2578997917134709E-004
 PAO|CG| trace_G_mix    8.0018858840607446E-007
 PAO|CG| trace_D    3.1906439331001019E-004
 PAO|CG| trace_D_Gnew  -3.7440257654196238E-007
 PAO|CG| beta:   0.35637458853223547     
 PAO| norm of gradient:   9.0147656381237614E-003
 PAO| energy improvement:  -5.0003622581229479E-005
 PAO| step     25                   -7.783212782  0.563E-03  0.440E+00     0.082
 PAO|LS| adapt:  T F F
 PAO|LS| adapt: scan_steps:    0.0000000000000000        0.0000000000000000        0.0000000000000000     
 PAO|LS| adapt: energies:   -7.7832127818082038        0.0000000000000000        0.0000000000000000     
 PAO| ======================= Iteration:        26 =============================

     Lanczos converged:  T threshold:   0.100E-02
     Est. extremal eigenvalues:    0.276E+01   0.184E+00
     Est. condition number :    0.150E+02
     NS sqrt iter    1 1.00000000   0.705E+00       0.002       42.264
     NS sqrt iter    2 1.00000000   0.329E+00       0.002       65.659
     NS sqrt iter    3 1.00000000   0.740E-01       0.002       66.388
     NS sqrt iter    4 1.00000000   0.170E-02       0.002       66.145
     NS sqrt iter    5 1.00000000   0.417E-07       0.002       44.850
     Final NS sqrt iter    5 1.00000000   0.347E-09

     Est. extremal eigenvalues     -0.93580     1.67056  converged:  T
     TRS4 it   1 1.00000000   0.865E+00       0.001       16.128   0.100E-07
     TRS4 it   2 1.00000000   0.608E+00       0.001       32.256   0.100E-07
     TRS4 it   3 1.00000000   0.412E+00       0.001       32.256   0.100E-07
     TRS4 it   4 1.00000000   0.206E+00       0.001       32.256   0.100E-07
     TRS4 it   5 1.00000000   0.639E-01       0.001       32.256   0.100E-07
     TRS4 it   6 1.00000000   0.777E-02       0.001       32.256   0.100E-07
     TRS4 it   7 1.00000000   0.153E-03       0.001       32.256   0.100E-07
     TRS4 it   8 1.00000000   0.824E-07       0.001       32.256   0.100E-07
     TRS4 it   9 1.00000000   0.298E-13       0.001       32.256   0.100E-07
     Final TRS4 iteration    9 1.00000000   0.298E-13
     Chemical potential (mu):       0.01385
 
 PAO| energy:  -7.7832171792403342      penalty:   1.3156958325332598E-005
 PAO|LS| adapt:  T T F
 PAO|LS| adapt: scan_steps:    0.0000000000000000       0.44040470841223789        0.0000000000000000     
 PAO|LS| adapt: energies:   -7.7832127818082038       -7.7832171792403342        0.0000000000000000     
 PAO| ======================= Iteration:        27 =============================

     Lanczos converged:  T threshold:   0.100E-02
     Est. extremal eigenvalues:    0.276E+01   0.184E+00
     Est. condition number :    0.150E+02
     NS sqrt iter    1 1.00000000   0.704E+00       0.002       42.458
     NS sqrt iter    2 1.00000000   0.328E+00       0.002       65.692
     NS sqrt iter    3 1.00000000   0.738E-01       0.002       66.473
     NS sqrt iter    4 1.00000000   0.169E-02       0.002       66.381
     NS sqrt iter    5 1.00000000   0.416E-07       0.002       45.112
     Final NS sqrt iter    5 1.00000000   0.350E-09

     Est. extremal eigenvalues     -0.93580     1.67047  converged:  T
     TRS4 it   1 1.00000000   0.865E+00       0.001       16.128   0.100E-07
     TRS4 it   2 1.00000000   0.608E+00       0.001       32.256   0.100E-07
     TRS4 it   3 1.00000000   0.412E+00       0.001       32.256   0.100E-07
     TRS4 it   4 1.00000000   0.206E+00       0.001       32.256   0.100E-07
     TRS4 it   5 1.00000000   0.639E-01       0.001       32.256   0.100E-07
     TRS4 it   6 1.00000000   0.775E-02       0.001       32.256   0.100E-07
     TRS4 it   7 1.00000000   0.152E-03       0.001       32.256   0.100E-07
     TRS4 it   8 1.00000000   0.814E-07       0.001       32.256   0.100E-07
     TRS4 it   9 1.00000000   0.289E-13       0.001       32.256   0.100E-07
     Final TRS4 iteration    9 1.00000000   0.289E-13
     Chemical potential (mu):       0.01399
 
 PAO| energy:  -7.7831585639182785      penalty:   1.2457200082097337E-005
 PAO|LS| adapt:  T T T
 PAO|LS| adapt: scan_steps:    0.0000000000000000       0.44040470841223789       0.88080941682447578     
 PAO|LS| adapt: energies:   -7.7832127818082038       -7.7832171792403342       -7.7831585639182785     
 PAO|LS| adapt: suggested step_size:   0.25093660539353019     
 PAO|LS| adapt: predicted energy  -7.7832230105589826     
 PAO| ======================= Iteration:        28 =============================

     Lanczos converged:  T threshold:   0.100E-02
     Est. extremal eigenvalues:    0.276E+01   0.184E+00
     Est. condition number :    0.150E+02
     NS sqrt iter    1 1.00000000   0.705E+00       0.002       42.425
     NS sqrt iter    2 1.00000000   0.329E+00       0.002       66.321
     NS sqrt iter    3 1.00000000   0.740E-01       0.002       66.689
     NS sqrt iter    4 1.00000000   0.170E-02       0.002       66.506
     NS sqrt iter    5 1.00000000   0.418E-07       0.002       45.565
     Final NS sqrt iter    5 1.00000000   0.347E-09

     Est. extremal eigenvalues     -0.93580     1.67060  converged:  T
     TRS4 it   1 1.00000000   0.864E+00       0.001       16.128   0.100E-07
     TRS4 it   2 1.00000000   0.608E+00       0.001       32.256   0.100E-07
     TRS4 it   3 1.00000000   0.412E+00       0.001       32.256   0.100E-07
     TRS4 it   4 1.00000000   0.206E+00       0.001       32.256   0.100E-07
     TRS4 it   5 1.00000000   0.640E-01       0.001       32.256   0.100E-07
     TRS4 it   6 1.00000000   0.778E-02       0.001       32.256   0.100E-07
     TRS4 it   7 1.00000000   0.153E-03       0.001       32.256   0.100E-07
     TRS4 it   8 1.00000000   0.829E-07       0.001       32.256   0.100E-07
     TRS4 it   9 1.00000000   0.291E-13       0.001       32.256   0.100E-07
     Final TRS4 iteration    9 1.00000000   0.291E-13
     Chemical potential (mu):       0.01379
 
 PAO| energy:  -7.7832230008838001      penalty:   1.3465280963553276E-005
 PAO|CG| trace_G_new    3.2417246349175324E-005
 PAO|CG| trace_G_prev    8.1265999510296905E-005
 PAO|CG| trace_G_mix    5.2553431693132443E-008
 PAO|CG| trace_D    1.2205494107747462E-004
 PAO|CG| trace_D_Gnew  -2.7603873017278125E-008
 PAO|CG| beta:   0.39825625861380548     
 PAO| norm of gradient:   5.6936145241116669E-003
 PAO| energy improvement:  -1.0219075596396010E-005
 PAO| step     28                   -7.783223001  0.356E-03  0.251E+00     0.080
 PAO|LS| adapt:  T F F
 PAO|LS| adapt: scan_steps:    0.0000000000000000        0.0000000000000000        0.0000000000000000     
 PAO|LS| adapt: energies:   -7.7832230008838001        0.0000000000000000        0.0000000000000000     
 PAO| ======================= Iteration:        29 =============================

     Lanczos converged:  T threshold:   0.100E-02
     Est. extremal eigenvalues:    0.276E+01   0.184E+00
     Est. condition number :    0.150E+02
     NS sqrt iter    1 1.00000000   0.705E+00       0.002       41.857
     NS sqrt iter    2 1.00000000   0.328E+00       0.002       65.402
     NS sqrt iter    3 1.00000000   0.739E-01       0.002       66.313
     NS sqrt iter    4 1.00000000   0.170E-02       0.002       66.721
     NS sqrt iter    5 1.00000000   0.418E-07       0.002       45.403
     Final NS sqrt iter    5 1.00000000   0.334E-09

     Est. extremal eigenvalues     -0.93580     1.67062  converged:  T
     TRS4 it   1 1.00000000   0.865E+00       0.001       16.128   0.100E-07
     TRS4 it   2 1.00000000   0.608E+00       0.001       32.256   0.100E-07
     TRS4 it   3 1.00000000   0.412E+00       0.001       32.256   0.100E-07
     TRS4 it   4 1.00000000   0.206E+00       0.001       32.256   0.100E-07
     TRS4 it   5 1.00000000   0.639E-01       0.001       32.256   0.100E-07
     TRS4 it   6 1.00000000   0.776E-02       0.001       32.256   0.100E-07
     TRS4 it   7 1.00000000   0.152E-03       0.001       32.256   0.100E-07
     TRS4 it   8 1.00000000   0.818E-07       0.001       32.256   0.100E-07
     TRS4 it   9 1.00000000   0.289E-13       0.001       32.256   0.100E-07
     Final TRS4 iteration    9 1.00000000   0.289E-13
     Chemical potential (mu):       0.01393
 
 PAO| energy:  -7.7832301719040249      penalty:   1.3030050677006337E-005
 PAO|LS| adapt:  T T F
 PAO|LS| adapt: scan_steps:    0.0000000000000000       0.25093660539353019        0.0000000000000000     
 PAO|LS| adapt: energies:   -7.7832230008838001       -7.7832301719040249        0.0000000000000000     
 PAO| ======================= Iteration:        30 =============================

     Lanczos converged:  T threshold:   0.100E-02
     Est. extremal eigenvalues:    0.276E+01   0.184E+00
     Est. condition number :    0.150E+02
     NS sqrt iter    1 1.00000000   0.704E+00       0.002       41.897
     NS sqrt iter    2 1.00000000   0.328E+00       0.002       65.586
     NS sqrt iter    3 1.00000000   0.739E-01       0.002       66.415
     NS sqrt iter    4 1.00000000   0.170E-02       0.002       66.322
     NS sqrt iter    5 1.00000000   0.418E-07       0.002       32.084
     Final NS sqrt iter    5 1.00000000   0.345E-09

     Est. extremal eigenvalues     -0.93580     1.67065  converged:  T
     TRS4 it   1 1.00000000   0.865E+00       0.001       16.128   0.100E-07
     TRS4 it   2 1.00000000   0.608E+00       0.001       32.256   0.100E-07
     TRS4 it   3 1.00000000   0.412E+00       0.001       32.256   0.100E-07
     TRS4 it   4 1.00000000   0.206E+00       0.001       32.256   0.100E-07
     TRS4 it   5 1.00000000   0.638E-01       0.001       32.256   0.100E-07
     TRS4 it   6 1.00000000   0.774E-02       0.001       32.256   0.100E-07
     TRS4 it   7 1.00000000   0.151E-03       0.001       32.256   0.100E-07
     TRS4 it   8 1.00000000   0.807E-07       0.001       32.256   0.100E-07
     TRS4 it   9 1.00000000   0.274E-13       0.001       32.256   0.100E-07
     Final TRS4 iteration    9 1.00000000   0.274E-13
     Chemical potential (mu):       0.01408
 
 PAO| energy:  -7.7832354178134988      penalty:   1.2602822296104296E-005
 PAO|LS| adapt:  T T F
 PAO|LS| adapt: scan_steps:    0.0000000000000000       0.50187321078706038        0.0000000000000000     
 PAO|LS| adapt: energies:   -7.7832230008838001       -7.7832354178134988        0.0000000000000000     
 PAO| ======================= Iteration:        31 =============================

     Lanczos converged:  T threshold:   0.100E-02
     Est. extremal eigenvalues:    0.276E+01   0.184E+00
     Est. condition number :    0.150E+02
     NS sqrt iter    1 1.00000000   0.704E+00       0.002       41.876
     NS sqrt iter    2 1.00000000   0.328E+00       0.002       64.736
     NS sqrt iter    3 1.00000000   0.737E-01       0.002       64.950
     NS sqrt iter    4 1.00000000   0.169E-02       0.002       65.965
     NS sqrt iter    5 1.00000000   0.418E-07       0.002       45.658
     Final NS sqrt iter    5 1.00000000   0.344E-09

     Est. extremal eigenvalues     -0.93581     1.67070  converged:  T
     TRS4 it   1 1.00000000   0.865E+00       0.001       16.128   0.100E-07
     TRS4 it   2 1.00000000   0.608E+00       0.001       32.256   0.100E-07
     TRS4 it   3 1.00000000   0.412E+00       0.001       32.256   0.100E-07
     TRS4 it   4 1.00000000   0.205E+00       0.001       32.256   0.100E-07
     TRS4 it   5 1.00000000   0.636E-01       0.001       32.256   0.100E-07
     TRS4 it   6 1.00000000   0.770E-02       0.001       32.256   0.100E-07
     TRS4 it   7 1.00000000   0.149E-03       0.001       32.256   0.100E-07
     TRS4 it   8 1.00000000   0.787E-07       0.001       32.256   0.100E-07
     Final TRS4 iteration    8 1.00000000   0.787E-07
     Chemical potential (mu):       0.01244
 
 PAO| energy:  -7.7832400131038764      penalty:   1.1772202556738674E-005
 PAO|LS| Need extra step
 PAO|LS| adapt:  T T F
 PAO|LS| adapt: scan_steps:    0.0000000000000000        1.0037464215741208        0.0000000000000000     
 PAO|LS| adapt: energies:   -7.7832230008838001       -7.7832400131038764        0.0000000000000000     
 PAO| ======================= Iteration:        32 =============================

     Lanczos converged:  T threshold:   0.100E-02
     Est. extremal eigenvalues:    0.275E+01   0.184E+00
     Est. condition number :    0.150E+02
     NS sqrt iter    1 1.00000000   0.703E+00       0.002       41.689
     NS sqrt iter    2 1.00000000   0.327E+00       0.002       67.457
     NS sqrt iter    3 1.00000000   0.735E-01       0.002       62.003
     NS sqrt iter    4 1.00000000   0.169E-02       0.002       64.347
     NS sqrt iter    5 1.00000000   0.419E-07       0.002       44.541
     Final NS sqrt iter    5 1.00000000   0.343E-09

     Est. extremal eigenvalues     -0.93581     1.67078  converged:  T
     TRS4 it   1 1.00000000   0.865E+00       0.001       16.128   0.100E-07
     TRS4 it   2 1.00000000   0.608E+00       0.001       32.256   0.100E-07
     TRS4 it   3 1.00000000   0.412E+00       0.001       32.256   0.100E-07
     TRS4 it   4 1.00000000   0.205E+00       0.001       32.256   0.100E-07
     TRS4 it   5 1.00000000   0.633E-01       0.001       32.256   0.100E-07
     TRS4 it   6 1.00000000   0.762E-02       0.001       32.256   0.100E-07
     TRS4 it   7 1.00000000   0.146E-03       0.001       32.256   0.100E-07
     TRS4 it   8 1.00000000   0.747E-07       0.001       32.256   0.100E-07
     Final TRS4 iteration    8 1.00000000   0.747E-07
     Chemical potential (mu):       0.01292
 
 PAO| energy:  -7.7832263127421930      penalty:   1.0205141284574870E-005
 PAO|LS| Need extra step
 PAO|LS| adapt:  T T T
 PAO|LS| adapt: scan_steps:    0.0000000000000000        1.0037464215741208        2.0074928431482415     
 PAO|LS| adapt: energies:   -7.7832230008838001       -7.7832400131038764       -7.7832263127421930     
 PAO|LS| adapt: suggested step_size:    1.0578653822759494     
 PAO|LS| adapt: predicted energy  -7.7832400577452150     
 PAO| ======================= Iteration:        33 =============================

     Lanczos converged:  T threshold:   0.100E-02
     Est. extremal eigenvalues:    0.276E+01   0.184E+00
     Est. condition number :    0.150E+02
     NS sqrt iter    1 1.00000000   0.704E+00       0.002       41.024
     NS sqrt iter    2 1.00000000   0.328E+00       0.002       66.179
     NS sqrt iter    3 1.00000000   0.737E-01       0.010       11.286
     NS sqrt iter    4 1.00000000   0.169E-02       0.002       60.704
     NS sqrt iter    5 1.00000000   0.418E-07       0.002       38.970
     Final NS sqrt iter    5 1.00000000   0.344E-09

     Est. extremal eigenvalues     -0.93581     1.67070  converged:  T
     TRS4 it   1 1.00000000   0.865E+00       0.001       16.128   0.100E-07
     TRS4 it   2 1.00000000   0.608E+00       0.001       32.256   0.100E-07
     TRS4 it   3 1.00000000   0.412E+00       0.001       22.383   0.100E-07
     TRS4 it   4 1.00000000   0.205E+00       0.001       31.604   0.100E-07
     TRS4 it   5 1.00000000   0.636E-01       0.006        5.556   0.100E-07
     TRS4 it   6 1.00000000   0.769E-02       0.001       25.904   0.100E-07
     TRS4 it   7 1.00000000   0.149E-03       0.001       32.256   0.100E-07
     TRS4 it   8 1.00000000   0.784E-07       0.001       32.256   0.100E-07
     Final TRS4 iteration    8 1.00000000   0.784E-07
     Chemical potential (mu):       0.01246
 
 PAO| energy:  -7.7832400607257357      penalty:   1.1684521231734068E-005
 PAO|CG| trace_G_new    8.1302569080556741E-005
 PAO|CG| trace_G_prev    3.2417246349175324E-005
 PAO|CG| trace_G_mix    1.2928417608118298E-007
 PAO|CG| trace_D    5.1798129074642807E-005
[...]

     Lanczos converged:  T threshold:   0.100E-02
     Est. extremal eigenvalues:    0.252E+01   0.191E+00
     Est. condition number :    0.132E+02
     NS sqrt iter    1 1.00000000   0.637E+00       0.001       59.399
     NS sqrt iter    2 1.00000000   0.277E+00       0.001       79.449
     NS sqrt iter    3 1.00000000   0.493E-01       0.001       84.276
     NS sqrt iter    4 1.00000000   0.791E-03       0.001       91.002
     NS sqrt iter    5 1.00000000   0.651E-08       0.001       38.272
     Final NS sqrt iter    5 1.00000000   0.384E-09

     Est. extremal eigenvalues     -0.93551     1.63084  converged:  T
     TRS4 it   1 1.00000000   0.879E+00       0.001       16.128   0.100E-07
     TRS4 it   2 1.00000000   0.632E+00       0.001       32.256   0.100E-07
     TRS4 it   3 1.00000000   0.454E+00       0.001       32.256   0.100E-07
     TRS4 it   4 1.00000000   0.277E+00       0.001       32.256   0.100E-07
     TRS4 it   5 1.00000000   0.136E+00       0.001       32.256   0.100E-07
     TRS4 it   6 1.00000000   0.420E-01       0.001       32.256   0.100E-07
     TRS4 it   7 1.00000000   0.553E-02       0.001       32.256   0.100E-07
     TRS4 it   8 1.00000000   0.129E-03       0.001       32.256   0.100E-07
     TRS4 it   9 1.00000000   0.750E-07       0.001       31.470   0.100E-07
     Final TRS4 iteration    9 1.00000000   0.750E-07
     Chemical potential (mu):      -0.07258
 
 PAO| energy:  -7.7827109014861353      penalty:   3.6538812816733877E-008
 PAO|LS| Need extra step
 PAO|LS| adapt:  T T T
 PAO|LS| adapt: scan_steps:    0.0000000000000000       0.20000000000000001       0.40000000000000002     
 PAO|LS| adapt: energies:   -7.7827108971459067       -7.7827109028207646       -7.7827109014861353     
 PAO|LS| adapt: suggested step_size:   0.26191934572574366     
 PAO|LS| adapt: predicted energy  -7.7827109031566950     
 PAO| ======================= Iteration:       414 =============================

     Lanczos converged:  T threshold:   0.100E-02
     Est. extremal eigenvalues:    0.252E+01   0.191E+00
     Est. condition number :    0.132E+02
     NS sqrt iter    1 1.00000000   0.637E+00       0.002       34.102
     NS sqrt iter    2 1.00000000   0.277E+00       0.002       63.293
     NS sqrt iter    3 1.00000000   0.493E-01       0.002       68.835
     NS sqrt iter    4 1.00000000   0.791E-03       0.002       71.708
     NS sqrt iter    5 1.00000000   0.651E-08       0.001       34.583
     Final NS sqrt iter    5 1.00000000   0.384E-09

     Est. extremal eigenvalues     -0.93551     1.63084  converged:  T
     TRS4 it   1 1.00000000   0.879E+00       0.001       16.128   0.100E-07
     TRS4 it   2 1.00000000   0.632E+00       0.001       32.256   0.100E-07
     TRS4 it   3 1.00000000   0.454E+00       0.001       32.256   0.100E-07
     TRS4 it   4 1.00000000   0.277E+00       0.001       32.256   0.100E-07
     TRS4 it   5 1.00000000   0.136E+00       0.001       32.256   0.100E-07
     TRS4 it   6 1.00000000   0.420E-01       0.001       32.256   0.100E-07
     TRS4 it   7 1.00000000   0.553E-02       0.001       32.256   0.100E-07
     TRS4 it   8 1.00000000   0.129E-03       0.001       32.256   0.100E-07
     TRS4 it   9 1.00000000   0.750E-07       0.001       32.256   0.100E-07
     Final TRS4 iteration    9 1.00000000   0.750E-07
     Chemical potential (mu):      -0.07258
 
 PAO| energy:  -7.7827109031567066      penalty:   3.6949829620867254E-008
 PAO|CG| warming up with steepest descent
 PAO|CG| beta:    0.0000000000000000     
 PAO| norm of gradient:   1.4336421376262277E-004
 PAO| energy improvement:  -6.0107998578473598E-009
 PAO| step    414                   -7.782710903  0.896E-05  0.262E+00     0.090
 PAO| converged after          414  steps :-)
 PAO| Recalculating energy after mixing.

     Lanczos converged:  T threshold:   0.100E-02
     Est. extremal eigenvalues:    0.252E+01   0.191E+00
     Est. condition number :    0.132E+02
     NS sqrt iter    1 1.00000000   0.637E+00       0.002       37.607
     NS sqrt iter    2 1.00000000   0.277E+00       0.001       83.069
     NS sqrt iter    3 1.00000000   0.493E-01       0.001       88.546
     NS sqrt iter    4 1.00000000   0.791E-03       0.001       84.054
     NS sqrt iter    5 1.00000000   0.651E-08       0.001       37.496
     Final NS sqrt iter    5 1.00000000   0.384E-09

     Est. extremal eigenvalues     -0.93551     1.63084  converged:  T
     TRS4 it   1 1.00000000   0.879E+00       0.001       16.128   0.100E-07
     TRS4 it   2 1.00000000   0.632E+00       0.001       32.256   0.100E-07
     TRS4 it   3 1.00000000   0.454E+00       0.001       32.256   0.100E-07
     TRS4 it   4 1.00000000   0.277E+00       0.001       32.256   0.100E-07
     TRS4 it   5 1.00000000   0.136E+00       0.001       32.256   0.100E-07
     TRS4 it   6 1.00000000   0.420E-01       0.001       32.256   0.100E-07
     TRS4 it   7 1.00000000   0.553E-02       0.001       32.256   0.100E-07
     TRS4 it   8 1.00000000   0.129E-03       0.001       32.256   0.100E-07
     TRS4 it   9 1.00000000   0.750E-07       0.001       32.256   0.100E-07
     Final TRS4 iteration    9 1.00000000   0.750E-07
     Chemical potential (mu):      -0.07258
 
 PAO| energy:  -7.7827109016539993      penalty:   3.7341766754325022E-008
 PAO| Writing restart file.
     Est. extremal eigenvalues     -0.93551     1.63084  converged:  T
     TRS4 it   1 1.00000000   0.879E+00       0.000       16.128   0.100E-07
     TRS4 it   2 1.00000000   0.632E+00       0.001       32.256   0.100E-07
     TRS4 it   3 1.00000000   0.454E+00       0.001       32.256   0.100E-07
     TRS4 it   4 1.00000000   0.277E+00       0.001       32.256   0.100E-07
     TRS4 it   5 1.00000000   0.136E+00       0.001       32.256   0.100E-07
     TRS4 it   6 1.00000000   0.420E-01       0.001       32.256   0.100E-07
     TRS4 it   7 1.00000000   0.553E-02       0.001       32.256   0.100E-07
     TRS4 it   8 1.00000000   0.129E-03       0.001       32.256   0.100E-07
     TRS4 it   9 1.00000000   0.750E-07       0.001       32.256   0.100E-07
     Final TRS4 iteration    9 1.00000000   0.750E-07
     Chemical potential (mu):      -0.07258

 SCF     1       -34.450503213       -34.450503213    1.751716

*********************************************************
 Using MIXING_FRACTION=0.450 to mix KS matrix:  iscf=  2
 KS_nw=0.450*KS + 0.550*KS_old
*********************************************************
     Est. extremal eigenvalues     -0.93551     1.63084  converged:  T
     TRS4 it   1 1.00000000   0.879E+00       0.001       16.128   0.100E-07
     TRS4 it   2 1.00000000   0.632E+00       0.001       32.256   0.100E-07
     TRS4 it   3 1.00000000   0.454E+00       0.001       28.813   0.100E-07
     TRS4 it   4 1.00000000   0.277E+00       0.001       32.256   0.100E-07
     TRS4 it   5 1.00000000   0.136E+00       0.001       32.256   0.100E-07
     TRS4 it   6 1.00000000   0.420E-01       0.001       32.256   0.100E-07
     TRS4 it   7 1.00000000   0.553E-02       0.001       32.256   0.100E-07
     TRS4 it   8 1.00000000   0.129E-03       0.001       32.256   0.100E-07
     TRS4 it   9 1.00000000   0.750E-07       0.001       32.256   0.100E-07
     Final TRS4 iteration    9 1.00000000   0.750E-07
     Chemical potential (mu):      -0.07258

 SCF     2       -34.450503213        -0.000000000    1.661279

 PAO| Storing density matrix for ASPC guess in slot:           1

 ENERGY| Total FORCE_EVAL ( QS ) energy (a.u.):              -34.450503213223946


 -------------------------------------------------------------------------------
 -                                                                             -
 -                                DBCSR STATISTICS                             -
 -                                                                             -
 -------------------------------------------------------------------------------
 COUNTER                                    TOTAL       BLAS       SMM       ACC
 flops     5 x     5 x     4                20000     100.0%      0.0%      0.0%
 flops    13 x     5 x     4                20800     100.0%      0.0%      0.0%
 flops     5 x    13 x     4                20800     100.0%      0.0%      0.0%
 flops    13 x    13 x     4                40560     100.0%      0.0%      0.0%
 flops     4 x     4 x     5              3252480     100.0%      0.0%      0.0%
 flops     5 x     4 x     5              3968000     100.0%      0.0%      0.0%
 flops     4 x     4 x    13              4228224     100.0%      0.0%      0.0%
 flops    13 x     4 x     5              5158400     100.0%      0.0%      0.0%
 flops     5 x     4 x    13              5158400     100.0%      0.0%      0.0%
 flops     5 x     4 x     4              6654720     100.0%      0.0%      0.0%
 flops    13 x     4 x    13              6705920     100.0%      0.0%      0.0%
 flops    13 x     4 x     4              9005568     100.0%      0.0%      0.0%
 flops     4 x     4 x     4            413458304     100.0%      0.0%      0.0%
 flops inhomo. stacks                           0       0.0%      0.0%      0.0%
 flops total                       457.692176E+06     100.0%      0.0%      0.0%
 flops max/rank                    457.692176E+06     100.0%      0.0%      0.0%
 matmuls inhomo. stacks                         0       0.0%      0.0%      0.0%
 matmuls total                            3368725     100.0%      0.0%      0.0%
 number of processed stacks                 26916     100.0%      0.0%      0.0%
 average stack size                                   125.2       0.0       0.0
 marketing flops                   742.482816E+06
 -------------------------------------------------------------------------------
 # multiplications                          22367
 max memory usage/rank             328.290304E+06
 # max total images/rank                        1
 # max 3D layers                                1
 # MPI messages exchanged                       0
 MPI messages size (bytes):
  total size                         0.000000E+00
  min size                           0.000000E+00
  max size                           0.000000E+00
  average size                       0.000000E+00
 MPI breakdown and total messages size (bytes):
             size <=      128                   0                        0
       128 < size <=     8192                   0                        0
      8192 < size <=    32768                   0                        0
     32768 < size <=   131072                   0                        0
    131072 < size <=  4194304                   0                        0
   4194304 < size <= 16777216                   0                        0
  16777216 < size                               0                        0
 -------------------------------------------------------------------------------

 MEMORY| Estimated peak process memory [MiB]                                 314

 -------------------------------------------------------------------------------
 -                                                                             -
 -                           R E F E R E N C E S                               -
 -                                                                             -
 -------------------------------------------------------------------------------
 
 CP2K version 7.0 (Development Version), the CP2K developers group (2018).
 CP2K is freely available from https://www.cp2k.org/ .

 Schuett, O; VandeVondele, J. 
 Journal of Chemical Theory and Computation, 14, (2018). 
 Machine Learning Adaptive Basis Sets for Efficient Large Scale Density Functional Theory Simulation.
 https://dx.doi.org/10.1021/acs.jctc.8b00378


 Schuett, Ole; Messmer, Peter; Hutter, Juerg; VandeVondele, Joost. 
 Electronic Structure Calculations on Graphics Processing Units, John Wiley & Sons, Ltd, 173-190 (2016). 
 GPU-Accelerated Sparse Matrix-Matrix Multiplication for Linear Scaling Density Functional Theory.
 https://dx.doi.org/10.1002/9781118670712.ch8


 Borstnik, U; VandeVondele, J; Weber, V; Hutter, J. 
 PARALLEL COMPUTING, 40 (5-6), 47-58 (2014). 
 Sparse matrix multiplication: The distributed block-compressed sparse
 row library.
 https://dx.doi.org/10.1016/j.parco.2014.03.012


 Hutter, J; Iannuzzi, M; Schiffmann, F; VandeVondele, J. 
 WILEY INTERDISCIPLINARY REVIEWS-COMPUTATIONAL MOLECULAR SCIENCE, 4 (1), 15-25 (2014). 
 CP2K: atomistic simulations of condensed matter systems.
 https://dx.doi.org/10.1002/wcms.1159


 VandeVondele, J; Borstnik, U; Hutter, J. 
 JOURNAL OF CHEMICAL THEORY AND COMPUTATION, 8 (10), 3565-3573 (2012). 
 Linear Scaling Self-Consistent Field Calculations with Millions of Atoms
 in the Condensed Phase.
 https://dx.doi.org/10.1021/ct200897x


 VandeVondele, J; Hutter, J. 
 JOURNAL OF CHEMICAL PHYSICS, 127 (11), 114105 (2007). 
 Gaussian basis sets for accurate calculations on molecular systems in
 gas and condensed phases.
 https://dx.doi.org/10.1063/1.2770708


 Krack, M. 
 THEORETICAL CHEMISTRY ACCOUNTS, 114 (1-3), 145-152 (2005). 
 Pseudopotentials for H to Kr optimized for gradient-corrected
 exchange-correlation functionals.
 https://dx.doi.org/10.1007/s00214-005-0655-y


 VandeVondele, J; Krack, M; Mohamed, F; Parrinello, M; Chassaing, T;
 Hutter, J. COMPUTER PHYSICS COMMUNICATIONS, 167 (2), 103-128 (2005). 
 QUICKSTEP: Fast and accurate density functional calculations using a
 mixed Gaussian and plane waves approach.
 https://dx.doi.org/10.1016/j.cpc.2004.12.014


 Frigo, M; Johnson, SG. 
 PROCEEDINGS OF THE IEEE, 93 (2), 216-231 (2005). 
 The design and implementation of FFTW3.
 https://dx.doi.org/10.1109/JPROC.2004.840301


 Niklasson, AMN; Tymczak, CJ; Challacombe, M. 
 JOURNAL OF CHEMICAL PHYSICS, 118 (19), 8611-8620 (2003). 
 Trace resetting density matrix purification in O(N)
 self-consistent-field theory.
 https://dx.doi.org/10.1063/1.1559913


 Hartwigsen, C; Goedecker, S; Hutter, J. 
 PHYSICAL REVIEW B, 58 (7), 3641-3662 (1998). 
 Relativistic separable dual-space Gaussian pseudopotentials from H to Rn.
 https://dx.doi.org/10.1103/PhysRevB.58.3641


 Lippert, G; Hutter, J; Parrinello, M. 
 MOLECULAR PHYSICS, 92 (3), 477-487 (1997). 
 A hybrid Gaussian and plane wave density functional scheme.
 https://dx.doi.org/10.1080/002689797170220


 Perdew, JP; Burke, K; Ernzerhof, M. 
 PHYSICAL REVIEW LETTERS, 77 (18), 3865-3868 (1996). 
 Generalized gradient approximation made simple.
 https://dx.doi.org/10.1103/PhysRevLett.77.3865


 Goedecker, S; Teter, M; Hutter, J. 
 PHYSICAL REVIEW B, 54 (3), 1703-1710 (1996). 
 Separable dual-space Gaussian pseudopotentials.
 https://dx.doi.org/10.1103/PhysRevB.54.1703


 -------------------------------------------------------------------------------
 -                                                                             -
 -                                T I M I N G                                  -
 -                                                                             -
 -------------------------------------------------------------------------------
 SUBROUTINE                       CALLS  ASD         SELF TIME        TOTAL TIME
                                MAXIMUM       AVERAGE  MAXIMUM  AVERAGE  MAXIMUM
 CP2K                                 1  1.0    0.034    0.034   29.864   29.864
 qs_energies                          1  2.0    0.000    0.000   29.374   29.374
 ls_scf                               1  3.0    0.000    0.000   29.230   29.230
 ls_scf_main                          4  4.0    0.001    0.001   15.995   15.995
 ls_scf_dm_to_ks                      9  5.0    0.000    0.000   15.896   15.896
 qs_ks_update_qs_env                 10  6.0    0.000    0.000   12.853   12.853
 rebuild_ks_matrix                   10  7.0    0.000    0.000   12.853   12.853
 qs_ks_build_kohn_sham_matrix        10  8.0    0.001    0.001   12.853   12.853
 pao_update                           4  4.0    0.011    0.011   11.049   11.049
 pao_calc_energy                    417  5.0    0.005    0.005    9.938    9.938
 dbcsr_multiply_generic           22367  8.4    0.515    0.515    8.477    8.477
 qs_vxc_create                       10  9.0    0.000    0.000    7.756    7.756
 xc_vxc_pw_create                    10 10.0    0.103    0.103    7.756    7.756
 pw_transfer                        191 10.6    0.013    0.013    5.586    5.586
 xc_rho_set_and_dset_create          10 11.0    0.030    0.030    5.525    5.525
 fft_wrap_pw1pw2                    171 11.7    0.002    0.002    5.498    5.498
 fft_wrap_pw1pw2_200                111 12.8    0.330    0.330    5.250    5.250
 qs_rho_update_rho                   10  6.0    0.000    0.000    5.152    5.152
 calculate_rho_elec                  10  7.0    4.000    4.000    5.152    5.152
 pao_dm_trs4                        417  6.0    0.003    0.003    5.056    5.056
 ls_scf_init_matrix_S               421  7.0    0.004    0.004    4.870    4.870
 density_matrix_trs4                426  7.0    0.180    0.180    4.857    4.857
 pao_rebuild_S                      417  6.0    0.003    0.003    4.834    4.834
 matrix_sqrt_Newton_Schulz          421  8.0    0.117    0.117    4.400    4.400
 sum_up_and_integrate                10  9.0    0.018    0.018    4.303    4.303
 integrate_v_rspace                  10 10.0    3.578    3.578    4.284    4.284
 multiply_cannon                  22367  9.4    1.325    1.325    3.989    3.989
 xc_functional_eval                  10 12.0    0.000    0.000    3.714    3.714
 pbe_lda_eval                        10 13.0    3.714    3.714    3.714    3.714
 fft3d_s                            172 13.6    2.851    2.851    2.868    2.868
 make_m2s                         44734  9.4    0.198    0.198    2.703    2.703
 make_images                      44734 10.4    0.649    0.649    2.385    2.385
 pao_guess_initial_P                  1  4.0    0.000    0.000    2.115    2.115
 pao_read_preopt_dm                   1  5.0    0.000    0.000    2.115    2.115
 multiply_cannon_multrec          22367 10.4    1.440    1.440    1.568    1.568
 pw_gather_s                         81 13.1    1.289    1.289    1.289    1.289
 arnoldi_extremal                   847  8.5    0.005    0.005    1.246    1.246
 arnoldi_normal_ev                  847  9.5    0.014    0.014    1.241    1.241
 density_rs2pw                       10  8.0    0.001    0.001    1.138    1.138
 pao_calc_AB                        549  5.8    0.001    0.001    1.090    1.090
 pao_calc_AB_direct                 549  6.8    0.031    0.031    1.089    1.089
 pao_calc_grad_lnv_wrt_AB           131  7.0    0.008    0.008    1.026    1.026
 pw_scatter_s                        90 14.2    0.998    0.998    0.998    0.998
 build_subspace                     847 10.5    0.064    0.064    0.923    0.923
 dbcsr_matrix_vector_mult         20319 11.5    0.127    0.127    0.830    0.830
 dbcsr_finalize                   52840  9.6    0.127    0.127    0.779    0.779
 dbcsr_create_new                171119 10.7    0.379    0.379    0.724    0.724
 potential_pw2rs                     10 11.0    0.002    0.002    0.705    0.705
 -------------------------------------------------------------------------------

 The number of warnings for this run is : 0
 
 -------------------------------------------------------------------------------
  **** **** ******  **  PROGRAM ENDED AT                 2019-03-28 17:34:34.321
 ***** ** ***  *** **   PROGRAM RAN ON            oleschuett.zrh.corp.google.com
 **    ****   ******    PROGRAM RAN BY                                oleschuett
 ***** **    ** ** **   PROGRAM PROCESS ID                                 35905
  **** **  *******  **  PROGRAM STOPPED IN /usr/local/google/home/oleschuett/git
                                           /pao_ml_equivar/2H2O_rotations/rand_1
                                           2
