6
Properties=species:S:1:pos:R:3 i=0 time=0.0 E=-34.4504806384 pbc="F F F"
O        3.02915336      -5.79185666      -0.33710181
H        2.14675132      -5.95775934       0.01093832
H        2.98130352      -4.92743716      -0.75736164
O        4.98096768      -5.67209912       1.93779973
H        5.67839803      -6.32379099       1.82372248
H        4.40055368      -5.77840266       1.16822313
