       6
 i =      550, time =      110.000, E =       -34.4503015498
  O         2.5190024064        4.2444843954        3.8477804943
  H         2.1517234361        5.1425640350        4.0432024372
  H         1.8176988566        3.9032560923        3.2621987451
  O         5.3319226146        4.2445466116        4.1567888421
  H         5.4461983232        3.8721516908        5.0372662004
  H         4.3780977688        4.2011005040        4.0091868732
