 DBCSR| CPU Multiplication driver                                           BLAS
 DBCSR| Multrec recursion limit                                              512
 DBCSR| Multiplication stack size                                           1000
 DBCSR| Maximum elements for images                                    UNLIMITED
 DBCSR| Multiplicative factor virtual images                                   1
 DBCSR| Use multiplication densification                                       T
 DBCSR| Multiplication size stacks                                             3


  **** **** ******  **  PROGRAM STARTED AT               2019-03-28 17:34:02.936
 ***** ** ***  *** **   PROGRAM STARTED ON        oleschuett.zrh.corp.google.com
 **    ****   ******    PROGRAM STARTED BY                            oleschuett
 ***** **    ** ** **   PROGRAM PROCESS ID                                 35797
  **** **  *******  **  PROGRAM STARTED IN /usr/local/google/home/oleschuett/git
                                           /pao_ml_equivar/2H2O_rotations/rand_1
                                           1

 CP2K| version string:                    CP2K version 7.0 (Development Version)
 CP2K| source code revision number:                                git:d9814d431
 CP2K| cp2kflags: libint fftw3 libxc libderiv_max_am1=5 libint_max_am=6         
 CP2K| is freely available from                            https://www.cp2k.org/
 CP2K| Program compiled at                          Mon Mar 25 16:50:07 CET 2019
 CP2K| Program compiled on                        oleschuett.zrh.corp.google.com
 CP2K| Program compiled for                                                local
 CP2K| Data directory path       /usr/local/google/home/oleschuett/git/cp2k/data
 CP2K| Input file name                                            2H2O_pao44.inp

 GLOBAL| Force Environment number                                              1
 GLOBAL| Basis set file name                                        BASIS_MOLOPT
 GLOBAL| Potential file name                                      GTH_POTENTIALS
 GLOBAL| MM Potential file name                                     MM_POTENTIAL
 GLOBAL| Coordinate file name                                         coords.xyz
 GLOBAL| Method name                                                        CP2K
 GLOBAL| Project name                                                 2H2O_pao44
 GLOBAL| Preferred FFT library                                             FFTW3
 GLOBAL| Preferred diagonalization lib.                                       SL
 GLOBAL| Run type                                                         ENERGY
 GLOBAL| All-to-all communication in single precision                          F
 GLOBAL| FFTs using library dependent lengths                                  F
 GLOBAL| Global print level                                                  LOW
 GLOBAL| MPI I/O enabled                                                       T
 GLOBAL| Total number of message passing processes                             1
 GLOBAL| Number of threads for this process                                    1
 GLOBAL| This output is from process                                           0
 GLOBAL| CPU model name :  Intel(R) Xeon(R) CPU E5-1650 v4 @ 3.60GHz

 MEMORY| system memory details [Kb]
 MEMORY|                        rank 0           min           max       average
 MEMORY| MemTotal             65953612      65953612      65953612      65953612
 MEMORY| MemFree               4632352       4632352       4632352       4632352
 MEMORY| Buffers               2543220       2543220       2543220       2543220
 MEMORY| Cached               25350640      25350640      25350640      25350640
 MEMORY| Slab                  3622908       3622908       3622908       3622908
 MEMORY| SReclaimable          2422220       2422220       2422220       2422220
 MEMORY| MemLikelyFree        34948432      34948432      34948432      34948432


 GENERATE|  Preliminary Number of Bonds generated:                             0
 GENERATE|  Achieved consistency in connectivity generation.

 *******************************************************************************
 *******************************************************************************
 **                                                                           **
 **     #####                         ##              ##                      **
 **    ##   ##            ##          ##              ##                      **
 **   ##     ##                       ##            ######                    **
 **   ##     ##  ##   ##  ##   #####  ##  ##   ####   ##    #####    #####    **
 **   ##     ##  ##   ##  ##  ##      ## ##   ##      ##   ##   ##  ##   ##   **
 **   ##  ## ##  ##   ##  ##  ##      ####     ###    ##   ######   ######    **
 **    ##  ###   ##   ##  ##  ##      ## ##      ##   ##   ##       ##        **
 **     #######   #####   ##   #####  ##  ##  ####    ##    #####   ##        **
 **           ##                                                    ##        **
 **                                                                           **
 **                                                ... make the atoms dance   **
 **                                                                           **
 **            Copyright (C) by CP2K developers group (2000 - 2018)           **
 **                                                                           **
 *******************************************************************************


 TOTAL NUMBERS AND MAXIMUM NUMBERS

  Total number of            - Atomic kinds:                                   2
                             - Atoms:                                          6
                             - Shell sets:                                     6
                             - Shells:                                        22
                             - Primitive Cartesian functions:                 42
                             - Cartesian basis functions:                     48
                             - Spherical basis functions:                     46

  Maximum angular momentum of- Orbital basis functions:                        2
                             - Local part of the GTH pseudopotential:          2
                             - Non-local part of the GTH pseudopotential:      0

 ------------------------------ Linear scaling SCF -----------------------------
 eps_scf:                                                              0.100E-07
 eps_filter:                                                           0.100E-07
 mixing_fraction:                                                      0.450E+00
 max_scf:                                                                     25
 fixed chemical potential (mu)                                                 F
 has unit metric:                                                              F
 Computing inv(S):                                                             T
 Computing sqrt(S):                                                            T
 Computing s preconditioner                                                    F
 sign sqrt order:                                                              3
 Extrapolation order:                                                          1
 Use single precision matrices                                                 F
 S preconditioner type                                                      NONE
 Polarized Atomic Orbitals (PAO)                                               T
 Purification method                                   Trace resetting 4th order
 Cluster type                                                             ATOMIC
 Computing Chebyshev                                                       FALSE
 Using PAO                                                                     T
 -------------------------------------------------------------------------------

 
 PAO|                                  EPS_PAO                           0.1E-04
 PAO|                                  MIXING                            0.5E+00
 PAO|                                  MAX_PAO                              1000
 PAO|                                  MAX_CYCLES                           1000
 PAO|                                  PARAMETERIZATION                   DIRECT
 PAO|                                  PRECONDITION                            F
 PAO|                                  REGULARIZATION                    0.0E+00
 PAO|                                  EPS_PGF                           0.1E-09
 PAO|                                  PENALTY_DISTANCE                  0.1E+00
 PAO|                                  PENALTY_STRENGTH                  0.5E-02
 PAO|                                  LINPOT_PRECONDITION_DELTA         0.0E+00
 PAO|                                  LINPOT_INITGUESS_DELT             0.0E+00
 PAO|                                  LINPOT_REGULARIZATION_DELTA       0.0E+00
 PAO|                                  LINPOT_REGULARIZATION_STRENGTH    0.0E+00
 PAO|                                  OPTIMIZER                              CG
 PAO|                                  CG_INIT_STEPS                           2
 PAO|                                  CG_RESET_LIMIT                    0.1E+00
 PAO|                                  CHECK_UNITARY_TOL                -0.1E+01
 PAO|                                  CHECK_GRADIENT_TOL               -0.1E+01
 PAO|                                  NUM_GRADIENT_ORDER                      2
 PAO|                                  NUM_GRADIENT_EPS                  0.1E-07
 PAO|                                  PRINT%RESTART%WRITE_CYCLES            100
 PAO|                                  RESTART_FILE 
 PAO|                                  PREOPT_DM_FILE 2H2O_ref_LS_DM_SPIN_1_RESTART.dm
 PAO|                                  MACHINE_LEARNING%METHOD        GAUSSIAN_P
 PAO|                                  MACHINE_LEARNING%PRIOR               ZERO
 PAO|                                  MACHINE_LEARNING%DESCRIPTOR     POTENTIAL
 PAO|                                  MACHINE_LEARNING%TOLERANCE        0.1E-01
 PAO|                                  MACHINE_LEARNING%GP_NOISE_VAR     0.1E+00
 PAO|                                  MACHINE_LEARNING%GP_SCALE         0.5E-01
 

 Calculating atomic Fock matrix for atomic kind: O

 Electronic structure
    Total number of core electrons                                          2.00
    Total number of valence electrons                                       6.00
    Total number of electrons                                               8.00
    Multiplicity                                                   not specified
    S   [  2.00] 2.00
    P      4.00


 *******************************************************************************
                  Iteration          Convergence                     Energy [au]
 *******************************************************************************
                          1        0.708315                     -15.576645311500
                          2        0.608879                     -15.587933561584
                          3        0.102828E-01                 -15.656849565404
                          4        0.113889E-02                 -15.656866888140
                          5        0.434197E-03                 -15.656867072159
                          6        0.263771E-03                 -15.656867091904
                          7        0.478536E-06                 -15.656867103452

 Energy components [Hartree]           Total Energy ::          -15.656867103452
                                        Band Energy ::           -3.000198112285
                                     Kinetic Energy ::           11.759971203220
                                   Potential Energy ::          -27.416838306672
                                      Virial (-V/T) ::            2.331369510426
                                        Core Energy ::          -26.140716385623
                                          XC Energy ::           -3.154051012914
                                     Coulomb Energy ::           13.637900295084
                       Total Pseudopotential Energy ::          -37.935781716540
                       Local Pseudopotential Energy ::          -39.218907440693
                    Nonlocal Pseudopotential Energy ::            1.283125724153
                                        Confinement ::            0.350941276976

 Orbital energies  State     L     Occupation   Energy[a.u.]          Energy[eV]

                       1     0          2.000      -0.864471          -23.523463

                       1     1          4.000      -0.317814           -8.648154


 Total Electron Density at R=0:                                         0.000068

 Calculating atomic Fock matrix for atomic kind: H

 Electronic structure
    Total number of core electrons                                          0.00
    Total number of valence electrons                                       1.00
    Total number of electrons                                               1.00
    Multiplicity                                                   not specified
    S      1.00


 *******************************************************************************
                  Iteration          Convergence                     Energy [au]
 *******************************************************************************
                          1        0.437545E-02                  -0.424159432110
                          2        0.531356E-03                  -0.424178438213
                          3        0.259176E-06                  -0.424178722480

 Energy components [Hartree]           Total Energy ::           -0.424178722480
                                        Band Energy ::           -0.199015229016
                                     Kinetic Energy ::            0.464007633961
                                   Potential Energy ::           -0.888186356441
                                      Virial (-V/T) ::            1.914163240935
                                        Core Energy ::           -0.479160803564
                                          XC Energy ::           -0.244352904054
                                     Coulomb Energy ::            0.299334985138
                       Total Pseudopotential Energy ::           -0.962295316385
                       Local Pseudopotential Energy ::           -0.962295316385
                    Nonlocal Pseudopotential Energy ::            0.000000000000
                                        Confinement ::            0.191268788606

 Orbital energies  State     L     Occupation   Energy[a.u.]          Energy[eV]

                       1     0          1.000      -0.199015           -5.415480


 Total Electron Density at R=0:                                         0.242907
 PAO| Made initial guess for matrix_X with norm:   4.8989794855663558     

     Lanczos converged:  T threshold:   0.100E-02
     Est. extremal eigenvalues:    0.336E+01   0.116E+00
     Est. condition number :    0.290E+02
     NS sqrt iter    1 1.00000000   0.821E+00       0.002       41.464
     NS sqrt iter    2 1.00000000   0.440E+00       0.002       57.819
     NS sqrt iter    3 1.00000000   0.170E+00       0.002       65.197
     NS sqrt iter    4 1.00000000   0.205E-01       0.002       64.887
     NS sqrt iter    5 1.00000000   0.522E-04       0.002       52.825
     Final NS sqrt iter    5 1.00000000   0.520E-08

 PAO| Read restart DM 2H2O_ref_LS_DM_SPIN_1_RESTART.dm with checksum:    74.302557447343062     
 PAO| Quickstep energy from restart density:  -34.450737564511201     
 PAO| ======================= Iteration:         1 =============================

     Lanczos converged:  T threshold:   0.100E-02
     Est. extremal eigenvalues:    0.336E+01   0.116E+00
     Est. condition number :    0.290E+02
     NS sqrt iter    1 1.00000000   0.821E+00       0.002       40.324
     NS sqrt iter    2 1.00000000   0.440E+00       0.002       63.633
     NS sqrt iter    3 1.00000000   0.170E+00       0.002       63.930
     NS sqrt iter    4 1.00000000   0.205E-01       0.002       63.899
     NS sqrt iter    5 1.00000000   0.522E-04       0.002       54.349
     Final NS sqrt iter    5 1.00000000   0.520E-08

     Est. extremal eigenvalues     -0.91850     1.84616  converged:  T
     TRS4 it   1 1.00000000   0.874E+00       0.001       16.128   0.100E-07
     TRS4 it   2 1.00000000   0.681E+00       0.001       32.256   0.100E-07
     TRS4 it   3 1.00000000   0.494E+00       0.001       32.256   0.100E-07
     TRS4 it   4 1.00000000   0.308E+00       0.001       32.256   0.100E-07
     TRS4 it   5 1.00000000   0.151E+00       0.001       32.256   0.100E-07
     TRS4 it   6 1.00000000   0.466E-01       0.001       32.256   0.100E-07
     TRS4 it   7 1.00000000   0.616E-02       0.001       32.256   0.100E-07
     TRS4 it   8 1.00000000   0.151E-03       0.001       32.256   0.100E-07
     TRS4 it   9 1.00000000   0.101E-06       0.001       32.256   0.100E-07
     TRS4 it  10 1.00000000   0.466E-13       0.001       32.256   0.100E-07
     Final TRS4 iteration   10 1.00000000   0.466E-13
     Chemical potential (mu):      -0.06315
 
 PAO| energy:  -7.6020456688213285      penalty:   1.0538688655686957E-032
 PAO|CG| warming up with steepest descent
 PAO|CG| beta:    0.0000000000000000     
 PAO| norm of gradient:  0.78390104987349329     
 PAO|LS| adapt:  T F F
 PAO|LS| adapt: scan_steps:    0.0000000000000000        0.0000000000000000        0.0000000000000000     
 PAO|LS| adapt: energies:   -7.6020456688213285        0.0000000000000000        0.0000000000000000     
 PAO| ======================= Iteration:         2 =============================

     Lanczos converged:  T threshold:   0.100E-02
     Est. extremal eigenvalues:    0.327E+01   0.129E+00
     Est. condition number :    0.253E+02
     NS sqrt iter    1 1.00000000   0.805E+00       0.002       39.688
     NS sqrt iter    2 1.00000000   0.425E+00       0.002       64.838
     NS sqrt iter    3 1.00000000   0.152E+00       0.002       65.736
     NS sqrt iter    4 1.00000000   0.140E-01       0.002       64.213
     NS sqrt iter    5 1.00000000   0.157E-04       0.002       52.056
     Final NS sqrt iter    5 1.00000000   0.365E-09

     Est. extremal eigenvalues     -0.92217     1.79078  converged:  T
     TRS4 it   1 1.00000000   0.869E+00       0.001       16.128   0.100E-07
     TRS4 it   2 1.00000000   0.662E+00       0.001       32.256   0.100E-07
     TRS4 it   3 1.00000000   0.477E+00       0.001       32.256   0.100E-07
     TRS4 it   4 1.00000000   0.286E+00       0.001       32.256   0.100E-07
     TRS4 it   5 1.00000000   0.131E+00       0.001       32.256   0.100E-07
     TRS4 it   6 1.00000000   0.352E-01       0.001       32.256   0.100E-07
     TRS4 it   7 1.00000000   0.358E-02       0.001       32.256   0.100E-07
     TRS4 it   8 1.00000000   0.515E-04       0.001       32.256   0.100E-07
     TRS4 it   9 1.00000000   0.118E-07       0.001       32.256   0.100E-07
     Final TRS4 iteration    9 1.00000000   0.118E-07
     Chemical potential (mu):      -0.05112
 
 PAO| energy:  -7.6576078409787476      penalty:   2.2534090905339652E-008
 PAO|LS| adapt:  T T F
 PAO|LS| adapt: scan_steps:    0.0000000000000000       0.10000000000000001        0.0000000000000000     
 PAO|LS| adapt: energies:   -7.6020456688213285       -7.6576078409787476        0.0000000000000000     
 PAO| ======================= Iteration:         3 =============================

     Lanczos converged:  T threshold:   0.100E-02
     Est. extremal eigenvalues:    0.318E+01   0.142E+00
     Est. condition number :    0.225E+02
     NS sqrt iter    1 1.00000000   0.788E+00       0.002       41.555
     NS sqrt iter    2 1.00000000   0.408E+00       0.002       64.535
     NS sqrt iter    3 1.00000000   0.135E+00       0.002       65.195
     NS sqrt iter    4 1.00000000   0.954E-02       0.002       64.126
     NS sqrt iter    5 1.00000000   0.484E-05       0.002       51.595
     Final NS sqrt iter    5 1.00000000   0.347E-10

     Est. extremal eigenvalues     -0.92559     1.74695  converged:  T
     TRS4 it   1 1.00000000   0.865E+00       0.001       16.128   0.100E-07
     TRS4 it   2 1.00000000   0.645E+00       0.001       32.256   0.100E-07
     TRS4 it   3 1.00000000   0.460E+00       0.001       32.256   0.100E-07
     TRS4 it   4 1.00000000   0.265E+00       0.001       32.256   0.100E-07
     TRS4 it   5 1.00000000   0.112E+00       0.001       32.256   0.100E-07
     TRS4 it   6 1.00000000   0.258E-01       0.001       32.256   0.100E-07
     TRS4 it   7 1.00000000   0.192E-02       0.001       32.256   0.100E-07
     TRS4 it   8 1.00000000   0.149E-04       0.001       32.256   0.100E-07
     TRS4 it   9 1.00000000   0.984E-09       0.001       32.256   0.100E-07
     Final TRS4 iteration    9 1.00000000   0.984E-09
     Chemical potential (mu):      -0.03814
 
 PAO| energy:  -7.7007309277936171      penalty:   3.6054480847671072E-007
 PAO|LS| adapt:  T T F
 PAO|LS| adapt: scan_steps:    0.0000000000000000       0.20000000000000001        0.0000000000000000     
 PAO|LS| adapt: energies:   -7.6020456688213285       -7.7007309277936171        0.0000000000000000     
 PAO| ======================= Iteration:         4 =============================

     Lanczos converged:  T threshold:   0.100E-02
     Est. extremal eigenvalues:    0.299E+01   0.160E+00
     Est. condition number :    0.186E+02
     NS sqrt iter    1 1.00000000   0.750E+00       0.002       41.233
     NS sqrt iter    2 1.00000000   0.374E+00       0.002       63.416
     NS sqrt iter    3 1.00000000   0.105E+00       0.002       64.345
     NS sqrt iter    4 1.00000000   0.454E-02       0.002       64.710
     NS sqrt iter    5 1.00000000   0.623E-06       0.002       51.536
     Final NS sqrt iter    5 1.00000000   0.641E-12

     Est. extremal eigenvalues     -0.93093     1.68545  converged:  T
     TRS4 it   1 1.00000000   0.860E+00       0.001       16.128   0.100E-07
     TRS4 it   2 1.00000000   0.618E+00       0.001       32.256   0.100E-07
     TRS4 it   3 1.00000000   0.429E+00       0.001       32.256   0.100E-07
     TRS4 it   4 1.00000000   0.227E+00       0.001       32.256   0.100E-07
     TRS4 it   5 1.00000000   0.804E-01       0.001       32.256   0.100E-07
     TRS4 it   6 1.00000000   0.128E-01       0.001       32.256   0.100E-07
     TRS4 it   7 1.00000000   0.454E-03       0.001       32.256   0.100E-07
     TRS4 it   8 1.00000000   0.812E-06       0.001       32.256   0.100E-07
     TRS4 it   9 1.00000000   0.294E-11       0.001       32.256   0.100E-07
     Final TRS4 iteration    9 1.00000000   0.294E-11
     Chemical potential (mu):      -0.00972
 
 PAO| energy:  -7.7480317035481185      penalty:   5.7687117675680850E-006
 PAO|LS| Need extra step
 PAO|LS| adapt:  T T F
 PAO|LS| adapt: scan_steps:    0.0000000000000000       0.40000000000000002        0.0000000000000000     
 PAO|LS| adapt: energies:   -7.6020456688213285       -7.7480317035481185        0.0000000000000000     
 PAO| ======================= Iteration:         5 =============================

     Lanczos converged:  T threshold:   0.100E-02
     Est. extremal eigenvalues:    0.263E+01   0.187E+00
     Est. condition number :    0.141E+02
     NS sqrt iter    1 1.00000000   0.686E+00       0.002       40.872
     NS sqrt iter    2 1.00000000   0.312E+00       0.002       63.787
     NS sqrt iter    3 1.00000000   0.643E-01       0.002       65.301
     NS sqrt iter    4 1.00000000   0.122E-02       0.002       64.141
     NS sqrt iter    5 1.00000000   0.173E-07       0.002       34.022
     Final NS sqrt iter    5 1.00000000   0.484E-09

     Est. extremal eigenvalues     -0.93218     1.62274  converged:  T
     TRS4 it   1 1.00000000   0.857E+00       0.001       16.128   0.100E-07
     TRS4 it   2 1.00000000   0.583E+00       0.001       32.256   0.100E-07
     TRS4 it   3 1.00000000   0.379E+00       0.001       32.256   0.100E-07
     TRS4 it   4 1.00000000   0.171E+00       0.001       32.256   0.100E-07
     TRS4 it   5 1.00000000   0.420E-01       0.001       32.256   0.100E-07
     TRS4 it   6 1.00000000   0.316E-02       0.001       32.256   0.100E-07
     TRS4 it   7 1.00000000   0.233E-04       0.001       32.256   0.100E-07
     TRS4 it   8 1.00000000   0.157E-08       0.001       32.256   0.100E-07
     Final TRS4 iteration    8 1.00000000   0.157E-08
     Chemical potential (mu):       0.03956
 
 PAO| energy:  -7.6931615611402879      penalty:   9.2299346936662957E-005
 PAO|LS| Need extra step
 PAO|LS| adapt:  T T T
 PAO|LS| adapt: scan_steps:    0.0000000000000000       0.40000000000000002       0.80000000000000004     
 PAO|LS| adapt: energies:   -7.6020456688213285       -7.7480317035481185       -7.6931615611402879     
 PAO|LS| adapt: suggested step_size:   0.49072749827145273     
 PAO|LS| adapt: predicted energy  -7.7531984016499127     
 PAO| ======================= Iteration:         6 =============================

     Lanczos converged:  T threshold:   0.100E-02
     Est. extremal eigenvalues:    0.290E+01   0.167E+00
     Est. condition number :    0.173E+02
     NS sqrt iter    1 1.00000000   0.734E+00       0.002       41.015
     NS sqrt iter    2 1.00000000   0.358E+00       0.002       63.402
     NS sqrt iter    3 1.00000000   0.937E-01       0.002       64.217
     NS sqrt iter    4 1.00000000   0.330E-02       0.002       64.433
     NS sqrt iter    5 1.00000000   0.269E-06       0.002       51.710
     Final NS sqrt iter    5 1.00000000   0.347E-09

     Est. extremal eigenvalues     -0.93241     1.66587  converged:  T
     TRS4 it   1 1.00000000   0.859E+00       0.001       16.128   0.100E-07
     TRS4 it   2 1.00000000   0.608E+00       0.001       32.256   0.100E-07
     TRS4 it   3 1.00000000   0.416E+00       0.001       32.256   0.100E-07
     TRS4 it   4 1.00000000   0.212E+00       0.001       32.256   0.100E-07
     TRS4 it   5 1.00000000   0.688E-01       0.001       32.256   0.100E-07
     TRS4 it   6 1.00000000   0.916E-02       0.001       32.256   0.100E-07
     TRS4 it   7 1.00000000   0.223E-03       0.001       32.256   0.100E-07
     TRS4 it   8 1.00000000   0.188E-06       0.001       32.256   0.100E-07
     TRS4 it   9 1.00000000   0.157E-12       0.001       32.256   0.100E-07
     Final TRS4 iteration    9 1.00000000   0.157E-12
     Chemical potential (mu):       0.00387
 
 PAO| energy:  -7.7524750442840666      penalty:   1.3067736885033941E-005
 PAO|CG| warming up with steepest descent
 PAO|CG| beta:    0.0000000000000000     
 PAO| norm of gradient:  0.41801108529031195     
 PAO| energy improvement: -0.15042937546273816     
 PAO| step      6                   -7.752475044  0.261E-01  0.491E+00     0.130
 PAO|LS| adapt:  T F F
 PAO|LS| adapt: scan_steps:    0.0000000000000000        0.0000000000000000        0.0000000000000000     
 PAO|LS| adapt: energies:   -7.7524750442840666        0.0000000000000000        0.0000000000000000     
 PAO| ======================= Iteration:         7 =============================

     Lanczos converged:  T threshold:   0.100E-02
     Est. extremal eigenvalues:    0.281E+01   0.181E+00
     Est. condition number :    0.155E+02
     NS sqrt iter    1 1.00000000   0.717E+00       0.002       41.266
     NS sqrt iter    2 1.00000000   0.338E+00       0.002       64.639
     NS sqrt iter    3 1.00000000   0.781E-01       0.002       65.467
     NS sqrt iter    4 1.00000000   0.198E-02       0.002       64.322
     NS sqrt iter    5 1.00000000   0.651E-07       0.002       47.398
     Final NS sqrt iter    5 1.00000000   0.484E-09

     Est. extremal eigenvalues     -0.93413     1.65422  converged:  T
     TRS4 it   1 1.00000000   0.858E+00       0.001       16.128   0.100E-07
     TRS4 it   2 1.00000000   0.607E+00       0.001       32.256   0.100E-07
     TRS4 it   3 1.00000000   0.416E+00       0.001       32.256   0.100E-07
     TRS4 it   4 1.00000000   0.213E+00       0.001       32.256   0.100E-07
     TRS4 it   5 1.00000000   0.693E-01       0.001       32.256   0.100E-07
     TRS4 it   6 1.00000000   0.907E-02       0.001       32.256   0.100E-07
     TRS4 it   7 1.00000000   0.207E-03       0.001       32.256   0.100E-07
     TRS4 it   8 1.00000000   0.154E-06       0.001       32.256   0.100E-07
     TRS4 it   9 1.00000000   0.105E-12       0.001       32.256   0.100E-07
     Final TRS4 iteration    9 1.00000000   0.105E-12
     Chemical potential (mu):       0.00590
 
 PAO| energy:  -7.7464588175785902      penalty:   1.9819169722543776E-005
 PAO|LS| adapt:  T F T
 PAO|LS| adapt: scan_steps:    0.0000000000000000        0.0000000000000000       0.49072749827145273     
 PAO|LS| adapt: energies:   -7.7524750442840666        0.0000000000000000       -7.7464588175785902     
 PAO| ======================= Iteration:         8 =============================

     Lanczos converged:  T threshold:   0.100E-02
     Est. extremal eigenvalues:    0.285E+01   0.174E+00
     Est. condition number :    0.164E+02
     NS sqrt iter    1 1.00000000   0.725E+00       0.002       40.881
     NS sqrt iter    2 1.00000000   0.348E+00       0.002       63.881
     NS sqrt iter    3 1.00000000   0.857E-01       0.002       63.834
     NS sqrt iter    4 1.00000000   0.257E-02       0.002       64.024
     NS sqrt iter    5 1.00000000   0.135E-06       0.002       49.693
     Final NS sqrt iter    5 1.00000000   0.127E-08

     Est. extremal eigenvalues     -0.93422     1.65934  converged:  T
     TRS4 it   1 1.00000000   0.858E+00       0.001       16.128   0.100E-07
     TRS4 it   2 1.00000000   0.607E+00       0.001       32.256   0.100E-07
     TRS4 it   3 1.00000000   0.415E+00       0.001       32.256   0.100E-07
     TRS4 it   4 1.00000000   0.212E+00       0.001       32.256   0.100E-07
     TRS4 it   5 1.00000000   0.689E-01       0.001       32.256   0.100E-07
     TRS4 it   6 1.00000000   0.916E-02       0.001       32.256   0.100E-07
     TRS4 it   7 1.00000000   0.220E-03       0.001       32.256   0.100E-07
     TRS4 it   8 1.00000000   0.181E-06       0.001       32.256   0.100E-07
     TRS4 it   9 1.00000000   0.145E-12       0.001       32.256   0.100E-07
     Final TRS4 iteration    9 1.00000000   0.145E-12
     Chemical potential (mu):       0.00445
 
 PAO| energy:  -7.7721651569920001      penalty:   1.4178140237103641E-005
 PAO|LS| adapt:  T T T
 PAO|LS| adapt: scan_steps:    0.0000000000000000       0.24536374913572637       0.49072749827145273     
 PAO|LS| adapt: energies:   -7.7524750442840666       -7.7721651569920001       -7.7464588175785902     
 PAO|LS| adapt: suggested step_size:   0.22910516645881990     
 PAO|LS| adapt: predicted energy  -7.7722648205727438     
 PAO| ======================= Iteration:         9 =============================

     Lanczos converged:  T threshold:   0.100E-02
     Est. extremal eigenvalues:    0.286E+01   0.174E+00
     Est. condition number :    0.164E+02
     NS sqrt iter    1 1.00000000   0.726E+00       0.002       40.673
     NS sqrt iter    2 1.00000000   0.349E+00       0.002       63.734
     NS sqrt iter    3 1.00000000   0.862E-01       0.002       64.245
     NS sqrt iter    4 1.00000000   0.262E-02       0.002       63.879
     NS sqrt iter    5 1.00000000   0.142E-06       0.002       49.486
     Final NS sqrt iter    5 1.00000000   0.137E-08

     Est. extremal eigenvalues     -0.93416     1.65973  converged:  T
     TRS4 it   1 1.00000000   0.858E+00       0.001       16.128   0.100E-07
     TRS4 it   2 1.00000000   0.607E+00       0.001       32.256   0.100E-07
     TRS4 it   3 1.00000000   0.415E+00       0.001       32.256   0.100E-07
     TRS4 it   4 1.00000000   0.212E+00       0.001       32.256   0.100E-07
     TRS4 it   5 1.00000000   0.688E-01       0.001       32.256   0.100E-07
     TRS4 it   6 1.00000000   0.917E-02       0.001       32.256   0.100E-07
     TRS4 it   7 1.00000000   0.221E-03       0.001       32.256   0.100E-07
     TRS4 it   8 1.00000000   0.182E-06       0.001       32.256   0.100E-07
     TRS4 it   9 1.00000000   0.147E-12       0.001       32.256   0.100E-07
     Final TRS4 iteration    9 1.00000000   0.147E-12
     Chemical potential (mu):       0.00438
 
 PAO| energy:  -7.7722892898896703      penalty:   1.4003284214511998E-005
 PAO|CG| trace_G_new    3.6891214381633564E-002
 PAO|CG| trace_G_prev   0.17473326742558445     
 PAO|CG| trace_G_mix   -1.4564597820453371E-003
 PAO|CG| trace_D   0.17473326742558445     
 PAO|CG| trace_D_Gnew   1.4564597820453371E-003
 PAO|CG| beta:   0.21946407074434432     
 PAO| norm of gradient:  0.19207085771046467     
 PAO| energy improvement:  -1.9814245605603631E-002
 PAO| step      9                   -7.772289290  0.120E-01  0.229E+00     0.082
 PAO|LS| adapt:  T F F
 PAO|LS| adapt: scan_steps:    0.0000000000000000        0.0000000000000000        0.0000000000000000     
 PAO|LS| adapt: energies:   -7.7722892898896703        0.0000000000000000        0.0000000000000000     
 PAO| ======================= Iteration:        10 =============================

     Lanczos converged:  T threshold:   0.100E-02
     Est. extremal eigenvalues:    0.282E+01   0.179E+00
     Est. condition number :    0.157E+02
     NS sqrt iter    1 1.00000000   0.718E+00       0.002       40.017
     NS sqrt iter    2 1.00000000   0.340E+00       0.002       62.309
     NS sqrt iter    3 1.00000000   0.806E-01       0.002       60.945
     NS sqrt iter    4 1.00000000   0.215E-02       0.002       65.402
     NS sqrt iter    5 1.00000000   0.795E-07       0.002       47.064
     Final NS sqrt iter    5 1.00000000   0.743E-09

     Est. extremal eigenvalues     -0.93505     1.65894  converged:  T
     TRS4 it   1 1.00000000   0.857E+00       0.001       16.128   0.100E-07
     TRS4 it   2 1.00000000   0.607E+00       0.001       32.256   0.100E-07
     TRS4 it   3 1.00000000   0.414E+00       0.001       32.256   0.100E-07
     TRS4 it   4 1.00000000   0.210E+00       0.001       32.256   0.100E-07
     TRS4 it   5 1.00000000   0.673E-01       0.001       32.256   0.100E-07
     TRS4 it   6 1.00000000   0.869E-02       0.001       32.256   0.100E-07
     TRS4 it   7 1.00000000   0.195E-03       0.001       32.256   0.100E-07
     TRS4 it   8 1.00000000   0.139E-06       0.001       32.256   0.100E-07
     TRS4 it   9 1.00000000   0.844E-13       0.001       32.256   0.100E-07
     Final TRS4 iteration    9 1.00000000   0.844E-13
     Chemical potential (mu):       0.00743
 
 PAO| energy:  -7.7773346367736460      penalty:   1.4543848707408257E-005
 PAO|LS| adapt:  T T F
 PAO|LS| adapt: scan_steps:    0.0000000000000000       0.22910516645881990        0.0000000000000000     
 PAO|LS| adapt: energies:   -7.7722892898896703       -7.7773346367736460        0.0000000000000000     
 PAO| ======================= Iteration:        11 =============================

     Lanczos converged:  T threshold:   0.100E-02
     Est. extremal eigenvalues:    0.278E+01   0.185E+00
     Est. condition number :    0.150E+02
     NS sqrt iter    1 1.00000000   0.710E+00       0.002       40.676
     NS sqrt iter    2 1.00000000   0.332E+00       0.002       64.709
     NS sqrt iter    3 1.00000000   0.752E-01       0.002       63.791
     NS sqrt iter    4 1.00000000   0.176E-02       0.002       64.407
     NS sqrt iter    5 1.00000000   0.441E-07       0.002       43.989
     Final NS sqrt iter    5 1.00000000   0.346E-09

     Est. extremal eigenvalues     -0.93496     1.65973  converged:  T
     TRS4 it   1 1.00000000   0.857E+00       0.001       16.128   0.100E-07
     TRS4 it   2 1.00000000   0.606E+00       0.001       32.256   0.100E-07
     TRS4 it   3 1.00000000   0.413E+00       0.001       32.256   0.100E-07
     TRS4 it   4 1.00000000   0.208E+00       0.001       32.256   0.100E-07
     TRS4 it   5 1.00000000   0.658E-01       0.001       32.256   0.100E-07
     TRS4 it   6 1.00000000   0.825E-02       0.001       32.256   0.100E-07
     TRS4 it   7 1.00000000   0.173E-03       0.001       32.256   0.100E-07
     TRS4 it   8 1.00000000   0.106E-06       0.001       32.256   0.100E-07
     TRS4 it   9 1.00000000   0.485E-13       0.001       32.256   0.100E-07
     Final TRS4 iteration    9 1.00000000   0.485E-13
     Chemical potential (mu):       0.01058
 
 PAO| energy:  -7.7759541749683887      penalty:   1.5754651883875028E-005
 PAO|LS| adapt:  T T T
 PAO|LS| adapt: scan_steps:    0.0000000000000000       0.22910516645881990       0.45821033291763980     
 PAO|LS| adapt: energies:   -7.7722892898896703       -7.7773346367736460       -7.7759541749683887     
 PAO|LS| adapt: suggested step_size:   0.29443889693690911     
 PAO|LS| adapt: predicted energy  -7.7775959148339222     
 PAO| ======================= Iteration:        12 =============================

     Lanczos converged:  T threshold:   0.100E-02
     Est. extremal eigenvalues:    0.281E+01   0.181E+00
     Est. condition number :    0.155E+02
     NS sqrt iter    1 1.00000000   0.716E+00       0.002       40.592
     NS sqrt iter    2 1.00000000   0.338E+00       0.002       64.520
     NS sqrt iter    3 1.00000000   0.790E-01       0.002       64.300
     NS sqrt iter    4 1.00000000   0.203E-02       0.002       63.400
     NS sqrt iter    5 1.00000000   0.672E-07       0.002       45.826
     Final NS sqrt iter    5 1.00000000   0.652E-09

     Est. extremal eigenvalues     -0.93512     1.65901  converged:  T
     TRS4 it   1 1.00000000   0.857E+00       0.001       16.128   0.100E-07
     TRS4 it   2 1.00000000   0.606E+00       0.001       32.256   0.100E-07
     TRS4 it   3 1.00000000   0.414E+00       0.001       32.256   0.100E-07
     TRS4 it   4 1.00000000   0.209E+00       0.001       32.256   0.100E-07
     TRS4 it   5 1.00000000   0.668E-01       0.001       32.256   0.100E-07
     TRS4 it   6 1.00000000   0.856E-02       0.001       32.256   0.100E-07
     TRS4 it   7 1.00000000   0.188E-03       0.001       32.256   0.100E-07
     TRS4 it   8 1.00000000   0.128E-06       0.001       32.256   0.100E-07
     TRS4 it   9 1.00000000   0.719E-13       0.001       32.256   0.100E-07
     Final TRS4 iteration    9 1.00000000   0.719E-13
     Chemical potential (mu):       0.00832
 
 PAO| energy:  -7.7775797179893678      penalty:   1.4813126038327655E-005
 PAO|CG| trace_G_new    1.1830855699483927E-002
 PAO|CG| trace_G_prev    3.6891214381633564E-002
 PAO|CG| trace_G_mix   -4.5129371999931230E-004
 PAO|CG| trace_D    4.4667869871886062E-002
 PAO|CG| trace_D_Gnew   2.0523787219462429E-004
 PAO|CG| beta:   0.33292884567112424     
 PAO| norm of gradient:  0.10876973705716092     
 PAO| energy improvement:  -5.2904280996974862E-003
 PAO| step     12                   -7.777579718  0.680E-02  0.294E+00     0.082
 PAO|LS| adapt:  T F F
 PAO|LS| adapt: scan_steps:    0.0000000000000000        0.0000000000000000        0.0000000000000000     
 PAO|LS| adapt: energies:   -7.7775797179893678        0.0000000000000000        0.0000000000000000     
 PAO| ======================= Iteration:        13 =============================

     Lanczos converged:  T threshold:   0.100E-02
     Est. extremal eigenvalues:    0.277E+01   0.185E+00
     Est. condition number :    0.150E+02
     NS sqrt iter    1 1.00000000   0.708E+00       0.002       40.836
     NS sqrt iter    2 1.00000000   0.331E+00       0.002       63.083
     NS sqrt iter    3 1.00000000   0.747E-01       0.002       63.613
     NS sqrt iter    4 1.00000000   0.172E-02       0.002       63.259
     NS sqrt iter    5 1.00000000   0.421E-07       0.002       44.684
     Final NS sqrt iter    5 1.00000000   0.337E-09

     Est. extremal eigenvalues     -0.93560     1.65418  converged:  T
     TRS4 it   1 1.00000000   0.857E+00       0.001       16.128   0.100E-07
     TRS4 it   2 1.00000000   0.604E+00       0.001       32.256   0.100E-07
     TRS4 it   3 1.00000000   0.410E+00       0.001       32.256   0.100E-07
     TRS4 it   4 1.00000000   0.204E+00       0.001       32.256   0.100E-07
     TRS4 it   5 1.00000000   0.635E-01       0.001       32.256   0.100E-07
     TRS4 it   6 1.00000000   0.767E-02       0.001       32.256   0.100E-07
     TRS4 it   7 1.00000000   0.149E-03       0.001       32.256   0.100E-07
     TRS4 it   8 1.00000000   0.789E-07       0.001       32.256   0.100E-07
     Final TRS4 iteration    8 1.00000000   0.789E-07
     Chemical potential (mu):       0.01091
 
 PAO| energy:  -7.7796517328522459      penalty:   1.5124835363622102E-005
 PAO|LS| adapt:  T T F
 PAO|LS| adapt: scan_steps:    0.0000000000000000       0.29443889693690911        0.0000000000000000     
 PAO|LS| adapt: energies:   -7.7775797179893678       -7.7796517328522459        0.0000000000000000     
 PAO| ======================= Iteration:        14 =============================

     Lanczos converged:  T threshold:   0.100E-02
     Est. extremal eigenvalues:    0.274E+01   0.189E+00
     Est. condition number :    0.145E+02
     NS sqrt iter    1 1.00000000   0.701E+00       0.002       41.438
     NS sqrt iter    2 1.00000000   0.324E+00       0.002       64.032
     NS sqrt iter    3 1.00000000   0.706E-01       0.002       64.436
     NS sqrt iter    4 1.00000000   0.147E-02       0.002       62.698
     NS sqrt iter    5 1.00000000   0.259E-07       0.002       37.157
     Final NS sqrt iter    5 1.00000000   0.565E-08

     Est. extremal eigenvalues     -0.93558     1.64964  converged:  T
     TRS4 it   1 1.00000000   0.857E+00       0.001       16.128   0.100E-07
     TRS4 it   2 1.00000000   0.601E+00       0.001       32.256   0.100E-07
     TRS4 it   3 1.00000000   0.406E+00       0.001       32.256   0.100E-07
     TRS4 it   4 1.00000000   0.200E+00       0.001       32.256   0.100E-07
     TRS4 it   5 1.00000000   0.603E-01       0.001       32.256   0.100E-07
     TRS4 it   6 1.00000000   0.688E-02       0.001       32.256   0.100E-07
     TRS4 it   7 1.00000000   0.119E-03       0.001       32.256   0.100E-07
     TRS4 it   8 1.00000000   0.487E-07       0.001       32.256   0.100E-07
     Final TRS4 iteration    8 1.00000000   0.487E-07
     Chemical potential (mu):       0.01485
 
 PAO| energy:  -7.7789914806384308      penalty:   1.5921134242330128E-005
 PAO|LS| adapt:  T T T
 PAO|LS| adapt: scan_steps:    0.0000000000000000       0.29443889693690911       0.58887779387381822     
 PAO|LS| adapt: energies:   -7.7775797179893678       -7.7796517328522459       -7.7789914806384308     
 PAO|LS| adapt: suggested step_size:   0.37050719945987265     
 PAO|LS| adapt: predicted energy  -7.7797429150885238     
 PAO| ======================= Iteration:        15 =============================

     Lanczos converged:  T threshold:   0.100E-02
     Est. extremal eigenvalues:    0.276E+01   0.186E+00
     Est. condition number :    0.149E+02
     NS sqrt iter    1 1.00000000   0.707E+00       0.002       40.924
     NS sqrt iter    2 1.00000000   0.329E+00       0.002       63.935
     NS sqrt iter    3 1.00000000   0.736E-01       0.002       64.518
     NS sqrt iter    4 1.00000000   0.165E-02       0.002       64.209
     NS sqrt iter    5 1.00000000   0.371E-07       0.002       41.091
     Final NS sqrt iter    5 1.00000000   0.458E-08

     Est. extremal eigenvalues     -0.93564     1.65298  converged:  T
     TRS4 it   1 1.00000000   0.857E+00       0.001       16.128   0.100E-07
     TRS4 it   2 1.00000000   0.603E+00       0.001       32.256   0.100E-07
     TRS4 it   3 1.00000000   0.409E+00       0.001       32.256   0.100E-07
     TRS4 it   4 1.00000000   0.203E+00       0.001       32.256   0.100E-07
     TRS4 it   5 1.00000000   0.627E-01       0.001       32.256   0.100E-07
     TRS4 it   6 1.00000000   0.746E-02       0.001       32.256   0.100E-07
     TRS4 it   7 1.00000000   0.141E-03       0.001       32.256   0.100E-07
     TRS4 it   8 1.00000000   0.697E-07       0.001       32.256   0.100E-07
     Final TRS4 iteration    8 1.00000000   0.697E-07
     Chemical potential (mu):       0.01194
 
 PAO| energy:  -7.7797398926182870      penalty:   1.5281107178869483E-005
 PAO|CG| trace_G_new    2.6051779469060668E-003
 PAO|CG| trace_G_prev    1.1830855699483927E-002
 PAO|CG| trace_G_mix    6.3509286022731261E-005
 PAO|CG| trace_D    1.6645255376108843E-002
 PAO|CG| trace_D_Gnew   3.4410934428196974E-005
 PAO|CG| beta:   0.21483388230271505     
 PAO| norm of gradient:   5.1040943828519342E-002
 PAO| energy improvement:  -2.1601746289192647E-003
 PAO| step     15                   -7.779739893  0.319E-02  0.371E+00     0.078
 PAO|LS| adapt:  T F F
 PAO|LS| adapt: scan_steps:    0.0000000000000000        0.0000000000000000        0.0000000000000000     
 PAO|LS| adapt: energies:   -7.7797398926182870        0.0000000000000000        0.0000000000000000     
 PAO| ======================= Iteration:        16 =============================

     Lanczos converged:  T threshold:   0.100E-02
     Est. extremal eigenvalues:    0.275E+01   0.187E+00
     Est. condition number :    0.148E+02
     NS sqrt iter    1 1.00000000   0.705E+00       0.002       41.124
     NS sqrt iter    2 1.00000000   0.328E+00       0.002       64.170
     NS sqrt iter    3 1.00000000   0.729E-01       0.002       64.567
     NS sqrt iter    4 1.00000000   0.161E-02       0.002       64.289
     NS sqrt iter    5 1.00000000   0.339E-07       0.002       40.964
     Final NS sqrt iter    5 1.00000000   0.317E-08

     Est. extremal eigenvalues     -0.93567     1.65329  converged:  T
     TRS4 it   1 1.00000000   0.858E+00       0.001       16.128   0.100E-07
     TRS4 it   2 1.00000000   0.603E+00       0.001       32.256   0.100E-07
     TRS4 it   3 1.00000000   0.407E+00       0.001       32.256   0.100E-07
     TRS4 it   4 1.00000000   0.202E+00       0.001       32.256   0.100E-07
     TRS4 it   5 1.00000000   0.616E-01       0.001       32.256   0.100E-07
     TRS4 it   6 1.00000000   0.723E-02       0.001       32.256   0.100E-07
     TRS4 it   7 1.00000000   0.133E-03       0.001       32.256   0.100E-07
     TRS4 it   8 1.00000000   0.627E-07       0.001       32.256   0.100E-07
     Final TRS4 iteration    8 1.00000000   0.627E-07
     Chemical potential (mu):       0.01289
 
 PAO| energy:  -7.7798651846845006      penalty:   1.5060787781154121E-005
 PAO|LS| adapt:  T T F
 PAO|LS| adapt: scan_steps:    0.0000000000000000       0.37050719945987265        0.0000000000000000     
 PAO|LS| adapt: energies:   -7.7797398926182870       -7.7798651846845006        0.0000000000000000     
 PAO| ======================= Iteration:        17 =============================

     Lanczos converged:  T threshold:   0.100E-02
     Est. extremal eigenvalues:    0.275E+01   0.187E+00
     Est. condition number :    0.147E+02
     NS sqrt iter    1 1.00000000   0.703E+00       0.002       40.796
     NS sqrt iter    2 1.00000000   0.327E+00       0.002       64.417
     NS sqrt iter    3 1.00000000   0.723E-01       0.002       64.808
     NS sqrt iter    4 1.00000000   0.156E-02       0.002       65.064
     NS sqrt iter    5 1.00000000   0.310E-07       0.002       41.143
     Final NS sqrt iter    5 1.00000000   0.213E-08

     Est. extremal eigenvalues     -0.93558     1.65369  converged:  T
     TRS4 it   1 1.00000000   0.858E+00       0.001       16.128   0.100E-07
     TRS4 it   2 1.00000000   0.602E+00       0.001       32.256   0.100E-07
     TRS4 it   3 1.00000000   0.406E+00       0.001       32.256   0.100E-07
     TRS4 it   4 1.00000000   0.200E+00       0.001       32.256   0.100E-07
     TRS4 it   5 1.00000000   0.607E-01       0.001       32.256   0.100E-07
     TRS4 it   6 1.00000000   0.701E-02       0.001       32.256   0.100E-07
     TRS4 it   7 1.00000000   0.126E-03       0.001       32.256   0.100E-07
     TRS4 it   8 1.00000000   0.566E-07       0.001       32.256   0.100E-07
     Final TRS4 iteration    8 1.00000000   0.566E-07
     Chemical potential (mu):       0.01383
 
 PAO| energy:  -7.7783102199216243      penalty:   1.4965293650196498E-005
 PAO|LS| adapt:  T T T
 PAO|LS| adapt: scan_steps:    0.0000000000000000       0.37050719945987265       0.74101439891974530     
 PAO|LS| adapt: energies:   -7.7797398926182870       -7.7798651846845006       -7.7783102199216243     
 PAO|LS| adapt: suggested step_size:   0.21288128840445986     
 PAO|LS| adapt: predicted energy  -7.7800172420950249     
 PAO| ======================= Iteration:        18 =============================

     Lanczos converged:  T threshold:   0.100E-02
     Est. extremal eigenvalues:    0.276E+01   0.186E+00
     Est. condition number :    0.148E+02
     NS sqrt iter    1 1.00000000   0.706E+00       0.002       41.143
     NS sqrt iter    2 1.00000000   0.328E+00       0.002       63.712
     NS sqrt iter    3 1.00000000   0.732E-01       0.002       63.472
     NS sqrt iter    4 1.00000000   0.163E-02       0.002       63.895
     NS sqrt iter    5 1.00000000   0.352E-07       0.002       41.498
     Final NS sqrt iter    5 1.00000000   0.390E-08

     Est. extremal eigenvalues     -0.93567     1.65315  converged:  T
     TRS4 it   1 1.00000000   0.858E+00       0.001       16.128   0.100E-07
     TRS4 it   2 1.00000000   0.603E+00       0.001       32.256   0.100E-07
     TRS4 it   3 1.00000000   0.408E+00       0.001       32.256   0.100E-07
     TRS4 it   4 1.00000000   0.202E+00       0.001       32.256   0.100E-07
     TRS4 it   5 1.00000000   0.621E-01       0.001       32.256   0.100E-07
     TRS4 it   6 1.00000000   0.733E-02       0.001       32.256   0.100E-07
     TRS4 it   7 1.00000000   0.136E-03       0.001       32.256   0.100E-07
     TRS4 it   8 1.00000000   0.656E-07       0.001       32.256   0.100E-07
     Final TRS4 iteration    8 1.00000000   0.656E-07
     Chemical potential (mu):       0.01249
 
 PAO| energy:  -7.7800167603357098      penalty:   1.5139525205794606E-005
 PAO|CG| trace_G_new    7.3053689210651296E-004
 PAO|CG| trace_G_prev    2.6051779469060668E-003
 PAO|CG| trace_G_mix    1.9624557591062526E-006
 PAO|CG| trace_D    3.3586310859779265E-003
 PAO|CG| trace_D_Gnew  -1.8005422822845809E-006
 PAO|CG| beta:   0.27966398119278890     
 PAO| norm of gradient:   2.7028445980235582E-002
 PAO| energy improvement:  -2.7686771742274630E-004
 PAO| step     18                   -7.780016760  0.169E-02  0.213E+00     0.078
 PAO|LS| adapt:  T F F
 PAO|LS| adapt: scan_steps:    0.0000000000000000        0.0000000000000000        0.0000000000000000     
 PAO|LS| adapt: energies:   -7.7800167603357098        0.0000000000000000        0.0000000000000000     
 PAO| ======================= Iteration:        19 =============================

     Lanczos converged:  T threshold:   0.100E-02
     Est. extremal eigenvalues:    0.276E+01   0.186E+00
     Est. condition number :    0.148E+02
     NS sqrt iter    1 1.00000000   0.706E+00       0.002       41.720
     NS sqrt iter    2 1.00000000   0.329E+00       0.002       64.140
     NS sqrt iter    3 1.00000000   0.734E-01       0.002       65.021
     NS sqrt iter    4 1.00000000   0.164E-02       0.002       63.987
     NS sqrt iter    5 1.00000000   0.356E-07       0.002       41.407
     Final NS sqrt iter    5 1.00000000   0.451E-08

     Est. extremal eigenvalues     -0.93567     1.65363  converged:  T
     TRS4 it   1 1.00000000   0.858E+00       0.001       16.128   0.100E-07
     TRS4 it   2 1.00000000   0.603E+00       0.001       32.256   0.100E-07
     TRS4 it   3 1.00000000   0.408E+00       0.001       32.256   0.100E-07
     TRS4 it   4 1.00000000   0.202E+00       0.001       32.256   0.100E-07
     TRS4 it   5 1.00000000   0.620E-01       0.001       32.256   0.100E-07
     TRS4 it   6 1.00000000   0.732E-02       0.001       32.256   0.100E-07
     TRS4 it   7 1.00000000   0.137E-03       0.001       32.256   0.100E-07
     TRS4 it   8 1.00000000   0.667E-07       0.001       32.256   0.100E-07
     Final TRS4 iteration    8 1.00000000   0.667E-07
     Chemical potential (mu):       0.01236
 
 PAO| energy:  -7.7801353848508956      penalty:   1.4848831491280581E-005
 PAO|LS| adapt:  T T F
 PAO|LS| adapt: scan_steps:    0.0000000000000000       0.21288128840445986        0.0000000000000000     
 PAO|LS| adapt: energies:   -7.7800167603357098       -7.7801353848508956        0.0000000000000000     
 PAO| ======================= Iteration:        20 =============================

     Lanczos converged:  T threshold:   0.100E-02
     Est. extremal eigenvalues:    0.276E+01   0.186E+00
     Est. condition number :    0.148E+02
     NS sqrt iter    1 1.00000000   0.705E+00       0.002       40.942
     NS sqrt iter    2 1.00000000   0.329E+00       0.002       63.572
     NS sqrt iter    3 1.00000000   0.736E-01       0.002       65.158
     NS sqrt iter    4 1.00000000   0.165E-02       0.002       64.447
     NS sqrt iter    5 1.00000000   0.360E-07       0.002       41.335
     Final NS sqrt iter    5 1.00000000   0.464E-08

     Est. extremal eigenvalues     -0.93567     1.65411  converged:  T
     TRS4 it   1 1.00000000   0.858E+00       0.001       16.128   0.100E-07
     TRS4 it   2 1.00000000   0.603E+00       0.001       32.256   0.100E-07
     TRS4 it   3 1.00000000   0.408E+00       0.001       32.256   0.100E-07
     TRS4 it   4 1.00000000   0.202E+00       0.001       32.256   0.100E-07
     TRS4 it   5 1.00000000   0.619E-01       0.001       32.256   0.100E-07
     TRS4 it   6 1.00000000   0.732E-02       0.001       32.256   0.100E-07
     TRS4 it   7 1.00000000   0.137E-03       0.001       32.256   0.100E-07
     TRS4 it   8 1.00000000   0.679E-07       0.001       32.256   0.100E-07
     Final TRS4 iteration    8 1.00000000   0.679E-07
     Chemical potential (mu):       0.01222
 
 PAO| energy:  -7.7801796002777559      penalty:   1.4570630405023396E-005
 PAO|LS| adapt:  T T F
 PAO|LS| adapt: scan_steps:    0.0000000000000000       0.42576257680891971        0.0000000000000000     
 PAO|LS| adapt: energies:   -7.7800167603357098       -7.7801796002777559        0.0000000000000000     
 PAO| ======================= Iteration:        21 =============================

     Lanczos converged:  T threshold:   0.100E-02
     Est. extremal eigenvalues:    0.276E+01   0.186E+00
     Est. condition number :    0.148E+02
     NS sqrt iter    1 1.00000000   0.705E+00       0.002       40.580
     NS sqrt iter    2 1.00000000   0.329E+00       0.002       64.311
     NS sqrt iter    3 1.00000000   0.741E-01       0.002       64.260
     NS sqrt iter    4 1.00000000   0.167E-02       0.002       64.046
     NS sqrt iter    5 1.00000000   0.370E-07       0.002       41.727
     Final NS sqrt iter    5 1.00000000   0.320E-08

     Est. extremal eigenvalues     -0.93566     1.65508  converged:  T
     TRS4 it   1 1.00000000   0.858E+00       0.001       16.128   0.100E-07
     TRS4 it   2 1.00000000   0.603E+00       0.001       32.256   0.100E-07
     TRS4 it   3 1.00000000   0.408E+00       0.001       32.256   0.100E-07
     TRS4 it   4 1.00000000   0.202E+00       0.001       32.256   0.100E-07
     TRS4 it   5 1.00000000   0.618E-01       0.001       32.256   0.100E-07
     TRS4 it   6 1.00000000   0.732E-02       0.001       32.256   0.100E-07
     TRS4 it   7 1.00000000   0.139E-03       0.001       32.256   0.100E-07
     TRS4 it   8 1.00000000   0.703E-07       0.001       32.256   0.100E-07
     Final TRS4 iteration    8 1.00000000   0.703E-07
     Chemical potential (mu):       0.01193
 
 PAO| energy:  -7.7800423229588445      penalty:   1.4051134921138020E-005
 PAO|LS| Need extra step
 PAO|LS| adapt:  T T T
 PAO|LS| adapt: scan_steps:    0.0000000000000000       0.42576257680891971       0.85152515361783943     
 PAO|LS| adapt: energies:   -7.7800167603357098       -7.7801796002777559       -7.7800423229588445     
 PAO|LS| adapt: suggested step_size:   0.44389483661479462     
 PAO|LS| adapt: predicted energy  -7.7801798724412512     
 PAO| ======================= Iteration:        22 =============================

     Lanczos converged:  T threshold:   0.100E-02
     Est. extremal eigenvalues:    0.276E+01   0.186E+00
     Est. condition number :    0.148E+02
     NS sqrt iter    1 1.00000000   0.705E+00       0.002       40.490
     NS sqrt iter    2 1.00000000   0.329E+00       0.002       64.214
     NS sqrt iter    3 1.00000000   0.737E-01       0.002       64.073
     NS sqrt iter    4 1.00000000   0.165E-02       0.002       63.921
     NS sqrt iter    5 1.00000000   0.360E-07       0.002       40.199
     Final NS sqrt iter    5 1.00000000   0.465E-08

     Est. extremal eigenvalues     -0.93567     1.65415  converged:  T
     TRS4 it   1 1.00000000   0.858E+00       0.001       16.128   0.100E-07
     TRS4 it   2 1.00000000   0.603E+00       0.001       32.256   0.100E-07
     TRS4 it   3 1.00000000   0.408E+00       0.001       32.256   0.100E-07
     TRS4 it   4 1.00000000   0.202E+00       0.001       32.256   0.100E-07
     TRS4 it   5 1.00000000   0.619E-01       0.001       32.256   0.100E-07
     TRS4 it   6 1.00000000   0.732E-02       0.001       32.256   0.100E-07
     TRS4 it   7 1.00000000   0.137E-03       0.001       32.256   0.100E-07
     TRS4 it   8 1.00000000   0.680E-07       0.001       32.256   0.100E-07
     Final TRS4 iteration    8 1.00000000   0.680E-07
     Chemical potential (mu):       0.01221
 
 PAO| energy:  -7.7801799076125482      penalty:   1.4547506188729612E-005
 PAO|CG| trace_G_new    2.2517016724319926E-004
 PAO|CG| trace_G_prev    7.3053689210651296E-004
 PAO|CG| trace_G_mix    3.1778195578334605E-006
 PAO|CG| trace_D    9.9422904671321740E-004
 PAO|CG| trace_D_Gnew  -1.9405260369580166E-006
 PAO|CG| beta:   0.30387561543298364     
 PAO| norm of gradient:   1.5005671169367909E-002
 PAO| energy improvement:  -1.6314727683841568E-004
 PAO| step     22                   -7.780179908  0.938E-03  0.444E+00     0.102
 PAO|LS| adapt:  T F F
 PAO|LS| adapt: scan_steps:    0.0000000000000000        0.0000000000000000        0.0000000000000000     
 PAO|LS| adapt: energies:   -7.7801799076125482        0.0000000000000000        0.0000000000000000     
 PAO| ======================= Iteration:        23 =============================

     Lanczos converged:  T threshold:   0.100E-02
     Est. extremal eigenvalues:    0.276E+01   0.186E+00
     Est. condition number :    0.148E+02
     NS sqrt iter    1 1.00000000   0.705E+00       0.002       40.343
     NS sqrt iter    2 1.00000000   0.329E+00       0.002       63.651
     NS sqrt iter    3 1.00000000   0.737E-01       0.002       64.375
     NS sqrt iter    4 1.00000000   0.165E-02       0.002       63.842
     NS sqrt iter    5 1.00000000   0.362E-07       0.002       41.103
     Final NS sqrt iter    5 1.00000000   0.471E-08

     Est. extremal eigenvalues     -0.93567     1.65423  converged:  T
     TRS4 it   1 1.00000000   0.858E+00       0.001       16.128   0.100E-07
     TRS4 it   2 1.00000000   0.603E+00       0.001       32.256   0.100E-07
     TRS4 it   3 1.00000000   0.408E+00       0.001       32.256   0.100E-07
     TRS4 it   4 1.00000000   0.202E+00       0.001       32.256   0.100E-07
     TRS4 it   5 1.00000000   0.620E-01       0.001       32.256   0.100E-07
     TRS4 it   6 1.00000000   0.735E-02       0.001       32.256   0.100E-07
     TRS4 it   7 1.00000000   0.139E-03       0.001       32.256   0.100E-07
     TRS4 it   8 1.00000000   0.697E-07       0.001       32.256   0.100E-07
     Final TRS4 iteration    8 1.00000000   0.697E-07
     Chemical potential (mu):       0.01197
 
 PAO| energy:  -7.7802299610993364      penalty:   1.3863422585723141E-005
 PAO|LS| adapt:  T T F
 PAO|LS| adapt: scan_steps:    0.0000000000000000       0.44389483661479462        0.0000000000000000     
 PAO|LS| adapt: energies:   -7.7801799076125482       -7.7802299610993364        0.0000000000000000     
 PAO| ======================= Iteration:        24 =============================

     Lanczos converged:  T threshold:   0.100E-02
     Est. extremal eigenvalues:    0.276E+01   0.186E+00
     Est. condition number :    0.148E+02
     NS sqrt iter    1 1.00000000   0.705E+00       0.002       40.692
     NS sqrt iter    2 1.00000000   0.329E+00       0.002       64.006
     NS sqrt iter    3 1.00000000   0.738E-01       0.002       63.515
     NS sqrt iter    4 1.00000000   0.165E-02       0.002       63.495
     NS sqrt iter    5 1.00000000   0.363E-07       0.002       41.830
     Final NS sqrt iter    5 1.00000000   0.478E-08

     Est. extremal eigenvalues     -0.93567     1.65430  converged:  T
     TRS4 it   1 1.00000000   0.858E+00       0.001       16.128   0.100E-07
     TRS4 it   2 1.00000000   0.603E+00       0.001       32.256   0.100E-07
     TRS4 it   3 1.00000000   0.408E+00       0.001       32.256   0.100E-07
     TRS4 it   4 1.00000000   0.202E+00       0.001       32.256   0.100E-07
     TRS4 it   5 1.00000000   0.621E-01       0.001       32.256   0.100E-07
     TRS4 it   6 1.00000000   0.739E-02       0.001       32.256   0.100E-07
     TRS4 it   7 1.00000000   0.140E-03       0.001       32.256   0.100E-07
     TRS4 it   8 1.00000000   0.715E-07       0.001       32.256   0.100E-07
     Final TRS4 iteration    8 1.00000000   0.715E-07
     Chemical potential (mu):       0.01173
 
 PAO| energy:  -7.7801790360108072      penalty:   1.3207797142710067E-005
 PAO|LS| adapt:  T T T
 PAO|LS| adapt: scan_steps:    0.0000000000000000       0.44389483661479462       0.88778967322958924     
 PAO|LS| adapt: energies:   -7.7801799076125482       -7.7802299610993364       -7.7801790360108072     
 PAO|LS| adapt: suggested step_size:   0.44197908611425635     
 PAO|LS| adapt: predicted energy  -7.7802299620397468     
 PAO| ======================= Iteration:        25 =============================

     Lanczos converged:  T threshold:   0.100E-02
     Est. extremal eigenvalues:    0.276E+01   0.186E+00
     Est. condition number :    0.148E+02
     NS sqrt iter    1 1.00000000   0.705E+00       0.002       41.083
     NS sqrt iter    2 1.00000000   0.329E+00       0.002       64.885
     NS sqrt iter    3 1.00000000   0.737E-01       0.002       64.556
     NS sqrt iter    4 1.00000000   0.165E-02       0.002       64.479
     NS sqrt iter    5 1.00000000   0.362E-07       0.002       41.556
     Final NS sqrt iter    5 1.00000000   0.471E-08

     Est. extremal eigenvalues     -0.93567     1.65423  converged:  T
     TRS4 it   1 1.00000000   0.858E+00       0.001       16.128   0.100E-07
     TRS4 it   2 1.00000000   0.603E+00       0.001       32.256   0.100E-07
     TRS4 it   3 1.00000000   0.408E+00       0.001       32.256   0.100E-07
     TRS4 it   4 1.00000000   0.202E+00       0.001       32.256   0.100E-07
     TRS4 it   5 1.00000000   0.620E-01       0.001       32.256   0.100E-07
     TRS4 it   6 1.00000000   0.735E-02       0.001       32.256   0.100E-07
     TRS4 it   7 1.00000000   0.139E-03       0.001       32.256   0.100E-07
     TRS4 it   8 1.00000000   0.697E-07       0.001       32.256   0.100E-07
     Final TRS4 iteration    8 1.00000000   0.697E-07
     Chemical potential (mu):       0.01197
 
 PAO| energy:  -7.7802299613251353      penalty:   1.3866313358487178E-005
 PAO|CG| trace_G_new    8.1067646140218697E-005
 PAO|CG| trace_G_prev    2.2517016724319926E-004
 PAO|CG| trace_G_mix    7.5683806496639525E-007
 PAO|CG| trace_D    3.1815702191028170E-004
 PAO|CG| trace_D_Gnew  -3.7851909444861393E-007
 PAO|CG| beta:   0.35666717779940671     
 PAO| norm of gradient:   9.0037573345919698E-003
 PAO| energy improvement:  -5.0053712587150301E-005
 PAO| step     25                   -7.780229961  0.563E-03  0.442E+00     0.079
 PAO|LS| adapt:  T F F
 PAO|LS| adapt: scan_steps:    0.0000000000000000        0.0000000000000000        0.0000000000000000     
 PAO|LS| adapt: energies:   -7.7802299613251353        0.0000000000000000        0.0000000000000000     
 PAO| ======================= Iteration:        26 =============================

     Lanczos converged:  T threshold:   0.100E-02
     Est. extremal eigenvalues:    0.276E+01   0.186E+00
     Est. condition number :    0.148E+02
     NS sqrt iter    1 1.00000000   0.705E+00       0.002       40.687
     NS sqrt iter    2 1.00000000   0.329E+00       0.002       63.712
     NS sqrt iter    3 1.00000000   0.736E-01       0.002       64.440
     NS sqrt iter    4 1.00000000   0.164E-02       0.002       63.084
     NS sqrt iter    5 1.00000000   0.361E-07       0.002       41.262
     Final NS sqrt iter    5 1.00000000   0.461E-08

     Est. extremal eigenvalues     -0.93568     1.65423  converged:  T
     TRS4 it   1 1.00000000   0.858E+00       0.001       16.128   0.100E-07
     TRS4 it   2 1.00000000   0.603E+00       0.001       32.256   0.100E-07
     TRS4 it   3 1.00000000   0.408E+00       0.001       32.256   0.100E-07
     TRS4 it   4 1.00000000   0.202E+00       0.001       32.256   0.100E-07
     TRS4 it   5 1.00000000   0.619E-01       0.001       32.256   0.100E-07
     TRS4 it   6 1.00000000   0.734E-02       0.001       32.256   0.100E-07
     TRS4 it   7 1.00000000   0.138E-03       0.001       32.256   0.100E-07
     TRS4 it   8 1.00000000   0.688E-07       0.001       32.256   0.100E-07
     Final TRS4 iteration    8 1.00000000   0.688E-07
     Chemical potential (mu):       0.01209
 
 PAO| energy:  -7.7802343807214642      penalty:   1.3140714567157936E-005
 PAO|LS| adapt:  T T F
 PAO|LS| adapt: scan_steps:    0.0000000000000000       0.44197908611425635        0.0000000000000000     
 PAO|LS| adapt: energies:   -7.7802299613251353       -7.7802343807214642        0.0000000000000000     
 PAO| ======================= Iteration:        27 =============================

     Lanczos converged:  T threshold:   0.100E-02
     Est. extremal eigenvalues:    0.276E+01   0.186E+00
     Est. condition number :    0.148E+02
     NS sqrt iter    1 1.00000000   0.705E+00       0.002       41.310
     NS sqrt iter    2 1.00000000   0.329E+00       0.002       63.149
     NS sqrt iter    3 1.00000000   0.735E-01       0.002       65.013
     NS sqrt iter    4 1.00000000   0.164E-02       0.002       62.802
     NS sqrt iter    5 1.00000000   0.361E-07       0.002       41.475
     Final NS sqrt iter    5 1.00000000   0.451E-08

     Est. extremal eigenvalues     -0.93568     1.65423  converged:  T
     TRS4 it   1 1.00000000   0.858E+00       0.001       16.128   0.100E-07
     TRS4 it   2 1.00000000   0.603E+00       0.001       32.256   0.100E-07
     TRS4 it   3 1.00000000   0.408E+00       0.001       32.256   0.100E-07
     TRS4 it   4 1.00000000   0.202E+00       0.001       32.256   0.100E-07
     TRS4 it   5 1.00000000   0.619E-01       0.001       32.256   0.100E-07
     TRS4 it   6 1.00000000   0.732E-02       0.001       32.256   0.100E-07
     TRS4 it   7 1.00000000   0.137E-03       0.001       32.256   0.100E-07
     TRS4 it   8 1.00000000   0.680E-07       0.001       32.256   0.100E-07
     Final TRS4 iteration    8 1.00000000   0.680E-07
     Chemical potential (mu):       0.01220
 
 PAO| energy:  -7.7801757446072770      penalty:   1.2438987181395597E-005
 PAO|LS| adapt:  T T T
 PAO|LS| adapt: scan_steps:    0.0000000000000000       0.44197908611425635       0.88395817222851270     
 PAO|LS| adapt: energies:   -7.7802299613251353       -7.7802343807214642       -7.7801757446072770     
 PAO|LS| adapt: suggested step_size:   0.25196670484097183     
 PAO|LS| adapt: predicted energy  -7.7802402078340975     
 PAO| ======================= Iteration:        28 =============================

     Lanczos converged:  T threshold:   0.100E-02
     Est. extremal eigenvalues:    0.276E+01   0.186E+00
     Est. condition number :    0.148E+02
     NS sqrt iter    1 1.00000000   0.705E+00       0.002       41.099
     NS sqrt iter    2 1.00000000   0.329E+00       0.002       64.955
     NS sqrt iter    3 1.00000000   0.736E-01       0.002       64.556
     NS sqrt iter    4 1.00000000   0.165E-02       0.002       60.633
     NS sqrt iter    5 1.00000000   0.361E-07       0.002       41.593
     Final NS sqrt iter    5 1.00000000   0.466E-08

     Est. extremal eigenvalues     -0.93568     1.65423  converged:  T
     TRS4 it   1 1.00000000   0.858E+00       0.001       16.128   0.100E-07
     TRS4 it   2 1.00000000   0.603E+00       0.001       32.256   0.100E-07
     TRS4 it   3 1.00000000   0.408E+00       0.001       32.256   0.100E-07
     TRS4 it   4 1.00000000   0.202E+00       0.001       32.256   0.100E-07
     TRS4 it   5 1.00000000   0.620E-01       0.001       32.256   0.100E-07
     TRS4 it   6 1.00000000   0.734E-02       0.001       32.256   0.100E-07
     TRS4 it   7 1.00000000   0.138E-03       0.001       32.256   0.100E-07
     TRS4 it   8 1.00000000   0.692E-07       0.001       32.256   0.100E-07
     Final TRS4 iteration    8 1.00000000   0.692E-07
     Chemical potential (mu):       0.01204
 
 PAO| energy:  -7.7802401985108789      penalty:   1.3449714076662964E-005
 PAO|CG| trace_G_new    3.2841667774370616E-005
 PAO|CG| trace_G_prev    8.1067646140218697E-005
 PAO|CG| trace_G_mix    5.1379294941727532E-008
 PAO|CG| trace_D    1.2181088108223342E-004
 PAO|CG| trace_D_Gnew  -2.3453956615668563E-008
 PAO|CG| beta:   0.40448057937581106     
 PAO| norm of gradient:   5.7307650252274881E-003
 PAO| energy improvement:  -1.0237185743555699E-005
 PAO| step     28                   -7.780240199  0.358E-03  0.252E+00     0.079
 PAO|LS| adapt:  T F F
 PAO|LS| adapt: scan_steps:    0.0000000000000000        0.0000000000000000        0.0000000000000000     
 PAO|LS| adapt: energies:   -7.7802401985108789        0.0000000000000000        0.0000000000000000     
 PAO| ======================= Iteration:        29 =============================

     Lanczos converged:  T threshold:   0.100E-02
     Est. extremal eigenvalues:    0.276E+01   0.186E+00
     Est. condition number :    0.148E+02
     NS sqrt iter    1 1.00000000   0.705E+00       0.002       40.390
     NS sqrt iter    2 1.00000000   0.329E+00       0.002       58.511
     NS sqrt iter    3 1.00000000   0.736E-01       0.002       64.110
     NS sqrt iter    4 1.00000000   0.164E-02       0.002       63.495
     NS sqrt iter    5 1.00000000   0.362E-07       0.002       41.623
     Final NS sqrt iter    5 1.00000000   0.459E-08

     Est. extremal eigenvalues     -0.93568     1.65428  converged:  T
     TRS4 it   1 1.00000000   0.858E+00       0.001       16.128   0.100E-07
     TRS4 it   2 1.00000000   0.603E+00       0.001       32.256   0.100E-07
     TRS4 it   3 1.00000000   0.408E+00       0.001       32.256   0.100E-07
     TRS4 it   4 1.00000000   0.202E+00       0.001       32.256   0.100E-07
     TRS4 it   5 1.00000000   0.619E-01       0.001       32.256   0.100E-07
     TRS4 it   6 1.00000000   0.732E-02       0.001       32.256   0.100E-07
     TRS4 it   7 1.00000000   0.138E-03       0.001       32.256   0.100E-07
     TRS4 it   8 1.00000000   0.683E-07       0.001       32.256   0.100E-07
     Final TRS4 iteration    8 1.00000000   0.683E-07
     Chemical potential (mu):       0.01216
 
 PAO| energy:  -7.7802474965865338      penalty:   1.3010626799828228E-005
 PAO|LS| adapt:  T T F
 PAO|LS| adapt: scan_steps:    0.0000000000000000       0.25196670484097183        0.0000000000000000     
 PAO|LS| adapt: energies:   -7.7802401985108789       -7.7802474965865338        0.0000000000000000     
 PAO| ======================= Iteration:        30 =============================

     Lanczos converged:  T threshold:   0.100E-02
     Est. extremal eigenvalues:    0.276E+01   0.186E+00
     Est. condition number :    0.148E+02
     NS sqrt iter    1 1.00000000   0.705E+00       0.002       40.648
     NS sqrt iter    2 1.00000000   0.328E+00       0.002       63.865
     NS sqrt iter    3 1.00000000   0.735E-01       0.002       64.245
     NS sqrt iter    4 1.00000000   0.164E-02       0.002       64.762
     NS sqrt iter    5 1.00000000   0.362E-07       0.001       44.174
     Final NS sqrt iter    5 1.00000000   0.452E-08

     Est. extremal eigenvalues     -0.93568     1.65433  converged:  T
     TRS4 it   1 1.00000000   0.858E+00       0.001       16.128   0.100E-07
     TRS4 it   2 1.00000000   0.603E+00       0.001       32.256   0.100E-07
     TRS4 it   3 1.00000000   0.408E+00       0.001       32.256   0.100E-07
     TRS4 it   4 1.00000000   0.202E+00       0.001       32.256   0.100E-07
     TRS4 it   5 1.00000000   0.618E-01       0.001       32.256   0.100E-07
     TRS4 it   6 1.00000000   0.730E-02       0.001       32.256   0.100E-07
     TRS4 it   7 1.00000000   0.137E-03       0.001       32.256   0.100E-07
     TRS4 it   8 1.00000000   0.674E-07       0.001       27.872   0.100E-07
     Final TRS4 iteration    8 1.00000000   0.674E-07
     Chemical potential (mu):       0.01229
 
 PAO| energy:  -7.7802528340797048      penalty:   1.2579706339995819E-005
 PAO|LS| adapt:  T T F
 PAO|LS| adapt: scan_steps:    0.0000000000000000       0.50393340968194367        0.0000000000000000     
 PAO|LS| adapt: energies:   -7.7802401985108789       -7.7802528340797048        0.0000000000000000     
 PAO| ======================= Iteration:        31 =============================

     Lanczos converged:  T threshold:   0.100E-02
     Est. extremal eigenvalues:    0.276E+01   0.186E+00
     Est. condition number :    0.148E+02
     NS sqrt iter    1 1.00000000   0.704E+00       0.002       40.918
     NS sqrt iter    2 1.00000000   0.328E+00       0.002       64.107
     NS sqrt iter    3 1.00000000   0.734E-01       0.002       67.517
     NS sqrt iter    4 1.00000000   0.164E-02       0.002       70.362
     NS sqrt iter    5 1.00000000   0.363E-07       0.001       44.255
     Final NS sqrt iter    5 1.00000000   0.389E-08

     Est. extremal eigenvalues     -0.93568     1.65444  converged:  T
     TRS4 it   1 1.00000000   0.858E+00       0.001       16.128   0.100E-07
     TRS4 it   2 1.00000000   0.603E+00       0.001       32.256   0.100E-07
     TRS4 it   3 1.00000000   0.407E+00       0.001       32.256   0.100E-07
     TRS4 it   4 1.00000000   0.202E+00       0.001       32.256   0.100E-07
     TRS4 it   5 1.00000000   0.616E-01       0.001       32.256   0.100E-07
     TRS4 it   6 1.00000000   0.726E-02       0.001       32.256   0.100E-07
     TRS4 it   7 1.00000000   0.135E-03       0.001       32.256   0.100E-07
     TRS4 it   8 1.00000000   0.656E-07       0.001       32.256   0.100E-07
     Final TRS4 iteration    8 1.00000000   0.656E-07
     Chemical potential (mu):       0.01255
 
 PAO| energy:  -7.7802576294410306      penalty:   1.1742189773879341E-005
 PAO|LS| Need extra step
 PAO|LS| adapt:  T T F
 PAO|LS| adapt: scan_steps:    0.0000000000000000        1.0078668193638873        0.0000000000000000     
 PAO|LS| adapt: energies:   -7.7802401985108789       -7.7802576294410306        0.0000000000000000     
 PAO| ======================= Iteration:        32 =============================

     Lanczos converged:  T threshold:   0.100E-02
     Est. extremal eigenvalues:    0.275E+01   0.186E+00
     Est. condition number :    0.148E+02
     NS sqrt iter    1 1.00000000   0.703E+00       0.002       41.898
     NS sqrt iter    2 1.00000000   0.328E+00       0.002       69.998
     NS sqrt iter    3 1.00000000   0.731E-01       0.002       71.198
     NS sqrt iter    4 1.00000000   0.163E-02       0.002       70.632
     NS sqrt iter    5 1.00000000   0.365E-07       0.001       45.553
     Final NS sqrt iter    5 1.00000000   0.304E-08

     Est. extremal eigenvalues     -0.93569     1.65462  converged:  T
     TRS4 it   1 1.00000000   0.859E+00       0.001       16.128   0.100E-07
     TRS4 it   2 1.00000000   0.603E+00       0.001       32.256   0.100E-07
     TRS4 it   3 1.00000000   0.407E+00       0.001       32.256   0.100E-07
     TRS4 it   4 1.00000000   0.201E+00       0.001       32.256   0.100E-07
     TRS4 it   5 1.00000000   0.613E-01       0.001       32.256   0.100E-07
     TRS4 it   6 1.00000000   0.719E-02       0.001       32.256   0.100E-07
     TRS4 it   7 1.00000000   0.132E-03       0.001       32.256   0.100E-07
     TRS4 it   8 1.00000000   0.621E-07       0.001       32.256   0.100E-07
     Final TRS4 iteration    8 1.00000000   0.621E-07
     Chemical potential (mu):       0.01306
 
 PAO| energy:  -7.7802437076217750      penalty:   1.0163232788271751E-005
 PAO|LS| Need extra step
 PAO|LS| adapt:  T T T
 PAO|LS| adapt: scan_steps:    0.0000000000000000        1.0078668193638873        2.0157336387277747     
 PAO|LS| adapt: energies:   -7.7802401985108789       -7.7802576294410306       -7.7802437076217750     
 PAO|LS| adapt: suggested step_size:    1.0642688336127639     
 PAO|LS| adapt: predicted energy  -7.7802576785350475     
 PAO| ======================= Iteration:        33 =============================

     Lanczos converged:  T threshold:   0.100E-02
     Est. extremal eigenvalues:    0.276E+01   0.186E+00
     Est. condition number :    0.148E+02
     NS sqrt iter    1 1.00000000   0.704E+00       0.001       44.049
     NS sqrt iter    2 1.00000000   0.328E+00       0.002       68.447
     NS sqrt iter    3 1.00000000   0.733E-01       0.002       65.277
     NS sqrt iter    4 1.00000000   0.164E-02       0.002       65.432
     NS sqrt iter    5 1.00000000   0.363E-07       0.002       42.319
     Final NS sqrt iter    5 1.00000000   0.388E-08

     Est. extremal eigenvalues     -0.93568     1.65445  converged:  T
     TRS4 it   1 1.00000000   0.858E+00       0.001       16.128   0.100E-07
     TRS4 it   2 1.00000000   0.603E+00       0.001       32.256   0.100E-07
     TRS4 it   3 1.00000000   0.407E+00       0.001       32.256   0.100E-07
     TRS4 it   4 1.00000000   0.202E+00       0.001       32.256   0.100E-07
     TRS4 it   5 1.00000000   0.616E-01       0.001       32.256   0.100E-07
     TRS4 it   6 1.00000000   0.726E-02       0.001       32.256   0.100E-07
     TRS4 it   7 1.00000000   0.135E-03       0.001       32.256   0.100E-07
     TRS4 it   8 1.00000000   0.654E-07       0.001       32.256   0.100E-07
     Final TRS4 iteration    8 1.00000000   0.654E-07
     Chemical potential (mu):       0.01258
 
 PAO| energy:  -7.7802576784509849      penalty:   1.1650458349516362E-005
 PAO|CG| trace_G_new    8.2669117714798647E-005
 PAO|CG| trace_G_prev    3.2841667774370616E-005
 PAO|CG| trace_G_mix    8.5097706717882635E-008
 PAO|CG| trace_D    5.2789454170164312E-005
 PAO|CG| trace_D_Gnew   5.9466397952713008E-009
 PAO|CG| beta:    2.5146110293621784     
 PAO| norm of gradient:   9.0922559200012978E-003
 PAO| energy improvement:  -1.7479940106035485E-005
 PAO| step     33                   -7.780257678  0.568E-03  0.106E+01     0.122
 PAO|LS| adapt:  T F F
 PAO|LS| adapt: scan_steps:    0.0000000000000000        0.0000000000000000        0.0000000000000000     
 PAO|LS| adapt: energies:   -7.7802576784509849        0.0000000000000000        0.0000000000000000     
 PAO| ======================= Iteration:        34 =============================

     Lanczos converged:  T threshold:   0.100E-02
     Est. extremal eigenvalues:    0.275E+01   0.185E+00
     Est. condition number :    0.149E+02
     NS sqrt iter    1 1.00000000   0.702E+00       0.002       41.344
     NS sqrt iter    2 1.00000000   0.327E+00       0.002       64.441
     NS sqrt iter    3 1.00000000   0.727E-01       0.002       64.958
     NS sqrt iter    4 1.00000000   0.163E-02       0.002       64.258
[...]
     NS sqrt iter    4 1.00000000   0.819E-03       0.002       71.698
     NS sqrt iter    5 1.00000000   0.725E-08       0.001       31.046
     Final NS sqrt iter    5 1.00000000   0.428E-09

     Est. extremal eigenvalues     -0.93540     1.63089  converged:  T
     TRS4 it   1 1.00000000   0.878E+00       0.001       16.128   0.100E-07
     TRS4 it   2 1.00000000   0.632E+00       0.001       32.256   0.100E-07
     TRS4 it   3 1.00000000   0.454E+00       0.001       32.256   0.100E-07
     TRS4 it   4 1.00000000   0.277E+00       0.001       32.256   0.100E-07
     TRS4 it   5 1.00000000   0.137E+00       0.001       32.256   0.100E-07
     TRS4 it   6 1.00000000   0.425E-01       0.001       32.256   0.100E-07
     TRS4 it   7 1.00000000   0.571E-02       0.001       32.256   0.100E-07
     TRS4 it   8 1.00000000   0.138E-03       0.001       32.256   0.100E-07
     TRS4 it   9 1.00000000   0.859E-07       0.001       32.256   0.100E-07
     TRS4 it  10 1.00000000   0.334E-13       0.001       32.256   0.100E-07
     Final TRS4 iteration   10 1.00000000   0.334E-13
     Chemical potential (mu):      -0.07343
 
 PAO| energy:  -7.7798622593473041      penalty:   2.9534098894289858E-008
 PAO|LS| Need extra step
 PAO|LS| adapt:  T T T
 PAO|LS| adapt: scan_steps:    0.0000000000000000       0.20000000000000001       0.40000000000000002     
 PAO|LS| adapt: energies:   -7.7798622562804454       -7.7798622614682920       -7.7798622593473041     
 PAO|LS| adapt: suggested step_size:   0.24196098294133839     
 PAO|LS| adapt: predicted energy  -7.7798622616291526     
 PAO| ======================= Iteration:       410 =============================

     Lanczos converged:  T threshold:   0.100E-02
     Est. extremal eigenvalues:    0.253E+01   0.190E+00
     Est. condition number :    0.133E+02
     NS sqrt iter    1 1.00000000   0.640E+00       0.002       39.711
     NS sqrt iter    2 1.00000000   0.279E+00       0.002       73.132
     NS sqrt iter    3 1.00000000   0.498E-01       0.002       72.817
     NS sqrt iter    4 1.00000000   0.819E-03       0.002       56.217
     NS sqrt iter    5 1.00000000   0.725E-08       0.002       22.847
     Final NS sqrt iter    5 1.00000000   0.428E-09

     Est. extremal eigenvalues     -0.93540     1.63089  converged:  T
     TRS4 it   1 1.00000000   0.878E+00       0.001       16.128   0.100E-07
     TRS4 it   2 1.00000000   0.632E+00       0.001       32.256   0.100E-07
     TRS4 it   3 1.00000000   0.454E+00       0.001       32.256   0.100E-07
     TRS4 it   4 1.00000000   0.277E+00       0.001       32.256   0.100E-07
     TRS4 it   5 1.00000000   0.137E+00       0.001       32.256   0.100E-07
     TRS4 it   6 1.00000000   0.425E-01       0.001       32.256   0.100E-07
     TRS4 it   7 1.00000000   0.571E-02       0.001       32.256   0.100E-07
     TRS4 it   8 1.00000000   0.138E-03       0.001       32.256   0.100E-07
     TRS4 it   9 1.00000000   0.859E-07       0.001       32.256   0.100E-07
     TRS4 it  10 1.00000000   0.328E-13       0.001       23.466   0.100E-07
     Final TRS4 iteration   10 1.00000000   0.328E-13
     Chemical potential (mu):      -0.07343
 
 PAO| energy:  -7.7798622616291571      penalty:   2.9914526993358261E-008
 PAO|CG| warming up with steepest descent
 PAO|CG| beta:    0.0000000000000000     
 PAO| norm of gradient:   1.2964836900385815E-004
 PAO| energy improvement:  -5.3487116957740000E-009
 PAO| step    410                   -7.779862262  0.810E-05  0.242E+00     0.114
 PAO| converged after          410  steps :-)
 PAO| Recalculating energy after mixing.

     Lanczos converged:  T threshold:   0.100E-02
     Est. extremal eigenvalues:    0.253E+01   0.190E+00
     Est. condition number :    0.133E+02
     NS sqrt iter    1 1.00000000   0.640E+00       0.002       33.392
     NS sqrt iter    2 1.00000000   0.279E+00       0.002       57.791
     NS sqrt iter    3 1.00000000   0.498E-01       0.002       60.961
     NS sqrt iter    4 1.00000000   0.819E-03       0.002       61.989
     NS sqrt iter    5 1.00000000   0.725E-08       0.001       26.261
     Final NS sqrt iter    5 1.00000000   0.428E-09

     Est. extremal eigenvalues     -0.93540     1.63089  converged:  T
     TRS4 it   1 1.00000000   0.878E+00       0.001       16.128   0.100E-07
     TRS4 it   2 1.00000000   0.632E+00       0.001       28.424   0.100E-07
     TRS4 it   3 1.00000000   0.454E+00       0.001       31.173   0.100E-07
     TRS4 it   4 1.00000000   0.277E+00       0.001       32.256   0.100E-07
     TRS4 it   5 1.00000000   0.137E+00       0.001       32.256   0.100E-07
     TRS4 it   6 1.00000000   0.425E-01       0.001       32.256   0.100E-07
     TRS4 it   7 1.00000000   0.571E-02       0.001       32.256   0.100E-07
     TRS4 it   8 1.00000000   0.138E-03       0.001       32.256   0.100E-07
     TRS4 it   9 1.00000000   0.859E-07       0.001       32.256   0.100E-07
     TRS4 it  10 1.00000000   0.339E-13       0.001       32.256   0.100E-07
     Final TRS4 iteration   10 1.00000000   0.339E-13
     Chemical potential (mu):      -0.07343
 
 PAO| energy:  -7.7798622602919636      penalty:   3.0207388936397317E-008
 PAO| Writing restart file.
     Est. extremal eigenvalues     -0.93540     1.63089  converged:  T
     TRS4 it   1 1.00000000   0.878E+00       0.001       16.128   0.100E-07
     TRS4 it   2 1.00000000   0.632E+00       0.001       28.814   0.100E-07
     TRS4 it   3 1.00000000   0.454E+00       0.001       30.313   0.100E-07
     TRS4 it   4 1.00000000   0.277E+00       0.001       31.402   0.100E-07
     TRS4 it   5 1.00000000   0.137E+00       0.001       31.618   0.100E-07
     TRS4 it   6 1.00000000   0.425E-01       0.001       32.256   0.100E-07
     TRS4 it   7 1.00000000   0.571E-02       0.001       30.316   0.100E-07
     TRS4 it   8 1.00000000   0.138E-03       0.001       28.289   0.100E-07
     TRS4 it   9 1.00000000   0.859E-07       0.001       32.256   0.100E-07
     TRS4 it  10 1.00000000   0.339E-13       0.001       32.256   0.100E-07
     Final TRS4 iteration   10 1.00000000   0.339E-13
     Chemical potential (mu):      -0.07343

 SCF     1       -34.450199067       -34.450199067    2.403761

*********************************************************
 Using MIXING_FRACTION=0.450 to mix KS matrix:  iscf=  2
 KS_nw=0.450*KS + 0.550*KS_old
*********************************************************
     Est. extremal eigenvalues     -0.93541     1.63089  converged:  T
     TRS4 it   1 1.00000000   0.878E+00       0.001       16.128   0.100E-07
     TRS4 it   2 1.00000000   0.632E+00       0.001       32.256   0.100E-07
     TRS4 it   3 1.00000000   0.454E+00       0.001       32.256   0.100E-07
     TRS4 it   4 1.00000000   0.277E+00       0.001       32.256   0.100E-07
     TRS4 it   5 1.00000000   0.137E+00       0.001       32.256   0.100E-07
     TRS4 it   6 1.00000000   0.425E-01       0.001       32.256   0.100E-07
     TRS4 it   7 1.00000000   0.571E-02       0.001       32.256   0.100E-07
     TRS4 it   8 1.00000000   0.138E-03       0.001       32.256   0.100E-07
     TRS4 it   9 1.00000000   0.859E-07       0.001       32.256   0.100E-07
     TRS4 it  10 1.00000000   0.331E-13       0.001       32.256   0.100E-07
     Final TRS4 iteration   10 1.00000000   0.331E-13
     Chemical potential (mu):      -0.07343

 SCF     2       -34.450199067        -0.000000000    2.196833

 PAO| Storing density matrix for ASPC guess in slot:           1

 ENERGY| Total FORCE_EVAL ( QS ) energy (a.u.):              -34.450199066717587


 -------------------------------------------------------------------------------
 -                                                                             -
 -                                DBCSR STATISTICS                             -
 -                                                                             -
 -------------------------------------------------------------------------------
 COUNTER                                    TOTAL       BLAS       SMM       ACC
 flops     5 x     5 x     4                20000     100.0%      0.0%      0.0%
 flops    13 x     5 x     4                20800     100.0%      0.0%      0.0%
 flops     5 x    13 x     4                20800     100.0%      0.0%      0.0%
 flops    13 x    13 x     4                40560     100.0%      0.0%      0.0%
 flops     4 x     4 x     5              3221760     100.0%      0.0%      0.0%
 flops     5 x     4 x     5              3932800     100.0%      0.0%      0.0%
 flops     4 x     4 x    13              4188288     100.0%      0.0%      0.0%
 flops    13 x     4 x     5              5112640     100.0%      0.0%      0.0%
 flops     5 x     4 x    13              5112640     100.0%      0.0%      0.0%
 flops     5 x     4 x     4              6444160     100.0%      0.0%      0.0%
 flops    13 x     4 x    13              6646432     100.0%      0.0%      0.0%
 flops    13 x     4 x     4              8628256     100.0%      0.0%      0.0%
 flops     4 x     4 x     4            412972672     100.0%      0.0%      0.0%
 flops inhomo. stacks                           0       0.0%      0.0%      0.0%
 flops total                       456.361808E+06     100.0%      0.0%      0.0%
 flops max/rank                    456.361808E+06     100.0%      0.0%      0.0%
 matmuls inhomo. stacks                         0       0.0%      0.0%      0.0%
 matmuls total                            3362024     100.0%      0.0%      0.0%
 number of processed stacks                 26811     100.0%      0.0%      0.0%
 average stack size                                   125.4       0.0       0.0
 marketing flops                   741.584448E+06
 -------------------------------------------------------------------------------
 # multiplications                          22374
 max memory usage/rank             328.273920E+06
 # max total images/rank                        1
 # max 3D layers                                1
 # MPI messages exchanged                       0
 MPI messages size (bytes):
  total size                         0.000000E+00
  min size                           0.000000E+00
  max size                           0.000000E+00
  average size                       0.000000E+00
 MPI breakdown and total messages size (bytes):
             size <=      128                   0                        0
       128 < size <=     8192                   0                        0
      8192 < size <=    32768                   0                        0
     32768 < size <=   131072                   0                        0
    131072 < size <=  4194304                   0                        0
   4194304 < size <= 16777216                   0                        0
  16777216 < size                               0                        0
 -------------------------------------------------------------------------------

 MEMORY| Estimated peak process memory [MiB]                                 314

 -------------------------------------------------------------------------------
 -                                                                             -
 -                           R E F E R E N C E S                               -
 -                                                                             -
 -------------------------------------------------------------------------------
 
 CP2K version 7.0 (Development Version), the CP2K developers group (2018).
 CP2K is freely available from https://www.cp2k.org/ .

 Schuett, O; VandeVondele, J. 
 Journal of Chemical Theory and Computation, 14, (2018). 
 Machine Learning Adaptive Basis Sets for Efficient Large Scale Density Functional Theory Simulation.
 https://dx.doi.org/10.1021/acs.jctc.8b00378


 Schuett, Ole; Messmer, Peter; Hutter, Juerg; VandeVondele, Joost. 
 Electronic Structure Calculations on Graphics Processing Units, John Wiley & Sons, Ltd, 173-190 (2016). 
 GPU-Accelerated Sparse Matrix-Matrix Multiplication for Linear Scaling Density Functional Theory.
 https://dx.doi.org/10.1002/9781118670712.ch8


 Borstnik, U; VandeVondele, J; Weber, V; Hutter, J. 
 PARALLEL COMPUTING, 40 (5-6), 47-58 (2014). 
 Sparse matrix multiplication: The distributed block-compressed sparse
 row library.
 https://dx.doi.org/10.1016/j.parco.2014.03.012


 Hutter, J; Iannuzzi, M; Schiffmann, F; VandeVondele, J. 
 WILEY INTERDISCIPLINARY REVIEWS-COMPUTATIONAL MOLECULAR SCIENCE, 4 (1), 15-25 (2014). 
 CP2K: atomistic simulations of condensed matter systems.
 https://dx.doi.org/10.1002/wcms.1159


 VandeVondele, J; Borstnik, U; Hutter, J. 
 JOURNAL OF CHEMICAL THEORY AND COMPUTATION, 8 (10), 3565-3573 (2012). 
 Linear Scaling Self-Consistent Field Calculations with Millions of Atoms
 in the Condensed Phase.
 https://dx.doi.org/10.1021/ct200897x


 VandeVondele, J; Hutter, J. 
 JOURNAL OF CHEMICAL PHYSICS, 127 (11), 114105 (2007). 
 Gaussian basis sets for accurate calculations on molecular systems in
 gas and condensed phases.
 https://dx.doi.org/10.1063/1.2770708


 Krack, M. 
 THEORETICAL CHEMISTRY ACCOUNTS, 114 (1-3), 145-152 (2005). 
 Pseudopotentials for H to Kr optimized for gradient-corrected
 exchange-correlation functionals.
 https://dx.doi.org/10.1007/s00214-005-0655-y


 VandeVondele, J; Krack, M; Mohamed, F; Parrinello, M; Chassaing, T;
 Hutter, J. COMPUTER PHYSICS COMMUNICATIONS, 167 (2), 103-128 (2005). 
 QUICKSTEP: Fast and accurate density functional calculations using a
 mixed Gaussian and plane waves approach.
 https://dx.doi.org/10.1016/j.cpc.2004.12.014


 Frigo, M; Johnson, SG. 
 PROCEEDINGS OF THE IEEE, 93 (2), 216-231 (2005). 
 The design and implementation of FFTW3.
 https://dx.doi.org/10.1109/JPROC.2004.840301


 Niklasson, AMN; Tymczak, CJ; Challacombe, M. 
 JOURNAL OF CHEMICAL PHYSICS, 118 (19), 8611-8620 (2003). 
 Trace resetting density matrix purification in O(N)
 self-consistent-field theory.
 https://dx.doi.org/10.1063/1.1559913


 Hartwigsen, C; Goedecker, S; Hutter, J. 
 PHYSICAL REVIEW B, 58 (7), 3641-3662 (1998). 
 Relativistic separable dual-space Gaussian pseudopotentials from H to Rn.
 https://dx.doi.org/10.1103/PhysRevB.58.3641


 Lippert, G; Hutter, J; Parrinello, M. 
 MOLECULAR PHYSICS, 92 (3), 477-487 (1997). 
 A hybrid Gaussian and plane wave density functional scheme.
 https://dx.doi.org/10.1080/002689797170220


 Perdew, JP; Burke, K; Ernzerhof, M. 
 PHYSICAL REVIEW LETTERS, 77 (18), 3865-3868 (1996). 
 Generalized gradient approximation made simple.
 https://dx.doi.org/10.1103/PhysRevLett.77.3865


 Goedecker, S; Teter, M; Hutter, J. 
 PHYSICAL REVIEW B, 54 (3), 1703-1710 (1996). 
 Separable dual-space Gaussian pseudopotentials.
 https://dx.doi.org/10.1103/PhysRevB.54.1703


 -------------------------------------------------------------------------------
 -                                                                             -
 -                                T I M I N G                                  -
 -                                                                             -
 -------------------------------------------------------------------------------
 SUBROUTINE                       CALLS  ASD         SELF TIME        TOTAL TIME
                                MAXIMUM       AVERAGE  MAXIMUM  AVERAGE  MAXIMUM
 CP2K                                 1  1.0    0.013    0.013   34.880   34.880
 qs_energies                          1  2.0    0.000    0.000   34.335   34.335
 ls_scf                               1  3.0    0.000    0.000   34.137   34.137
 ls_scf_main                          4  4.0    0.001    0.001   20.519   20.519
 ls_scf_dm_to_ks                      9  5.0    0.000    0.000   20.388   20.388
 qs_ks_update_qs_env                 10  6.0    0.000    0.000   15.808   15.808
 rebuild_ks_matrix                   10  7.0    0.000    0.000   15.807   15.807
 qs_ks_build_kohn_sham_matrix        10  8.0    0.001    0.001   15.807   15.807
 pao_update                           4  4.0    0.012    0.012   11.244   11.244
 pao_calc_energy                    413  5.0    0.005    0.005   10.126   10.126
 qs_vxc_create                       10  9.0    0.000    0.000    9.587    9.587
 xc_vxc_pw_create                    10 10.0    0.118    0.118    9.587    9.587
 dbcsr_multiply_generic           22374  8.4    0.521    0.521    8.681    8.681
 xc_rho_set_and_dset_create          10 11.0    0.037    0.037    7.082    7.082
 qs_rho_update_rho                   10  6.0    0.000    0.000    6.849    6.849
 calculate_rho_elec                  10  7.0    5.506    5.506    6.848    6.848
 pw_transfer                        191 10.6    0.012    0.012    6.329    6.329
 fft_wrap_pw1pw2                    171 11.7    0.002    0.002    6.246    6.246
 fft_wrap_pw1pw2_200                111 12.8    0.330    0.330    5.959    5.959
 sum_up_and_integrate                10  9.0    0.018    0.018    5.349    5.349
 integrate_v_rspace                  10 10.0    4.607    4.607    5.331    5.331
 pao_dm_trs4                        413  6.0    0.004    0.004    5.207    5.207
 xc_functional_eval                  10 12.0    0.000    0.000    5.044    5.044
 pbe_lda_eval                        10 13.0    5.044    5.044    5.044    5.044
 density_matrix_trs4                422  7.0    0.192    0.192    5.037    5.037
 ls_scf_init_matrix_S               417  7.0    0.007    0.007    4.913    4.913
 pao_rebuild_S                      413  6.0    0.003    0.003    4.871    4.871
 matrix_sqrt_Newton_Schulz          417  8.0    0.122    0.122    4.437    4.437
 multiply_cannon                  22374  9.4    1.378    1.378    4.090    4.090
 fft3d_s                            172 13.6    3.370    3.370    3.404    3.404
 make_m2s                         44748  9.4    0.198    0.198    2.771    2.771
 make_images                      44748 10.4    0.658    0.658    2.445    2.445
 pao_guess_initial_P                  1  4.0    0.000    0.000    2.276    2.276
 pao_read_preopt_dm                   1  5.0    0.000    0.000    2.276    2.276
 multiply_cannon_multrec          22374 10.4    1.451    1.451    1.581    1.581
 pw_gather_s                         81 13.1    1.414    1.414    1.414    1.414
 density_rs2pw                       10  8.0    0.001    0.001    1.326    1.326
 arnoldi_extremal                   839  8.5    0.005    0.005    1.233    1.233
 arnoldi_normal_ev                  839  9.5    0.014    0.014    1.229    1.229
 pao_calc_AB                        544  5.8    0.001    0.001    1.096    1.096
 pao_calc_AB_direct                 544  6.8    0.031    0.031    1.095    1.095
 pw_scatter_s                        90 14.2    1.083    1.083    1.083    1.083
 pao_calc_grad_lnv_wrt_AB           130  7.0    0.008    0.008    1.032    1.032
 build_subspace                     839 10.5    0.065    0.065    0.914    0.914
 dbcsr_matrix_vector_mult         20122 11.5    0.124    0.124    0.821    0.821
 dbcsr_finalize                   53095  9.6    0.129    0.129    0.796    0.796
 dbcsr_create_new                171140 10.7    0.399    0.399    0.753    0.753
 potential_pw2rs                     10 11.0    0.002    0.002    0.723    0.723
 -------------------------------------------------------------------------------

 The number of warnings for this run is : 0
 
 -------------------------------------------------------------------------------
  **** **** ******  **  PROGRAM ENDED AT                 2019-03-28 17:34:37.887
 ***** ** ***  *** **   PROGRAM RAN ON            oleschuett.zrh.corp.google.com
 **    ****   ******    PROGRAM RAN BY                                oleschuett
 ***** **    ** ** **   PROGRAM PROCESS ID                                 35797
  **** **  *******  **  PROGRAM STOPPED IN /usr/local/google/home/oleschuett/git
                                           /pao_ml_equivar/2H2O_rotations/rand_1
                                           1
