 DBCSR| CPU Multiplication driver                                           XSMM (U)
 DBCSR| Multrec recursion limit                                              512 (U)
 DBCSR| Multiplication stack size                                           1000 (D)
 DBCSR| Maximum elements for images                                    UNLIMITED (U)
 DBCSR| Multiplicative factor virtual images                                   1 (U)
 DBCSR| Use multiplication densification                                       T (D)
 DBCSR| Multiplication size stacks                                             3 (U)
 DBCSR| Use memory pool for CPU allocation                                     F (U)
 DBCSR| OMP: Current number of threads                                         1
 DBCSR| OMP: Max number of threads                                             1
 DBCSR| Split modifier for TAS multiplication algorithm                  1.0E+00 (U)


  **** **** ******  **  PROGRAM STARTED AT               2023-02-01 10:43:54.933
 ***** ** ***  *** **   PROGRAM STARTED ON                                moritz
 **    ****   ******    PROGRAM STARTED BY                                   ole
 ***** **    ** ** **   PROGRAM PROCESS ID                                148511
  **** **  *******  **  PROGRAM STARTED IN /home/ole/git/pao_ml_equivar/2H2O_rot
                                           ations/rand_11

 CP2K| version string:                 CP2K version 2023.1 (Development Version)
 CP2K| source code revision number:                                  git:03b4147
 CP2K| cp2kflags: omp libint fftw3 libxc quip xsmm spglib libvori libbqb libtorc
 CP2K|            h
 CP2K| is freely available from                            https://www.cp2k.org/
 CP2K| Program compiled at                           Mi 01 Feb 2023 10:36:52 CET
 CP2K| Program compiled on                                                moritz
 CP2K| Program compiled for                                                local
 CP2K| Data directory path                               /home/ole/git/cp2k/data
 CP2K| Input file name                                            2H2O_pao44.inp

 GLOBAL| Force Environment number                                              1
 GLOBAL| Basis set file name                                        BASIS_MOLOPT
 GLOBAL| Potential file name                                      GTH_POTENTIALS
 GLOBAL| MM Potential file name                                     MM_POTENTIAL
 GLOBAL| Coordinate file name                                         coords.xyz
 GLOBAL| Method name                                                        CP2K
 GLOBAL| Project name                                                 2H2O_pao44
 GLOBAL| Run type                                                         ENERGY
 GLOBAL| FFT library                                                       FFTW3
 GLOBAL| Diagonalization library                                       ScaLAPACK
 GLOBAL| DGEMM library                                                      BLAS
 GLOBAL| Orthonormality check for eigenvectors                          DISABLED
 GLOBAL| Matrix multiplication library                                 ScaLAPACK
 GLOBAL| All-to-all communication in single precision                          F
 GLOBAL| FFTs using library dependent lengths                                  F
 GLOBAL| Grid backend                                                       AUTO
 GLOBAL| Global print level                                                  LOW
 GLOBAL| MPI I/O enabled                                                       T
 GLOBAL| Total number of message passing processes                             1
 GLOBAL| Number of threads for this process                                    1
 GLOBAL| This output is from process                                           0
 GLOBAL| Stack size for threads created by OpenMP (OMP_STACKSIZE)        default
 GLOBAL| CPU model name           AMD Ryzen Threadripper 3970X 32-Core Processor
 GLOBAL| CPUID                                                              1002
 GLOBAL| Compiled for CPUID                                                    0

 *** HINT in environment.F:884 :: The compiler target flags (generic) used ***
 *** to build this binary cannot exploit all extensions of this CPU model  ***
 *** (x86_avx2). Consider compiler target flags as part of FCFLAGS and     ***
 *** CFLAGS (ARCH file).                                                   ***


 MEMORY| system memory details [Kb]
 MEMORY|                        rank 0           min           max       average
 MEMORY| MemTotal            131773860     131773860     131773860     131773860
 MEMORY| MemFree             115402780     115402780     115402780     115402780
 MEMORY| Buffers                301492        301492        301492        301492
 MEMORY| Cached                7000768       7000768       7000768       7000768
 MEMORY| Slab                   776600        776600        776600        776600
 MEMORY| SReclaimable           330700        330700        330700        330700
 MEMORY| MemLikelyFree       123035740     123035740     123035740     123035740


 GENERATE|  Preliminary Number of Bonds generated:                             0
 GENERATE|  Achieved consistency in connectivity generation.

 *******************************************************************************
 *******************************************************************************
 **                                                                           **
 **     #####                         ##              ##                      **
 **    ##   ##            ##          ##              ##                      **
 **   ##     ##                       ##            ######                    **
 **   ##     ##  ##   ##  ##   #####  ##  ##   ####   ##    #####    #####    **
 **   ##     ##  ##   ##  ##  ##      ## ##   ##      ##   ##   ##  ##   ##   **
 **   ##  ## ##  ##   ##  ##  ##      ####     ###    ##   ######   ######    **
 **    ##  ###   ##   ##  ##  ##      ## ##      ##   ##   ##       ##        **
 **     #######   #####   ##   #####  ##  ##  ####    ##    #####   ##        **
 **           ##                                                    ##        **
 **                                                                           **
 **                                                ... make the atoms dance   **
 **                                                                           **
 **            Copyright (C) by CP2K developers group (2000-2023)             **
 **                      J. Chem. Phys. 152, 194103 (2020)                    **
 **                                                                           **
 *******************************************************************************


 TOTAL NUMBERS AND MAXIMUM NUMBERS

  Total number of            - Atomic kinds:                                   2
                             - Atoms:                                          6
                             - Shell sets:                                     6
                             - Shells:                                        22
                             - Primitive Cartesian functions:                 42
                             - Cartesian basis functions:                     48
                             - Spherical basis functions:                     46

  Maximum angular momentum of- Orbital basis functions:                        2
                             - Local part of the GTH pseudopotential:          2
                             - Non-local part of the GTH pseudopotential:      0

 ------------------------------ Linear scaling SCF -----------------------------
 eps_scf:                                                              0.100E-07
 eps_filter:                                                           0.100E-07
 mixing_fraction:                                                      0.450E+00
 max_scf:                                                                     25
 fixed chemical potential (mu)                                                 F
 has unit metric:                                                              F
 Computing inv(S):                                                             T
 Computing sqrt(S):                                                            T
 Computing S preconditioner                                                    F
 S sqrt method:                                                     NEWTONSCHULZ
 S sqrt order:                                                                 3
 Extrapolation order:                                                          1
 Use single precision matrices                                                 F
 S preconditioner type                                                      NONE
 Polarized Atomic Orbitals (PAO)                                               T
 Purification method                                   Trace resetting 4th order
 Cluster type                                                             ATOMIC
 Computing Chebyshev                                                       FALSE
 Using PAO                                                                     T
 -------------------------------------------------------------------------------

 
 PAO|                                  EPS_PAO                           0.1E-04
 PAO|                                  MIXING                            0.5E+00
 PAO|                                  MAX_PAO                              1000
 PAO|                                  MAX_CYCLES                           1000
 PAO|                                  PARAMETERIZATION              EQUIVARIANT
 PAO|                                  PRECONDITION                            F
 PAO|                                  REGULARIZATION                    0.0E+00
 PAO|                                  EPS_PGF                           0.1E-09
 PAO|                                  PENALTY_DISTANCE                  0.1E+00
 PAO|                                  PENALTY_STRENGTH                  0.5E-02
 PAO|                                  LINPOT_PRECONDITION_DELTA         0.0E+00
 PAO|                                  LINPOT_INITGUESS_DELT             0.0E+00
 PAO|                                  LINPOT_REGULARIZATION_DELTA       0.0E+00
 PAO|                                  LINPOT_REGULARIZATION_STRENGTH    0.0E+00
 PAO|                                  OPTIMIZER                              CG
 PAO|                                  CG_INIT_STEPS                           2
 PAO|                                  CG_RESET_LIMIT                    0.1E+00
 PAO|                                  CHECK_UNITARY_TOL                -0.1E+01
 PAO|                                  CHECK_GRADIENT_TOL               -0.1E+01
 PAO|                                  NUM_GRADIENT_ORDER                      2
 PAO|                                  NUM_GRADIENT_EPS                  0.1E-07
 PAO|                                  PRINT%RESTART%WRITE_CYCLES            100
 PAO|                                  RESTART_FILE 
 PAO|                                  PREOPT_DM_FILE 2H2O_ref_LS_DM_SPIN_1_RESTART.dm
 PAO|                                  MACHINE_LEARNING%METHOD       GAUSSIAN_PR
 PAO|                                  MACHINE_LEARNING%PRIOR               ZERO
 PAO|                                  MACHINE_LEARNING%DESCRIPTOR     POTENTIAL
 PAO|                                  MACHINE_LEARNING%TOLERANCE        0.1E-01
 PAO|                                  MACHINE_LEARNING%GP_NOISE_VAR     0.1E+00
 PAO|                                  MACHINE_LEARNING%GP_SCALE         0.5E-01
 

 Calculating atomic Fock matrix for atomic kind: O

 Electronic structure
    Total number of core electrons                                          2.00
    Total number of valence electrons                                       6.00
    Total number of electrons                                               8.00
    Multiplicity                                                   not specified
    S   [  2.00] 2.00
    P      4.00


 *******************************************************************************
                  Iteration          Convergence                     Energy [au]
 *******************************************************************************
                          1        0.708315                     -15.576645311500
                          2        0.608879                     -15.587933561584
                          3        0.102828E-01                 -15.656849565404
                          4        0.113889E-02                 -15.656866888140
                          5        0.434197E-03                 -15.656867072159
                          6        0.263771E-03                 -15.656867091904
                          7        0.478536E-06                 -15.656867103452

 Energy components [Hartree]           Total Energy ::          -15.656867103452
                                        Band Energy ::           -3.000198112285
                                     Kinetic Energy ::           11.759971203220
                                   Potential Energy ::          -27.416838306672
                                      Virial (-V/T) ::            2.331369510426
                                        Core Energy ::          -26.140716385623
                                          XC Energy ::           -3.154051012914
                                     Coulomb Energy ::           13.637900295084
                       Total Pseudopotential Energy ::          -37.935781716540
                       Local Pseudopotential Energy ::          -39.218907440693
                    Nonlocal Pseudopotential Energy ::            1.283125724153
                                        Confinement ::            0.350941276976

 Orbital energies  State     L     Occupation   Energy[a.u.]          Energy[eV]

                       1     0          2.000      -0.864471          -23.523463

                       1     1          4.000      -0.317814           -8.648154


 Total Electron Density at R=0:                                         0.000068

 Calculating atomic Fock matrix for atomic kind: H

 Electronic structure
    Total number of core electrons                                          0.00
    Total number of valence electrons                                       1.00
    Total number of electrons                                               1.00
    Multiplicity                                                   not specified
    S      1.00


 *******************************************************************************
                  Iteration          Convergence                     Energy [au]
 *******************************************************************************
                          1        0.437545E-02                  -0.424159432110
                          2        0.531356E-03                  -0.424178438213
                          3        0.259176E-06                  -0.424178722480

 Energy components [Hartree]           Total Energy ::           -0.424178722480
                                        Band Energy ::           -0.199015229016
                                     Kinetic Energy ::            0.464007633961
                                   Potential Energy ::           -0.888186356441
                                      Virial (-V/T) ::            1.914163240935
                                        Core Energy ::           -0.479160803564
                                          XC Energy ::           -0.244352904054
                                     Coulomb Energy ::            0.299334985138
                       Total Pseudopotential Energy ::           -0.962295316385
                       Local Pseudopotential Energy ::           -0.962295316385
                    Nonlocal Pseudopotential Energy ::            0.000000000000
                                        Confinement ::            0.191268788606

 Orbital energies  State     L     Occupation   Energy[a.u.]          Energy[eV]

                       1     0          1.000      -0.199015           -5.415480


 Total Electron Density at R=0:                                         0.242907
 PAO| Made initial guess for matrix_X with norm:   4.8989794855663558     

     Lanczos converged:  T threshold:   0.100E-02
     Est. extremal eigenvalues:    0.336E+01   0.112E+00
     Est. condition number :    0.299E+02

 Order=           3
     NS sqrt iter    1 1.00000000   0.822E+00       0.001       55.386
     NS sqrt iter    2 1.00000000   0.440E+00       0.001       88.299
     NS sqrt iter    3 1.00000000   0.171E+00       0.001       80.926
     NS sqrt iter    4 1.00000000   0.209E-01       0.001       80.163
     NS sqrt iter    5 1.00000000   0.574E-04       0.001       95.232
     Symmetrizing Results
     Final NS sqrt iter    5 1.00000000   0.380E-08

 PAO| Read restart DM 2H2O_ref_LS_DM_SPIN_1_RESTART.dm with checksum:    65.351509626510662     
 PAO| Quickstep energy from restart density:  -34.450996191288482     
 PAO| ======================= Iteration:         1 =============================

     Lanczos converged:  T threshold:   0.100E-02
     Est. extremal eigenvalues:    0.336E+01   0.112E+00
     Est. condition number :    0.299E+02

 Order=           3
     NS sqrt iter    1 1.00000000   0.822E+00       0.001       59.611
     NS sqrt iter    2 1.00000000   0.440E+00       0.001      101.215
     NS sqrt iter    3 1.00000000   0.171E+00       0.001      101.236
     NS sqrt iter    4 1.00000000   0.209E-01       0.001      101.303
     NS sqrt iter    5 1.00000000   0.574E-04       0.001       86.734
     Symmetrizing Results
     Final NS sqrt iter    5 1.00000000   0.380E-08

     Est. extremal eigenvalues     -0.91946     1.91812  converged:  T
     TRS4 it   1 1.00000000   0.894E+00       0.000       16.128   0.100E-07
     TRS4 it   2 1.00000000   0.700E+00       0.001       32.256   0.100E-07
     TRS4 it   3 1.00000000   0.502E+00       0.001       32.256   0.100E-07
     TRS4 it   4 1.00000000   0.315E+00       0.001       32.256   0.100E-07
     TRS4 it   5 1.00000000   0.156E+00       0.001       32.256   0.100E-07
     TRS4 it   6 1.00000000   0.492E-01       0.001       32.256   0.100E-07
     TRS4 it   7 1.00000000   0.674E-02       0.001       32.256   0.100E-07
     TRS4 it   8 1.00000000   0.179E-03       0.001       32.256   0.100E-07
     TRS4 it   9 1.00000000   0.142E-06       0.001       32.256   0.100E-07
     TRS4 it  10 1.00000000   0.907E-13       0.001       32.256   0.100E-07
     Final TRS4 iteration   10 1.00000000   0.907E-13
     Chemical potential (mu):      -0.06433
 
 PAO| energy:  -7.6194995820734128      penalty:   6.7176436460226805E-033
 PAO|CG| warming up with steepest descent
 PAO|CG| beta:    0.0000000000000000     
 PAO| norm of gradient:  0.78366037503295827     
 PAO|LS| adapt:  T F F
 PAO|LS| adapt: scan_steps:    0.0000000000000000        0.0000000000000000        0.0000000000000000     
 PAO|LS| adapt: energies:   -7.6194995820734128        0.0000000000000000        0.0000000000000000     
 PAO| ======================= Iteration:         2 =============================

     Lanczos converged:  T threshold:   0.100E-02
     Est. extremal eigenvalues:    0.328E+01   0.125E+00
     Est. condition number :    0.262E+02

 Order=           3
     NS sqrt iter    1 1.00000000   0.805E+00       0.001       57.824
     NS sqrt iter    2 1.00000000   0.425E+00       0.001       99.427
     NS sqrt iter    3 1.00000000   0.153E+00       0.001       98.278
     NS sqrt iter    4 1.00000000   0.145E-01       0.001       98.856
     NS sqrt iter    5 1.00000000   0.191E-04       0.001       76.234
     Symmetrizing Results
     Final NS sqrt iter    5 1.00000000   0.562E-09

     Est. extremal eigenvalues     -0.92313     1.86556  converged:  T
     TRS4 it   1 1.00000000   0.892E+00       0.000       16.128   0.100E-07
     TRS4 it   2 1.00000000   0.683E+00       0.001       32.256   0.100E-07
     TRS4 it   3 1.00000000   0.487E+00       0.001       32.256   0.100E-07
     TRS4 it   4 1.00000000   0.296E+00       0.001       32.256   0.100E-07
     TRS4 it   5 1.00000000   0.138E+00       0.001       32.256   0.100E-07
     TRS4 it   6 1.00000000   0.383E-01       0.001       32.256   0.100E-07
     TRS4 it   7 1.00000000   0.412E-02       0.001       32.256   0.100E-07
     TRS4 it   8 1.00000000   0.672E-04       0.001       32.256   0.100E-07
     TRS4 it   9 1.00000000   0.201E-07       0.001       32.256   0.100E-07
     Final TRS4 iteration    9 1.00000000   0.201E-07
     Chemical potential (mu):      -0.05240
 
 PAO| energy:  -7.6750256836627653      penalty:   2.2520258406503680E-008
 PAO|LS| adapt:  T T F
 PAO|LS| adapt: scan_steps:    0.0000000000000000       0.10000000000000001        0.0000000000000000     
 PAO|LS| adapt: energies:   -7.6194995820734128       -7.6750256836627653        0.0000000000000000     
 PAO| ======================= Iteration:         3 =============================

     Lanczos converged:  T threshold:   0.100E-02
     Est. extremal eigenvalues:    0.319E+01   0.136E+00
     Est. condition number :    0.234E+02

 Order=           3
     NS sqrt iter    1 1.00000000   0.787E+00       0.001       57.998
     NS sqrt iter    2 1.00000000   0.408E+00       0.001       98.057
     NS sqrt iter    3 1.00000000   0.136E+00       0.001       98.515
     NS sqrt iter    4 1.00000000   0.101E-01       0.001       98.700
     NS sqrt iter    5 1.00000000   0.674E-05       0.001       76.502
     Symmetrizing Results
     Final NS sqrt iter    5 1.00000000   0.711E-10

     Est. extremal eigenvalues     -0.92656     1.82319  converged:  T
     TRS4 it   1 1.00000000   0.890E+00       0.000       16.128   0.100E-07
     TRS4 it   2 1.00000000   0.667E+00       0.001       32.256   0.100E-07
     TRS4 it   3 1.00000000   0.472E+00       0.001       32.256   0.100E-07
     TRS4 it   4 1.00000000   0.277E+00       0.001       32.256   0.100E-07
     TRS4 it   5 1.00000000   0.120E+00       0.001       32.256   0.100E-07
     TRS4 it   6 1.00000000   0.289E-01       0.001       32.256   0.100E-07
     TRS4 it   7 1.00000000   0.234E-02       0.001       32.256   0.100E-07
     TRS4 it   8 1.00000000   0.218E-04       0.001       32.256   0.100E-07
     TRS4 it   9 1.00000000   0.211E-08       0.001       32.256   0.100E-07
     Final TRS4 iteration    9 1.00000000   0.211E-08
     Chemical potential (mu):      -0.03951
 
 PAO| energy:  -7.7181174501166057      penalty:   3.6032437759945542E-007
 PAO|LS| adapt:  T T F
 PAO|LS| adapt: scan_steps:    0.0000000000000000       0.20000000000000001        0.0000000000000000     
 PAO|LS| adapt: energies:   -7.6194995820734128       -7.7181174501166057        0.0000000000000000     
 PAO| ======================= Iteration:         4 =============================

     Lanczos converged:  T threshold:   0.100E-02
     Est. extremal eigenvalues:    0.299E+01   0.154E+00
     Est. condition number :    0.195E+02

 Order=           3
     NS sqrt iter    1 1.00000000   0.750E+00       0.001       58.266
     NS sqrt iter    2 1.00000000   0.374E+00       0.001       97.453
     NS sqrt iter    3 1.00000000   0.107E+00       0.001       99.041
     NS sqrt iter    4 1.00000000   0.502E-02       0.001       98.274
     NS sqrt iter    5 1.00000000   0.103E-05       0.001       76.590
     Symmetrizing Results
     Final NS sqrt iter    5 1.00000000   0.181E-11

     Est. extremal eigenvalues     -0.93189     1.76119  converged:  T
     TRS4 it   1 1.00000000   0.888E+00       0.000       16.128   0.100E-07
     TRS4 it   2 1.00000000   0.641E+00       0.001       32.256   0.100E-07
     TRS4 it   3 1.00000000   0.445E+00       0.001       32.256   0.100E-07
     TRS4 it   4 1.00000000   0.241E+00       0.001       32.256   0.100E-07
     TRS4 it   5 1.00000000   0.891E-01       0.001       32.256   0.100E-07
     TRS4 it   6 1.00000000   0.154E-01       0.001       32.256   0.100E-07
     TRS4 it   7 1.00000000   0.633E-03       0.001       32.256   0.100E-07
     TRS4 it   8 1.00000000   0.154E-05       0.001       32.256   0.100E-07
     TRS4 it   9 1.00000000   0.105E-10       0.001       32.256   0.100E-07
     Final TRS4 iteration    9 1.00000000   0.105E-10
     Chemical potential (mu):      -0.01111
 
 PAO| energy:  -7.7653814670039960      penalty:   5.7651919863641291E-006
 PAO|LS| Need extra step
 PAO|LS| adapt:  T T F
 PAO|LS| adapt: scan_steps:    0.0000000000000000       0.40000000000000002        0.0000000000000000     
 PAO|LS| adapt: energies:   -7.6194995820734128       -7.7653814670039960        0.0000000000000000     
 PAO| ======================= Iteration:         5 =============================

     Lanczos converged:  T threshold:   0.100E-02
     Est. extremal eigenvalues:    0.264E+01   0.181E+00
     Est. condition number :    0.146E+02

 Order=           3
     NS sqrt iter    1 1.00000000   0.685E+00       0.001       58.004
     NS sqrt iter    2 1.00000000   0.312E+00       0.001       98.744
     NS sqrt iter    3 1.00000000   0.661E-01       0.001      100.123
     NS sqrt iter    4 1.00000000   0.141E-02       0.001       98.699
     NS sqrt iter    5 1.00000000   0.295E-07       0.001       55.418
     Symmetrizing Results
     Final NS sqrt iter    5 1.00000000   0.314E-08

     Est. extremal eigenvalues     -0.93314     1.69026  converged:  T
     TRS4 it   1 1.00000000   0.885E+00       0.000       16.128   0.100E-07
     TRS4 it   2 1.00000000   0.605E+00       0.001       32.256   0.100E-07
     TRS4 it   3 1.00000000   0.400E+00       0.001       32.256   0.100E-07
     TRS4 it   4 1.00000000   0.186E+00       0.001       32.256   0.100E-07
     TRS4 it   5 1.00000000   0.494E-01       0.001       32.256   0.100E-07
     TRS4 it   6 1.00000000   0.431E-02       0.001       32.256   0.100E-07
     TRS4 it   7 1.00000000   0.421E-04       0.001       32.256   0.100E-07
     TRS4 it   8 1.00000000   0.511E-08       0.001       32.256   0.100E-07
     Final TRS4 iteration    8 1.00000000   0.511E-08
     Chemical potential (mu):       0.03729
 
 PAO| energy:  -7.7106313601507486      penalty:   9.2243087340049910E-005
 PAO|LS| Need extra step
 PAO|LS| adapt:  T T T
 PAO|LS| adapt: scan_steps:    0.0000000000000000       0.40000000000000002       0.80000000000000004     
 PAO|LS| adapt: energies:   -7.6194995820734128       -7.7653814670039960       -7.7106313601507486     
 PAO|LS| adapt: suggested step_size:   0.49084471251775746     
 PAO|LS| adapt: predicted energy  -7.7705557421169136     
 PAO| ======================= Iteration:         6 =============================

     Lanczos converged:  T threshold:   0.100E-02
     Est. extremal eigenvalues:    0.290E+01   0.160E+00
     Est. condition number :    0.181E+02

 Order=           3
     NS sqrt iter    1 1.00000000   0.733E+00       0.001       59.229
     NS sqrt iter    2 1.00000000   0.358E+00       0.001       99.440
     NS sqrt iter    3 1.00000000   0.954E-01       0.001       99.656
     NS sqrt iter    4 1.00000000   0.372E-02       0.001       99.402
     NS sqrt iter    5 1.00000000   0.456E-06       0.001       77.665
     Symmetrizing Results
     Final NS sqrt iter    5 1.00000000   0.921E-11

     Est. extremal eigenvalues     -0.93338     1.74027  converged:  T
     TRS4 it   1 1.00000000   0.887E+00       0.000       16.128   0.100E-07
     TRS4 it   2 1.00000000   0.631E+00       0.001       32.256   0.100E-07
     TRS4 it   3 1.00000000   0.434E+00       0.001       32.256   0.100E-07
     TRS4 it   4 1.00000000   0.227E+00       0.001       32.256   0.100E-07
     TRS4 it   5 1.00000000   0.775E-01       0.001       32.256   0.100E-07
     TRS4 it   6 1.00000000   0.114E-01       0.001       32.256   0.100E-07
     TRS4 it   7 1.00000000   0.331E-03       0.001       32.256   0.100E-07
     TRS4 it   8 1.00000000   0.400E-06       0.001       32.256   0.100E-07
     TRS4 it   9 1.00000000   0.702E-12       0.001       32.256   0.100E-07
     Final TRS4 iteration    9 1.00000000   0.702E-12
     Chemical potential (mu):       0.00262
 
 PAO| energy:  -7.7698244555336133      penalty:   1.3072248776309845E-005
 PAO|CG| warming up with steepest descent
 PAO|CG| beta:    0.0000000000000000     
 PAO| norm of gradient:  0.41761898864417218     
 PAO| energy improvement: -0.15032487346020051     
 PAO| step      6                   -7.769824456  0.261E-01  0.491E+00     0.092
 PAO|LS| adapt:  T F F
 PAO|LS| adapt: scan_steps:    0.0000000000000000        0.0000000000000000        0.0000000000000000     
 PAO|LS| adapt: energies:   -7.7698244555336133        0.0000000000000000        0.0000000000000000     
 PAO| ======================= Iteration:         7 =============================

     Lanczos converged:  T threshold:   0.100E-02
     Est. extremal eigenvalues:    0.282E+01   0.174E+00
     Est. condition number :    0.162E+02

 Order=           3
     NS sqrt iter    1 1.00000000   0.716E+00       0.001       58.532
     NS sqrt iter    2 1.00000000   0.338E+00       0.001       99.977
     NS sqrt iter    3 1.00000000   0.798E-01       0.001       99.484
     NS sqrt iter    4 1.00000000   0.226E-02       0.001      100.683
     NS sqrt iter    5 1.00000000   0.114E-06       0.001       70.854
     Symmetrizing Results
     Final NS sqrt iter    5 1.00000000   0.113E-08

     Est. extremal eigenvalues     -0.93508     1.72599  converged:  T
     TRS4 it   1 1.00000000   0.886E+00       0.000       16.128   0.100E-07
     TRS4 it   2 1.00000000   0.629E+00       0.001       32.256   0.100E-07
     TRS4 it   3 1.00000000   0.433E+00       0.001       32.256   0.100E-07
     TRS4 it   4 1.00000000   0.228E+00       0.001       32.256   0.100E-07
     TRS4 it   5 1.00000000   0.782E-01       0.001       32.256   0.100E-07
     TRS4 it   6 1.00000000   0.113E-01       0.001       32.256   0.100E-07
     TRS4 it   7 1.00000000   0.309E-03       0.001       32.256   0.100E-07
     TRS4 it   8 1.00000000   0.331E-06       0.001       32.256   0.100E-07
     TRS4 it   9 1.00000000   0.472E-12       0.001       32.256   0.100E-07
     Final TRS4 iteration    9 1.00000000   0.472E-12
     Chemical potential (mu):       0.00467
 
 PAO| energy:  -7.7637309623346953      penalty:   1.9796243744451118E-005
 PAO|LS| adapt:  T F T
 PAO|LS| adapt: scan_steps:    0.0000000000000000        0.0000000000000000       0.49084471251775746     
 PAO|LS| adapt: energies:   -7.7698244555336133        0.0000000000000000       -7.7637309623346953     
 PAO| ======================= Iteration:         8 =============================

     Lanczos converged:  T threshold:   0.100E-02
     Est. extremal eigenvalues:    0.286E+01   0.167E+00
     Est. condition number :    0.171E+02

 Order=           3
     NS sqrt iter    1 1.00000000   0.725E+00       0.001       59.507
     NS sqrt iter    2 1.00000000   0.348E+00       0.001       99.434
     NS sqrt iter    3 1.00000000   0.874E-01       0.002       71.205
     NS sqrt iter    4 1.00000000   0.292E-02       0.001       99.882
     NS sqrt iter    5 1.00000000   0.232E-06       0.001       75.332
     Symmetrizing Results
     Final NS sqrt iter    5 1.00000000   0.645E-09

     Est. extremal eigenvalues     -0.93519     1.73255  converged:  T
     TRS4 it   1 1.00000000   0.886E+00       0.000       16.128   0.100E-07
     TRS4 it   2 1.00000000   0.630E+00       0.001       32.256   0.100E-07
     TRS4 it   3 1.00000000   0.433E+00       0.001       32.256   0.100E-07
     TRS4 it   4 1.00000000   0.227E+00       0.001       32.256   0.100E-07
     TRS4 it   5 1.00000000   0.776E-01       0.001       32.256   0.100E-07
     TRS4 it   6 1.00000000   0.114E-01       0.001       32.256   0.100E-07
     TRS4 it   7 1.00000000   0.328E-03       0.001       32.256   0.100E-07
     TRS4 it   8 1.00000000   0.386E-06       0.001       32.256   0.100E-07
     TRS4 it   9 1.00000000   0.650E-12       0.001       32.256   0.100E-07
     Final TRS4 iteration    9 1.00000000   0.650E-12
     Chemical potential (mu):       0.00318
 
 PAO| energy:  -7.7894620974489186      penalty:   1.4176033025449330E-005
 PAO|LS| adapt:  T T T
 PAO|LS| adapt: scan_steps:    0.0000000000000000       0.24542235625887873       0.49084471251775746     
 PAO|LS| adapt: energies:   -7.7698244555336133       -7.7894620974489186       -7.7637309623346953     
 PAO|LS| adapt: suggested step_size:   0.22894098342230679     
 PAO|LS| adapt: predicted energy  -7.7895643997970208     
 PAO| ======================= Iteration:         9 =============================

     Lanczos converged:  T threshold:   0.100E-02
     Est. extremal eigenvalues:    0.286E+01   0.167E+00
     Est. condition number :    0.172E+02

 Order=           3
     NS sqrt iter    1 1.00000000   0.725E+00       0.001       58.933
     NS sqrt iter    2 1.00000000   0.349E+00       0.001       99.270
     NS sqrt iter    3 1.00000000   0.880E-01       0.001      100.426
     NS sqrt iter    4 1.00000000   0.297E-02       0.001       99.744
     NS sqrt iter    5 1.00000000   0.244E-06       0.001       75.056
     Symmetrizing Results
     Final NS sqrt iter    5 1.00000000   0.676E-09

     Est. extremal eigenvalues     -0.93513     1.73303  converged:  T
     TRS4 it   1 1.00000000   0.886E+00       0.000       16.128   0.100E-07
     TRS4 it   2 1.00000000   0.630E+00       0.001       32.256   0.100E-07
     TRS4 it   3 1.00000000   0.433E+00       0.001       32.256   0.100E-07
     TRS4 it   4 1.00000000   0.227E+00       0.001       32.256   0.100E-07
     TRS4 it   5 1.00000000   0.776E-01       0.001       32.256   0.100E-07
     TRS4 it   6 1.00000000   0.114E-01       0.001       32.256   0.100E-07
     TRS4 it   7 1.00000000   0.329E-03       0.001       32.256   0.100E-07
     TRS4 it   8 1.00000000   0.388E-06       0.001       32.256   0.100E-07
     TRS4 it   9 1.00000000   0.658E-12       0.001       32.256   0.100E-07
     Final TRS4 iteration    9 1.00000000   0.658E-12
     Chemical potential (mu):       0.00312
 
 PAO| energy:  -7.7895890594504955      penalty:   1.3999805251279947E-005
 PAO|CG| trace_G_new    3.6885137769255262E-002
 PAO|CG| trace_G_prev   0.17440561967618121     
 PAO|CG| trace_G_mix   -1.4469726521079643E-003
 PAO|CG| trace_D   0.17440561967618121     
 PAO|CG| trace_D_Gnew   1.4469726521079643E-003
 PAO|CG| beta:   0.21978712894994110     
 PAO| norm of gradient:  0.19205503838549839     
 PAO| energy improvement:  -1.9764603916882173E-002
 PAO| step      9                   -7.789589059  0.120E-01  0.229E+00     0.058
 PAO|LS| adapt:  T F F
 PAO|LS| adapt: scan_steps:    0.0000000000000000        0.0000000000000000        0.0000000000000000     
 PAO|LS| adapt: energies:   -7.7895890594504955        0.0000000000000000        0.0000000000000000     
 PAO| ======================= Iteration:        10 =============================

     Lanczos converged:  T threshold:   0.100E-02
     Est. extremal eigenvalues:    0.283E+01   0.172E+00
     Est. condition number :    0.164E+02

 Order=           3
     NS sqrt iter    1 1.00000000   0.717E+00       0.001       59.336
     NS sqrt iter    2 1.00000000   0.341E+00       0.001       99.265
     NS sqrt iter    3 1.00000000   0.823E-01       0.001       97.835
     NS sqrt iter    4 1.00000000   0.245E-02       0.001      100.166
     NS sqrt iter    5 1.00000000   0.136E-06       0.001       72.919
     Symmetrizing Results
     Final NS sqrt iter    5 1.00000000   0.119E-08

     Est. extremal eigenvalues     -0.93602     1.72876  converged:  T
     TRS4 it   1 1.00000000   0.884E+00       0.000       16.128   0.100E-07
     TRS4 it   2 1.00000000   0.628E+00       0.001       32.256   0.100E-07
     TRS4 it   3 1.00000000   0.431E+00       0.001       32.256   0.100E-07
     TRS4 it   4 1.00000000   0.224E+00       0.001       32.256   0.100E-07
     TRS4 it   5 1.00000000   0.756E-01       0.001       32.256   0.100E-07
     TRS4 it   6 1.00000000   0.108E-01       0.001       32.256   0.100E-07
     TRS4 it   7 1.00000000   0.289E-03       0.001       32.256   0.100E-07
     TRS4 it   8 1.00000000   0.292E-06       0.001       32.256   0.100E-07
     TRS4 it   9 1.00000000   0.368E-12       0.001       32.256   0.100E-07
     Final TRS4 iteration    9 1.00000000   0.368E-12
     Chemical potential (mu):       0.00621
 
 PAO| energy:  -7.7946285481561244      penalty:   1.4536123645025677E-005
 PAO|LS| adapt:  T T F
 PAO|LS| adapt: scan_steps:    0.0000000000000000       0.22894098342230679        0.0000000000000000     
 PAO|LS| adapt: energies:   -7.7895890594504955       -7.7946285481561244        0.0000000000000000     
 PAO| ======================= Iteration:        11 =============================

     Lanczos converged:  T threshold:   0.100E-02
     Est. extremal eigenvalues:    0.279E+01   0.178E+00
     Est. condition number :    0.156E+02

 Order=           3
     NS sqrt iter    1 1.00000000   0.710E+00       0.001       58.598
     NS sqrt iter    2 1.00000000   0.332E+00       0.001       98.928
     NS sqrt iter    3 1.00000000   0.769E-01       0.001      100.148
     NS sqrt iter    4 1.00000000   0.200E-02       0.001       99.668
     NS sqrt iter    5 1.00000000   0.749E-07       0.001       68.084
     Symmetrizing Results
     Final NS sqrt iter    5 1.00000000   0.787E-09

     Est. extremal eigenvalues     -0.93594     1.72567  converged:  T
     TRS4 it   1 1.00000000   0.883E+00       0.000       16.128   0.100E-07
     TRS4 it   2 1.00000000   0.627E+00       0.001       32.256   0.100E-07
     TRS4 it   3 1.00000000   0.429E+00       0.001       32.256   0.100E-07
     TRS4 it   4 1.00000000   0.222E+00       0.001       32.256   0.100E-07
     TRS4 it   5 1.00000000   0.737E-01       0.001       32.256   0.100E-07
     TRS4 it   6 1.00000000   0.102E-01       0.001       32.256   0.100E-07
     TRS4 it   7 1.00000000   0.253E-03       0.001       32.256   0.100E-07
     TRS4 it   8 1.00000000   0.217E-06       0.001       32.256   0.100E-07
     TRS4 it   9 1.00000000   0.200E-12       0.001       32.256   0.100E-07
     Final TRS4 iteration    9 1.00000000   0.200E-12
     Chemical potential (mu):       0.00941
 
 PAO| energy:  -7.7932459908911724      penalty:   1.5739746052127533E-005
 PAO|LS| adapt:  T T T
 PAO|LS| adapt: scan_steps:    0.0000000000000000       0.22894098342230679       0.45788196684461357     
 PAO|LS| adapt: energies:   -7.7895890594504955       -7.7946285481561244       -7.7932459908911724     
 PAO|LS| adapt: suggested step_size:   0.29412437545747816     
 PAO|LS| adapt: predicted energy  -7.7948888458015917     
 PAO| ======================= Iteration:        12 =============================

     Lanczos converged:  T threshold:   0.100E-02
     Est. extremal eigenvalues:    0.282E+01   0.174E+00
     Est. condition number :    0.162E+02

 Order=           3
     NS sqrt iter    1 1.00000000   0.715E+00       0.001       59.224
     NS sqrt iter    2 1.00000000   0.338E+00       0.001       98.928
     NS sqrt iter    3 1.00000000   0.808E-01       0.001       99.763
     NS sqrt iter    4 1.00000000   0.231E-02       0.001       97.580
     NS sqrt iter    5 1.00000000   0.115E-06       0.001       71.126
     Symmetrizing Results
     Final NS sqrt iter    5 1.00000000   0.114E-08

     Est. extremal eigenvalues     -0.93610     1.72776  converged:  T
     TRS4 it   1 1.00000000   0.884E+00       0.000       16.128   0.100E-07
     TRS4 it   2 1.00000000   0.628E+00       0.001       32.256   0.100E-07
     TRS4 it   3 1.00000000   0.431E+00       0.001       32.256   0.100E-07
     TRS4 it   4 1.00000000   0.223E+00       0.001       32.256   0.100E-07
     TRS4 it   5 1.00000000   0.751E-01       0.001       32.256   0.100E-07
     TRS4 it   6 1.00000000   0.106E-01       0.001       32.256   0.100E-07
     TRS4 it   7 1.00000000   0.278E-03       0.001       32.256   0.100E-07
     TRS4 it   8 1.00000000   0.269E-06       0.001       32.256   0.100E-07
     TRS4 it   9 1.00000000   0.310E-12       0.001       32.256   0.100E-07
     Final TRS4 iteration    9 1.00000000   0.310E-12
     Chemical potential (mu):       0.00711
 
 PAO| energy:  -7.7948725705000363      penalty:   1.4803176543327219E-005
 PAO|CG| trace_G_new    1.1811777316484515E-002
 PAO|CG| trace_G_prev    3.6885137769255262E-002
 PAO|CG| trace_G_mix   -4.5549972200096362E-004
 PAO|CG| trace_D    4.4673990335607004E-002
 PAO|CG| trace_D_Gnew   2.0683966255739513E-004
 PAO|CG| beta:   0.33258048581048216     
 PAO| norm of gradient:  0.10868200088553999     
 PAO| energy improvement:  -5.2835110495408344E-003
 PAO| step     12                   -7.794872571  0.679E-02  0.294E+00     0.058
 PAO|LS| adapt:  T F F
 PAO|LS| adapt: scan_steps:    0.0000000000000000        0.0000000000000000        0.0000000000000000     
 PAO|LS| adapt: energies:   -7.7948725705000363        0.0000000000000000        0.0000000000000000     
 PAO| ======================= Iteration:        13 =============================

     Lanczos converged:  T threshold:   0.100E-02
     Est. extremal eigenvalues:    0.278E+01   0.178E+00
     Est. condition number :    0.156E+02

 Order=           3
     NS sqrt iter    1 1.00000000   0.708E+00       0.001       58.217
     NS sqrt iter    2 1.00000000   0.331E+00       0.001       99.213
     NS sqrt iter    3 1.00000000   0.764E-01       0.001      100.427
     NS sqrt iter    4 1.00000000   0.197E-02       0.001       99.168
     NS sqrt iter    5 1.00000000   0.722E-07       0.001       66.359
     Symmetrizing Results
     Final NS sqrt iter    5 1.00000000   0.774E-09

     Est. extremal eigenvalues     -0.93658     1.72148  converged:  T
     TRS4 it   1 1.00000000   0.883E+00       0.000       16.128   0.100E-07
     TRS4 it   2 1.00000000   0.625E+00       0.001       32.256   0.100E-07
     TRS4 it   3 1.00000000   0.427E+00       0.001       32.256   0.100E-07
     TRS4 it   4 1.00000000   0.219E+00       0.001       32.256   0.100E-07
     TRS4 it   5 1.00000000   0.716E-01       0.001       32.256   0.100E-07
     TRS4 it   6 1.00000000   0.956E-02       0.001       32.256   0.100E-07
     TRS4 it   7 1.00000000   0.224E-03       0.001       32.256   0.100E-07
     TRS4 it   8 1.00000000   0.170E-06       0.001       32.256   0.100E-07
     TRS4 it   9 1.00000000   0.121E-12       0.001       32.256   0.100E-07
     Final TRS4 iteration    9 1.00000000   0.121E-12
     Chemical potential (mu):       0.01160
 
 PAO| energy:  -7.7969431516566612      penalty:   1.5110333944473151E-005
 PAO|LS| adapt:  T T F
 PAO|LS| adapt: scan_steps:    0.0000000000000000       0.29412437545747816        0.0000000000000000     
 PAO|LS| adapt: energies:   -7.7948725705000363       -7.7969431516566612        0.0000000000000000     
 PAO| ======================= Iteration:        14 =============================

     Lanczos converged:  T threshold:   0.100E-02
     Est. extremal eigenvalues:    0.275E+01   0.182E+00
     Est. condition number :    0.151E+02

 Order=           3
     NS sqrt iter    1 1.00000000   0.701E+00       0.001       58.849
     NS sqrt iter    2 1.00000000   0.324E+00       0.001       99.503
     NS sqrt iter    3 1.00000000   0.723E-01       0.001       98.210
     NS sqrt iter    4 1.00000000   0.168E-02       0.001       99.182
     NS sqrt iter    5 1.00000000   0.452E-07       0.001       65.076
     Symmetrizing Results
     Final NS sqrt iter    5 1.00000000   0.360E-09

     Est. extremal eigenvalues     -0.93656     1.71547  converged:  T
     TRS4 it   1 1.00000000   0.883E+00       0.000       16.128   0.100E-07
     TRS4 it   2 1.00000000   0.622E+00       0.001       32.256   0.100E-07
     TRS4 it   3 1.00000000   0.423E+00       0.001       32.256   0.100E-07
     TRS4 it   4 1.00000000   0.214E+00       0.001       32.256   0.100E-07
     TRS4 it   5 1.00000000   0.682E-01       0.001       32.256   0.100E-07
     TRS4 it   6 1.00000000   0.864E-02       0.001       32.256   0.100E-07
     TRS4 it   7 1.00000000   0.180E-03       0.001       32.256   0.100E-07
     TRS4 it   8 1.00000000   0.107E-06       0.001       32.256   0.100E-07
     TRS4 it   9 1.00000000   0.483E-13       0.001       32.256   0.100E-07
     Final TRS4 iteration    9 1.00000000   0.483E-13
     Chemical potential (mu):       0.01599
 
 PAO| energy:  -7.7962971769552496      penalty:   1.5898849234241285E-005
 PAO|LS| adapt:  T T T
 PAO|LS| adapt: scan_steps:    0.0000000000000000       0.29412437545747816       0.58824875091495632     
 PAO|LS| adapt: energies:   -7.7948725705000363       -7.7969431516566612       -7.7962971769552496     
 PAO|LS| adapt: suggested step_size:   0.37124619915801443     
 PAO|LS| adapt: predicted energy  -7.7970365375310129     
 PAO| ======================= Iteration:        15 =============================

     Lanczos converged:  T threshold:   0.100E-02
     Est. extremal eigenvalues:    0.277E+01   0.179E+00
     Est. condition number :    0.155E+02

 Order=           3
     NS sqrt iter    1 1.00000000   0.706E+00       0.001       58.822
     NS sqrt iter    2 1.00000000   0.329E+00       0.001       98.439
     NS sqrt iter    3 1.00000000   0.753E-01       0.001      100.033
     NS sqrt iter    4 1.00000000   0.189E-02       0.001       98.915
     NS sqrt iter    5 1.00000000   0.639E-07       0.001       67.329
     Symmetrizing Results
     Final NS sqrt iter    5 1.00000000   0.641E-09

     Est. extremal eigenvalues     -0.93662     1.71988  converged:  T
     TRS4 it   1 1.00000000   0.883E+00       0.000       16.128   0.100E-07
     TRS4 it   2 1.00000000   0.624E+00       0.001       32.256   0.100E-07
     TRS4 it   3 1.00000000   0.426E+00       0.001       32.256   0.100E-07
     TRS4 it   4 1.00000000   0.217E+00       0.001       32.256   0.100E-07
     TRS4 it   5 1.00000000   0.707E-01       0.001       32.256   0.100E-07
     TRS4 it   6 1.00000000   0.931E-02       0.001       32.256   0.100E-07
     TRS4 it   7 1.00000000   0.211E-03       0.001       32.256   0.100E-07
     TRS4 it   8 1.00000000   0.150E-06       0.001       32.256   0.100E-07
     TRS4 it   9 1.00000000   0.950E-13       0.001       32.256   0.100E-07
     Final TRS4 iteration    9 1.00000000   0.950E-13
     Chemical potential (mu):       0.01277
 
 PAO| energy:  -7.7970334515851452      penalty:   1.5267463974792625E-005
 PAO|CG| trace_G_new    2.6268952903622821E-003
 PAO|CG| trace_G_prev    1.1811777316484515E-002
 PAO|CG| trace_G_mix    6.2592207121403117E-005
 PAO|CG| trace_D    1.6615575867848169E-002
 PAO|CG| trace_D_Gnew   3.4162263433006247E-005
 PAO|CG| beta:   0.21709714080557022     
 PAO| norm of gradient:   5.1253246632406442E-002
 PAO| energy improvement:  -2.1608810851088123E-003
 PAO| step     15                   -7.797033452  0.320E-02  0.371E+00     0.058
 PAO|LS| adapt:  T F F
 PAO|LS| adapt: scan_steps:    0.0000000000000000        0.0000000000000000        0.0000000000000000     
 PAO|LS| adapt: energies:   -7.7970334515851452        0.0000000000000000        0.0000000000000000     
 PAO| ======================= Iteration:        16 =============================

     Lanczos converged:  T threshold:   0.100E-02
     Est. extremal eigenvalues:    0.276E+01   0.180E+00
     Est. condition number :    0.153E+02

 Order=           3
     NS sqrt iter    1 1.00000000   0.704E+00       0.001       58.699
     NS sqrt iter    2 1.00000000   0.328E+00       0.001       99.247
     NS sqrt iter    3 1.00000000   0.746E-01       0.001       99.521
     NS sqrt iter    4 1.00000000   0.183E-02       0.001       99.128
     NS sqrt iter    5 1.00000000   0.579E-07       0.001       68.090
     Symmetrizing Results
     Final NS sqrt iter    5 1.00000000   0.597E-09

     Est. extremal eigenvalues     -0.93665     1.71902  converged:  T
     TRS4 it   1 1.00000000   0.883E+00       0.000       16.128   0.100E-07
     TRS4 it   2 1.00000000   0.623E+00       0.001       32.256   0.100E-07
     TRS4 it   3 1.00000000   0.424E+00       0.001       32.256   0.100E-07
     TRS4 it   4 1.00000000   0.216E+00       0.001       32.256   0.100E-07
     TRS4 it   5 1.00000000   0.695E-01       0.001       32.256   0.100E-07
     TRS4 it   6 1.00000000   0.901E-02       0.001       32.256   0.100E-07
     TRS4 it   7 1.00000000   0.199E-03       0.001       32.256   0.100E-07
     TRS4 it   8 1.00000000   0.135E-06       0.001       32.256   0.100E-07
     TRS4 it   9 1.00000000   0.772E-13       0.001       32.256   0.100E-07
     Final TRS4 iteration    9 1.00000000   0.772E-13
     Chemical potential (mu):       0.01359
 
 PAO| energy:  -7.7971575355059679      penalty:   1.5048689386366071E-005
 PAO|LS| adapt:  T T F
 PAO|LS| adapt: scan_steps:    0.0000000000000000       0.37124619915801443        0.0000000000000000     
 PAO|LS| adapt: energies:   -7.7970334515851452       -7.7971575355059679        0.0000000000000000     
 PAO| ======================= Iteration:        17 =============================

     Lanczos converged:  T threshold:   0.100E-02
     Est. extremal eigenvalues:    0.275E+01   0.181E+00
     Est. condition number :    0.152E+02

 Order=           3
     NS sqrt iter    1 1.00000000   0.702E+00       0.001       58.845
     NS sqrt iter    2 1.00000000   0.327E+00       0.001       99.667
     NS sqrt iter    3 1.00000000   0.739E-01       0.001       99.010
     NS sqrt iter    4 1.00000000   0.178E-02       0.001       99.139
     NS sqrt iter    5 1.00000000   0.526E-07       0.001       66.914
     Symmetrizing Results
     Final NS sqrt iter    5 1.00000000   0.547E-09

     Est. extremal eigenvalues     -0.93655     1.71822  converged:  T
     TRS4 it   1 1.00000000   0.883E+00       0.000       16.128   0.100E-07
     TRS4 it   2 1.00000000   0.623E+00       0.001       32.256   0.100E-07
     TRS4 it   3 1.00000000   0.423E+00       0.001       32.256   0.100E-07
     TRS4 it   4 1.00000000   0.214E+00       0.001       32.256   0.100E-07
     TRS4 it   5 1.00000000   0.683E-01       0.001       32.256   0.100E-07
     TRS4 it   6 1.00000000   0.873E-02       0.001       32.256   0.100E-07
     TRS4 it   7 1.00000000   0.188E-03       0.001       32.256   0.100E-07
     TRS4 it   8 1.00000000   0.121E-06       0.001       32.256   0.100E-07
     TRS4 it   9 1.00000000   0.618E-13       0.001       32.256   0.100E-07
     Final TRS4 iteration    9 1.00000000   0.618E-13
     Chemical potential (mu):       0.01440
 
 PAO| energy:  -7.7955792021688177      penalty:   1.4956873869283400E-005
 PAO|LS| adapt:  T T T
 PAO|LS| adapt: scan_steps:    0.0000000000000000       0.37124619915801443       0.74249239831602887     
 PAO|LS| adapt: energies:   -7.7970334515851452       -7.7971575355059679       -7.7955792021688177     
 PAO|LS| adapt: suggested step_size:   0.21268208512813147     
 PAO|LS| adapt: predicted energy  -7.7973128177491269     
 PAO| ======================= Iteration:        18 =============================

     Lanczos converged:  T threshold:   0.100E-02
     Est. extremal eigenvalues:    0.277E+01   0.180E+00
     Est. condition number :    0.154E+02

 Order=           3
     NS sqrt iter    1 1.00000000   0.705E+00       0.001       58.848
     NS sqrt iter    2 1.00000000   0.329E+00       0.001       99.458
     NS sqrt iter    3 1.00000000   0.749E-01       0.001       99.958
     NS sqrt iter    4 1.00000000   0.186E-02       0.001       98.909
     NS sqrt iter    5 1.00000000   0.604E-07       0.001       67.350
     Symmetrizing Results
     Final NS sqrt iter    5 1.00000000   0.611E-09

     Est. extremal eigenvalues     -0.93665     1.71938  converged:  T
     TRS4 it   1 1.00000000   0.883E+00       0.000       16.128   0.100E-07
     TRS4 it   2 1.00000000   0.624E+00       0.001       32.256   0.100E-07
     TRS4 it   3 1.00000000   0.425E+00       0.001       32.256   0.100E-07
     TRS4 it   4 1.00000000   0.217E+00       0.001       32.256   0.100E-07
     TRS4 it   5 1.00000000   0.700E-01       0.001       32.256   0.100E-07
     TRS4 it   6 1.00000000   0.914E-02       0.001       32.256   0.100E-07
     TRS4 it   7 1.00000000   0.204E-03       0.001       32.256   0.100E-07
     TRS4 it   8 1.00000000   0.141E-06       0.001       32.256   0.100E-07
     TRS4 it   9 1.00000000   0.842E-13       0.001       32.256   0.100E-07
     Final TRS4 iteration    9 1.00000000   0.842E-13
     Chemical potential (mu):       0.01324
 
 PAO| energy:  -7.7973123533689650      penalty:   1.5126878221534931E-005
 PAO|CG| trace_G_new    7.2899730454986016E-004
 PAO|CG| trace_G_prev    2.6268952903622821E-003
 PAO|CG| trace_G_mix    1.5971780755676496E-006
 PAO|CG| trace_D    3.3951737376484077E-003
 PAO|CG| trace_D_Gnew  -1.7445979687316836E-006
 PAO|CG| beta:   0.27690488050400169     
 PAO| norm of gradient:   2.6999950084210529E-002
 PAO| energy improvement:  -2.7890178381984043E-004
 PAO| step     18                   -7.797312353  0.169E-02  0.213E+00     0.058
 PAO|LS| adapt:  T F F
 PAO|LS| adapt: scan_steps:    0.0000000000000000        0.0000000000000000        0.0000000000000000     
 PAO|LS| adapt: energies:   -7.7973123533689650        0.0000000000000000        0.0000000000000000     
 PAO| ======================= Iteration:        19 =============================

     Lanczos converged:  T threshold:   0.100E-02
     Est. extremal eigenvalues:    0.277E+01   0.180E+00
     Est. condition number :    0.154E+02

 Order=           3
     NS sqrt iter    1 1.00000000   0.705E+00       0.001       58.824
     NS sqrt iter    2 1.00000000   0.329E+00       0.001       98.656
     NS sqrt iter    3 1.00000000   0.751E-01       0.001      100.202
     NS sqrt iter    4 1.00000000   0.186E-02       0.001       99.633
     NS sqrt iter    5 1.00000000   0.609E-07       0.001       68.041
     Symmetrizing Results
     Final NS sqrt iter    5 1.00000000   0.623E-09

     Est. extremal eigenvalues     -0.93665     1.71957  converged:  T
     TRS4 it   1 1.00000000   0.883E+00       0.000       16.128   0.100E-07
     TRS4 it   2 1.00000000   0.624E+00       0.001       32.256   0.100E-07
     TRS4 it   3 1.00000000   0.425E+00       0.001       32.256   0.100E-07
     TRS4 it   4 1.00000000   0.216E+00       0.001       32.256   0.100E-07
     TRS4 it   5 1.00000000   0.699E-01       0.001       32.256   0.100E-07
     TRS4 it   6 1.00000000   0.913E-02       0.001       32.256   0.100E-07
     TRS4 it   7 1.00000000   0.205E-03       0.001       32.256   0.100E-07
     TRS4 it   8 1.00000000   0.143E-06       0.001       32.256   0.100E-07
     TRS4 it   9 1.00000000   0.879E-13       0.001       32.256   0.100E-07
     Final TRS4 iteration    9 1.00000000   0.879E-13
     Chemical potential (mu):       0.01297
 
 PAO| energy:  -7.7974306992925628      penalty:   1.4837308850173415E-005
 PAO|LS| adapt:  T T F
 PAO|LS| adapt: scan_steps:    0.0000000000000000       0.21268208512813147        0.0000000000000000     
 PAO|LS| adapt: energies:   -7.7973123533689650       -7.7974306992925628        0.0000000000000000     
 PAO| ======================= Iteration:        20 =============================

     Lanczos converged:  T threshold:   0.100E-02
     Est. extremal eigenvalues:    0.277E+01   0.180E+00
     Est. condition number :    0.154E+02

 Order=           3
     NS sqrt iter    1 1.00000000   0.705E+00       0.001       59.044
     NS sqrt iter    2 1.00000000   0.329E+00       0.001       99.268
     NS sqrt iter    3 1.00000000   0.753E-01       0.001       99.556
     NS sqrt iter    4 1.00000000   0.187E-02       0.001       98.665
     NS sqrt iter    5 1.00000000   0.615E-07       0.001       67.429
     Symmetrizing Results
     Final NS sqrt iter    5 1.00000000   0.635E-09

     Est. extremal eigenvalues     -0.93665     1.71978  converged:  T
     TRS4 it   1 1.00000000   0.883E+00       0.000       16.128   0.100E-07
     TRS4 it   2 1.00000000   0.624E+00       0.001       32.256   0.100E-07
     TRS4 it   3 1.00000000   0.425E+00       0.001       32.256   0.100E-07
     TRS4 it   4 1.00000000   0.216E+00       0.001       32.256   0.100E-07
     TRS4 it   5 1.00000000   0.698E-01       0.001       32.256   0.100E-07
     TRS4 it   6 1.00000000   0.912E-02       0.001       32.256   0.100E-07
     TRS4 it   7 1.00000000   0.205E-03       0.001       32.256   0.100E-07
     TRS4 it   8 1.00000000   0.145E-06       0.001       32.256   0.100E-07
     TRS4 it   9 1.00000000   0.901E-13       0.001       32.256   0.100E-07
     Final TRS4 iteration    9 1.00000000   0.901E-13
     Chemical potential (mu):       0.01268
 
 PAO| energy:  -7.7974750489843423      penalty:   1.4560212041734182E-005
 PAO|LS| adapt:  T T F
 PAO|LS| adapt: scan_steps:    0.0000000000000000       0.42536417025626294        0.0000000000000000     
 PAO|LS| adapt: energies:   -7.7973123533689650       -7.7974750489843423        0.0000000000000000     
 PAO| ======================= Iteration:        21 =============================

     Lanczos converged:  T threshold:   0.100E-02
     Est. extremal eigenvalues:    0.277E+01   0.179E+00
     Est. condition number :    0.154E+02

 Order=           3
     NS sqrt iter    1 1.00000000   0.705E+00       0.001       58.751
     NS sqrt iter    2 1.00000000   0.329E+00       0.001       99.908
     NS sqrt iter    3 1.00000000   0.758E-01       0.001       99.665
     NS sqrt iter    4 1.00000000   0.189E-02       0.001       99.450
     NS sqrt iter    5 1.00000000   0.627E-07       0.001       68.069
     Symmetrizing Results
     Final NS sqrt iter    5 1.00000000   0.660E-09

     Est. extremal eigenvalues     -0.93664     1.72019  converged:  T
     TRS4 it   1 1.00000000   0.883E+00       0.000       16.128   0.100E-07
     TRS4 it   2 1.00000000   0.624E+00       0.001       32.256   0.100E-07
     TRS4 it   3 1.00000000   0.424E+00       0.001       32.256   0.100E-07
     TRS4 it   4 1.00000000   0.216E+00       0.001       32.256   0.100E-07
     TRS4 it   5 1.00000000   0.696E-01       0.001       32.256   0.100E-07
     TRS4 it   6 1.00000000   0.910E-02       0.001       32.256   0.100E-07
     TRS4 it   7 1.00000000   0.207E-03       0.001       32.256   0.100E-07
     TRS4 it   8 1.00000000   0.150E-06       0.001       32.256   0.100E-07
     TRS4 it   9 1.00000000   0.964E-13       0.001       32.256   0.100E-07
     Final TRS4 iteration    9 1.00000000   0.964E-13
     Chemical potential (mu):       0.01212
 
 PAO| energy:  -7.7973393637496695      penalty:   1.4042858623874371E-005
 PAO|LS| Need extra step
 PAO|LS| adapt:  T T T
 PAO|LS| adapt: scan_steps:    0.0000000000000000       0.42536417025626294       0.85072834051252588     
 PAO|LS| adapt: energies:   -7.7973123533689650       -7.7974750489843423       -7.7973393637496695     
 PAO|LS| adapt: suggested step_size:   0.44461682701147159     
 PAO|LS| adapt: predicted energy  -7.7974753546175055     
 PAO| ======================= Iteration:        22 =============================

     Lanczos converged:  T threshold:   0.100E-02
     Est. extremal eigenvalues:    0.277E+01   0.180E+00
     Est. condition number :    0.154E+02

 Order=           3
     NS sqrt iter    1 1.00000000   0.705E+00       0.001       58.811
     NS sqrt iter    2 1.00000000   0.329E+00       0.001      100.443
     NS sqrt iter    3 1.00000000   0.754E-01       0.001       99.751
     NS sqrt iter    4 1.00000000   0.187E-02       0.001       99.981
     NS sqrt iter    5 1.00000000   0.615E-07       0.001       67.923
     Symmetrizing Results
     Final NS sqrt iter    5 1.00000000   0.636E-09

     Est. extremal eigenvalues     -0.93665     1.71980  converged:  T
     TRS4 it   1 1.00000000   0.883E+00       0.000       16.128   0.100E-07
     TRS4 it   2 1.00000000   0.624E+00       0.001       32.256   0.100E-07
     TRS4 it   3 1.00000000   0.425E+00       0.001       32.256   0.100E-07
     TRS4 it   4 1.00000000   0.216E+00       0.001       32.256   0.100E-07
     TRS4 it   5 1.00000000   0.698E-01       0.001       32.256   0.100E-07
     TRS4 it   6 1.00000000   0.912E-02       0.001       32.256   0.100E-07
     TRS4 it   7 1.00000000   0.205E-03       0.001       32.256   0.100E-07
     TRS4 it   8 1.00000000   0.145E-06       0.001       32.256   0.100E-07
     TRS4 it   9 1.00000000   0.903E-13       0.001       32.256   0.100E-07
     Final TRS4 iteration    9 1.00000000   0.903E-13
     Chemical potential (mu):       0.01266
 
 PAO| energy:  -7.7974753906759648      penalty:   1.4535737904083188E-005
 PAO|CG| trace_G_new    2.2294088698542774E-004
 PAO|CG| trace_G_prev    7.2899730454986016E-004
 PAO|CG| trace_G_mix    3.0200519759317228E-006
 PAO|CG| trace_D    9.9029288361160667E-004
 PAO|CG| trace_D_Gnew  -1.8656041453182587E-006
 PAO|CG| beta:   0.30167578622981644     
 PAO| norm of gradient:   1.4931205141763599E-002
 PAO| energy improvement:  -1.6303730699984698E-004
 PAO| step     22                   -7.797475391  0.933E-03  0.445E+00     0.075
 PAO|LS| adapt:  T F F
 PAO|LS| adapt: scan_steps:    0.0000000000000000        0.0000000000000000        0.0000000000000000     
 PAO|LS| adapt: energies:   -7.7974753906759648        0.0000000000000000        0.0000000000000000     
 PAO| ======================= Iteration:        23 =============================

     Lanczos converged:  T threshold:   0.100E-02
     Est. extremal eigenvalues:    0.277E+01   0.180E+00
     Est. condition number :    0.154E+02

 Order=           3
     NS sqrt iter    1 1.00000000   0.705E+00       0.001       59.186
     NS sqrt iter    2 1.00000000   0.329E+00       0.001       97.256
     NS sqrt iter    3 1.00000000   0.754E-01       0.001       99.832
     NS sqrt iter    4 1.00000000   0.188E-02       0.001       98.600
     NS sqrt iter    5 1.00000000   0.615E-07       0.001       68.161
     Symmetrizing Results
     Final NS sqrt iter    5 1.00000000   0.640E-09

     Est. extremal eigenvalues     -0.93665     1.71958  converged:  T
     TRS4 it   1 1.00000000   0.883E+00       0.000       16.128   0.100E-07
     TRS4 it   2 1.00000000   0.624E+00       0.001       32.256   0.100E-07
     TRS4 it   3 1.00000000   0.425E+00       0.001       32.256   0.100E-07
     TRS4 it   4 1.00000000   0.216E+00       0.001       32.256   0.100E-07
     TRS4 it   5 1.00000000   0.699E-01       0.001       32.256   0.100E-07
     TRS4 it   6 1.00000000   0.916E-02       0.001       32.256   0.100E-07
     TRS4 it   7 1.00000000   0.208E-03       0.001       32.256   0.100E-07
     TRS4 it   8 1.00000000   0.149E-06       0.001       32.256   0.100E-07
     TRS4 it   9 1.00000000   0.956E-13       0.001       32.256   0.100E-07
     Final TRS4 iteration    9 1.00000000   0.956E-13
     Chemical potential (mu):       0.01234
 
 PAO| energy:  -7.7975248450808712      penalty:   1.3852743233755081E-005
 PAO|LS| adapt:  T T F
 PAO|LS| adapt: scan_steps:    0.0000000000000000       0.44461682701147159        0.0000000000000000     
 PAO|LS| adapt: energies:   -7.7974753906759648       -7.7975248450808712        0.0000000000000000     
 PAO| ======================= Iteration:        24 =============================

     Lanczos converged:  T threshold:   0.100E-02
     Est. extremal eigenvalues:    0.277E+01   0.180E+00
     Est. condition number :    0.154E+02

 Order=           3
     NS sqrt iter    1 1.00000000   0.705E+00       0.001       58.149
     NS sqrt iter    2 1.00000000   0.329E+00       0.001       99.206
     NS sqrt iter    3 1.00000000   0.755E-01       0.001       99.918
     NS sqrt iter    4 1.00000000   0.188E-02       0.001       99.540
     NS sqrt iter    5 1.00000000   0.615E-07       0.001       68.112
     Symmetrizing Results
     Final NS sqrt iter    5 1.00000000   0.644E-09

     Est. extremal eigenvalues     -0.93665     1.71937  converged:  T
     TRS4 it   1 1.00000000   0.883E+00       0.000       16.128   0.100E-07
     TRS4 it   2 1.00000000   0.624E+00       0.001       32.256   0.100E-07
     TRS4 it   3 1.00000000   0.425E+00       0.001       32.256   0.100E-07
     TRS4 it   4 1.00000000   0.216E+00       0.001       32.256   0.100E-07
     TRS4 it   5 1.00000000   0.700E-01       0.001       32.256   0.100E-07
     TRS4 it   6 1.00000000   0.920E-02       0.001       32.256   0.100E-07
     TRS4 it   7 1.00000000   0.210E-03       0.001       32.256   0.100E-07
     TRS4 it   8 1.00000000   0.153E-06       0.001       32.256   0.100E-07
     TRS4 it   9 1.00000000   0.100E-12       0.001       32.256   0.100E-07
     Final TRS4 iteration    9 1.00000000   0.100E-12
     Chemical potential (mu):       0.01202
 
 PAO| energy:  -7.7974738246413953      penalty:   1.3198162029163749E-005
 PAO|LS| adapt:  T T T
 PAO|LS| adapt: scan_steps:    0.0000000000000000       0.44461682701147159       0.88923365402294319     
 PAO|LS| adapt: energies:   -7.7974753906759648       -7.7975248450808712       -7.7974738246413953     
 PAO|LS| adapt: suggested step_size:   0.44115185363631015     
 PAO|LS| adapt: predicted energy  -7.7975248481319630     
 PAO| ======================= Iteration:        25 =============================

     Lanczos converged:  T threshold:   0.100E-02
     Est. extremal eigenvalues:    0.277E+01   0.180E+00
     Est. condition number :    0.154E+02

 Order=           3
     NS sqrt iter    1 1.00000000   0.705E+00       0.001       58.838
     NS sqrt iter    2 1.00000000   0.329E+00       0.001       99.592
     NS sqrt iter    3 1.00000000   0.754E-01       0.001       97.654
     NS sqrt iter    4 1.00000000   0.188E-02       0.001       99.322
     NS sqrt iter    5 1.00000000   0.615E-07       0.001       67.143
     Symmetrizing Results
     Final NS sqrt iter    5 1.00000000   0.640E-09

     Est. extremal eigenvalues     -0.93665     1.71959  converged:  T
     TRS4 it   1 1.00000000   0.883E+00       0.000       16.128   0.100E-07
     TRS4 it   2 1.00000000   0.624E+00       0.001       32.256   0.100E-07
     TRS4 it   3 1.00000000   0.425E+00       0.001       32.256   0.100E-07
     TRS4 it   4 1.00000000   0.216E+00       0.001       32.256   0.100E-07
     TRS4 it   5 1.00000000   0.699E-01       0.001       32.256   0.100E-07
     TRS4 it   6 1.00000000   0.916E-02       0.001       32.256   0.100E-07
     TRS4 it   7 1.00000000   0.208E-03       0.001       32.256   0.100E-07
     TRS4 it   8 1.00000000   0.149E-06       0.001       32.256   0.100E-07
     TRS4 it   9 1.00000000   0.948E-13       0.001       32.256   0.100E-07
     Final TRS4 iteration    9 1.00000000   0.948E-13
     Chemical potential (mu):       0.01234
 
 PAO| energy:  -7.7975248468915677      penalty:   1.3857955277563947E-005
 PAO|CG| trace_G_new    7.9714921569017512E-005
 PAO|CG| trace_G_prev    2.2294088698542774E-004
 PAO|CG| trace_G_mix    7.0455449195109961E-007
 PAO|CG| trace_D    3.1419135421122861E-004
 PAO|CG| trace_D_Gnew  -3.5793464737723586E-007
 PAO|CG| beta:   0.35440052358915580     
 PAO| norm of gradient:   8.9283213186476165E-003
 PAO| energy improvement:  -4.9456215602816656E-005
 PAO| step     25                   -7.797524847  0.558E-03  0.441E+00     0.058
 PAO|LS| adapt:  T F F
 PAO|LS| adapt: scan_steps:    0.0000000000000000        0.0000000000000000        0.0000000000000000     
 PAO|LS| adapt: energies:   -7.7975248468915677        0.0000000000000000        0.0000000000000000     
 PAO| ======================= Iteration:        26 =============================

     Lanczos converged:  T threshold:   0.100E-02
     Est. extremal eigenvalues:    0.277E+01   0.180E+00
     Est. condition number :    0.154E+02

 Order=           3
     NS sqrt iter    1 1.00000000   0.705E+00       0.001       58.240
     NS sqrt iter    2 1.00000000   0.329E+00       0.001       99.766
     NS sqrt iter    3 1.00000000   0.753E-01       0.001       99.465
     NS sqrt iter    4 1.00000000   0.187E-02       0.001       98.086
     NS sqrt iter    5 1.00000000   0.610E-07       0.001       67.999
     Symmetrizing Results
     Final NS sqrt iter    5 1.00000000   0.632E-09

     Est. extremal eigenvalues     -0.93665     1.71921  converged:  T
     TRS4 it   1 1.00000000   0.883E+00       0.000       16.128   0.100E-07
     TRS4 it   2 1.00000000   0.624E+00       0.001       32.256   0.100E-07
     TRS4 it   3 1.00000000   0.425E+00       0.001       32.256   0.100E-07
     TRS4 it   4 1.00000000   0.216E+00       0.001       32.256   0.100E-07
     TRS4 it   5 1.00000000   0.698E-01       0.001       32.256   0.100E-07
     TRS4 it   6 1.00000000   0.914E-02       0.001       32.256   0.100E-07
     TRS4 it   7 1.00000000   0.207E-03       0.001       32.256   0.100E-07
     TRS4 it   8 1.00000000   0.147E-06       0.001       32.256   0.100E-07
     TRS4 it   9 1.00000000   0.929E-13       0.001       32.256   0.100E-07
     Final TRS4 iteration    9 1.00000000   0.929E-13
     Chemical potential (mu):       0.01245
 
 PAO| energy:  -7.7975288571591683      penalty:   1.3136117677323519E-005
 PAO|LS| adapt:  T T F
 PAO|LS| adapt: scan_steps:    0.0000000000000000       0.44115185363631015        0.0000000000000000     
 PAO|LS| adapt: energies:   -7.7975248468915677       -7.7975288571591683        0.0000000000000000     
 PAO| ======================= Iteration:        27 =============================

     Lanczos converged:  T threshold:   0.100E-02
     Est. extremal eigenvalues:    0.277E+01   0.180E+00
     Est. condition number :    0.154E+02

 Order=           3
     NS sqrt iter    1 1.00000000   0.704E+00       0.001       59.069
     NS sqrt iter    2 1.00000000   0.329E+00       0.001       99.688
     NS sqrt iter    3 1.00000000   0.752E-01       0.001       98.807
     NS sqrt iter    4 1.00000000   0.186E-02       0.001       99.051
     NS sqrt iter    5 1.00000000   0.605E-07       0.001       67.933
     Symmetrizing Results
     Final NS sqrt iter    5 1.00000000   0.625E-09

     Est. extremal eigenvalues     -0.93666     1.71883  converged:  T
     TRS4 it   1 1.00000000   0.883E+00       0.000       16.128   0.100E-07
     TRS4 it   2 1.00000000   0.623E+00       0.001       32.256   0.100E-07
     TRS4 it   3 1.00000000   0.424E+00       0.001       32.256   0.100E-07
     TRS4 it   4 1.00000000   0.216E+00       0.001       32.256   0.100E-07
     TRS4 it   5 1.00000000   0.697E-01       0.001       32.256   0.100E-07
     TRS4 it   6 1.00000000   0.912E-02       0.001       32.256   0.100E-07
     TRS4 it   7 1.00000000   0.206E-03       0.001       32.256   0.100E-07
     TRS4 it   8 1.00000000   0.146E-06       0.001       32.256   0.100E-07
     TRS4 it   9 1.00000000   0.907E-13       0.001       32.256   0.100E-07
     Final TRS4 iteration    9 1.00000000   0.907E-13
     Chemical potential (mu):       0.01256
 
 PAO| energy:  -7.7974703344649310      penalty:   1.2437849250130439E-005
 PAO|LS| adapt:  T T T
 PAO|LS| adapt: scan_steps:    0.0000000000000000       0.44115185363631015       0.88230370727262031     
 PAO|LS| adapt: energies:   -7.7975248468915677       -7.7975288571591683       -7.7974703344649310     
 PAO|LS| adapt: suggested step_size:   0.24886719807111543     
 PAO|LS| adapt: predicted energy  -7.7975347972357509     
 PAO| ======================= Iteration:        28 =============================

     Lanczos converged:  T threshold:   0.100E-02
     Est. extremal eigenvalues:    0.277E+01   0.180E+00
     Est. condition number :    0.154E+02

 Order=           3
     NS sqrt iter    1 1.00000000   0.705E+00       0.001       59.132
     NS sqrt iter    2 1.00000000   0.329E+00       0.001       98.278
     NS sqrt iter    3 1.00000000   0.753E-01       0.001       99.665
     NS sqrt iter    4 1.00000000   0.187E-02       0.001      100.223
     NS sqrt iter    5 1.00000000   0.612E-07       0.001       67.106
     Symmetrizing Results
     Final NS sqrt iter    5 1.00000000   0.636E-09

     Est. extremal eigenvalues     -0.93665     1.71937  converged:  T
     TRS4 it   1 1.00000000   0.883E+00       0.000       16.128   0.100E-07
     TRS4 it   2 1.00000000   0.624E+00       0.001       32.256   0.100E-07
     TRS4 it   3 1.00000000   0.425E+00       0.001       32.256   0.100E-07
     TRS4 it   4 1.00000000   0.216E+00       0.001       32.256   0.100E-07
     TRS4 it   5 1.00000000   0.698E-01       0.001       32.256   0.100E-07
     TRS4 it   6 1.00000000   0.915E-02       0.001       32.256   0.100E-07
     TRS4 it   7 1.00000000   0.207E-03       0.001       32.256   0.100E-07
     TRS4 it   8 1.00000000   0.148E-06       0.001       32.256   0.100E-07
     TRS4 it   9 1.00000000   0.945E-13       0.001       32.256   0.100E-07
     Final TRS4 iteration    9 1.00000000   0.945E-13
     Chemical potential (mu):       0.01240
 
 PAO| energy:  -7.7975347870555920      penalty:   1.3447828166490538E-005
 PAO|CG| trace_G_new    3.1506808194345018E-005
 PAO|CG| trace_G_prev    7.9714921569017512E-005
 PAO|CG| trace_G_mix    4.6186926795456990E-008
 PAO|CG| trace_D    1.1943097563114303E-004
 PAO|CG| trace_D_Gnew  -2.2069017080776363E-008
 PAO|CG| beta:   0.39466414378029363     
 PAO| norm of gradient:   5.6130925695506767E-003
 PAO| energy improvement:  -9.9401640243357292E-006
 PAO| step     28                   -7.797534787  0.351E-03  0.249E+00     0.058
 PAO|LS| adapt:  T F F
 PAO|LS| adapt: scan_steps:    0.0000000000000000        0.0000000000000000        0.0000000000000000     
 PAO|LS| adapt: energies:   -7.7975347870555920        0.0000000000000000        0.0000000000000000     
 PAO| ======================= Iteration:        29 =============================

     Lanczos converged:  T threshold:   0.100E-02
     Est. extremal eigenvalues:    0.277E+01   0.180E+00
     Est. condition number :    0.154E+02

 Order=           3
     NS sqrt iter    1 1.00000000   0.705E+00       0.001       59.100
     NS sqrt iter    2 1.00000000   0.329E+00       0.001      100.268
     NS sqrt iter    3 1.00000000   0.753E-01       0.001       98.908
     NS sqrt iter    4 1.00000000   0.187E-02       0.001      100.125
     NS sqrt iter    5 1.00000000   0.611E-07       0.001       68.479
     Symmetrizing Results
     Final NS sqrt iter    5 1.00000000   0.631E-09

     Est. extremal eigenvalues     -0.93666     1.71927  converged:  T
     TRS4 it   1 1.00000000   0.883E+00       0.000       16.128   0.100E-07
     TRS4 it   2 1.00000000   0.624E+00       0.001       32.256   0.100E-07
     TRS4 it   3 1.00000000   0.425E+00       0.001       32.256   0.100E-07
     TRS4 it   4 1.00000000   0.216E+00       0.001       32.256   0.100E-07
     TRS4 it   5 1.00000000   0.697E-01       0.001       32.256   0.100E-07
     TRS4 it   6 1.00000000   0.912E-02       0.001       32.256   0.100E-07
     TRS4 it   7 1.00000000   0.206E-03       0.001       32.256   0.100E-07
     TRS4 it   8 1.00000000   0.146E-06       0.001       32.256   0.100E-07
     TRS4 it   9 1.00000000   0.918E-13       0.001       32.256   0.100E-07
     Final TRS4 iteration    9 1.00000000   0.918E-13
     Chemical potential (mu):       0.01253
 
 PAO| energy:  -7.7975416986878638      penalty:   1.3018526633176403E-005
 PAO|LS| adapt:  T T F
 PAO|LS| adapt: scan_steps:    0.0000000000000000       0.24886719807111543        0.0000000000000000     
 PAO|LS| adapt: energies:   -7.7975347870555920       -7.7975416986878638        0.0000000000000000     
 PAO| ======================= Iteration:        30 =============================

     Lanczos converged:  T threshold:   0.100E-02
     Est. extremal eigenvalues:    0.277E+01   0.180E+00
     Est. condition number :    0.154E+02

 Order=           3
     NS sqrt iter    1 1.00000000   0.704E+00       0.001       59.093
     NS sqrt iter    2 1.00000000   0.329E+00       0.001       99.060
     NS sqrt iter    3 1.00000000   0.752E-01       0.001       99.514
     NS sqrt iter    4 1.00000000   0.187E-02       0.001       99.193
     NS sqrt iter    5 1.00000000   0.609E-07       0.001       67.797
     Symmetrizing Results
     Final NS sqrt iter    5 1.00000000   0.628E-09

     Est. extremal eigenvalues     -0.93666     1.71917  converged:  T
     TRS4 it   1 1.00000000   0.883E+00       0.000       16.128   0.100E-07
     TRS4 it   2 1.00000000   0.623E+00       0.001       32.256   0.100E-07
     TRS4 it   3 1.00000000   0.424E+00       0.001       32.256   0.100E-07
     TRS4 it   4 1.00000000   0.216E+00       0.001       32.256   0.100E-07
     TRS4 it   5 1.00000000   0.696E-01       0.001       32.256   0.100E-07
     TRS4 it   6 1.00000000   0.910E-02       0.001       32.256   0.100E-07
     TRS4 it   7 1.00000000   0.205E-03       0.001       32.256   0.100E-07
     TRS4 it   8 1.00000000   0.145E-06       0.001       32.256   0.100E-07
     TRS4 it   9 1.00000000   0.899E-13       0.001       32.256   0.100E-07
     Final TRS4 iteration    9 1.00000000   0.899E-13
     Chemical potential (mu):       0.01265
 
 PAO| energy:  -7.7975467429826271      penalty:   1.2596987242632609E-005
 PAO|LS| adapt:  T T F
 PAO|LS| adapt: scan_steps:    0.0000000000000000       0.49773439614223086        0.0000000000000000     
 PAO|LS| adapt: energies:   -7.7975347870555920       -7.7975467429826271        0.0000000000000000     
 PAO| ======================= Iteration:        31 =============================

     Lanczos converged:  T threshold:   0.100E-02
     Est. extremal eigenvalues:    0.276E+01   0.180E+00
     Est. condition number :    0.154E+02

 Order=           3
     NS sqrt iter    1 1.00000000   0.704E+00       0.001       59.353
     NS sqrt iter    2 1.00000000   0.328E+00       0.001       99.226
     NS sqrt iter    3 1.00000000   0.751E-01       0.001       98.910
     NS sqrt iter    4 1.00000000   0.186E-02       0.001       98.504
     NS sqrt iter    5 1.00000000   0.606E-07       0.001       68.552
     Symmetrizing Results
     Final NS sqrt iter    5 1.00000000   0.622E-09

     Est. extremal eigenvalues     -0.93666     1.71897  converged:  T
     TRS4 it   1 1.00000000   0.883E+00       0.000       16.128   0.100E-07
     TRS4 it   2 1.00000000   0.623E+00       0.001       32.256   0.100E-07
     TRS4 it   3 1.00000000   0.424E+00       0.001       32.256   0.100E-07
     TRS4 it   4 1.00000000   0.216E+00       0.001       32.256   0.100E-07
     TRS4 it   5 1.00000000   0.695E-01       0.001       32.256   0.100E-07
     TRS4 it   6 1.00000000   0.906E-02       0.001       32.256   0.100E-07
     TRS4 it   7 1.00000000   0.203E-03       0.001       32.256   0.100E-07
     TRS4 it   8 1.00000000   0.141E-06       0.001       32.256   0.100E-07
     TRS4 it   9 1.00000000   0.850E-13       0.001       32.256   0.100E-07
     Final TRS4 iteration    9 1.00000000   0.850E-13
     Chemical potential (mu):       0.01290
 
 PAO| energy:  -7.7975512349484974      penalty:   1.1777038985147261E-005
 PAO|LS| Need extra step
 PAO|LS| adapt:  T T F
 PAO|LS| adapt: scan_steps:    0.0000000000000000       0.99546879228446172        0.0000000000000000     
 PAO|LS| adapt: energies:   -7.7975347870555920       -7.7975512349484974        0.0000000000000000     
 PAO| ======================= Iteration:        32 =============================

     Lanczos converged:  T threshold:   0.100E-02
     Est. extremal eigenvalues:    0.276E+01   0.180E+00
     Est. condition number :    0.154E+02

 Order=           3
[...]
     NS sqrt iter    1 1.00000000   0.631E+00       0.001       59.443
     NS sqrt iter    2 1.00000000   0.274E+00       0.001       98.661
     NS sqrt iter    3 1.00000000   0.484E-01       0.001      100.778
     NS sqrt iter    4 1.00000000   0.749E-03       0.001      100.875
     NS sqrt iter    5 1.00000000   0.551E-08       0.001       37.809
     Symmetrizing Results
     Final NS sqrt iter    5 1.00000000   0.324E-09

     Est. extremal eigenvalues     -0.93634     1.62949  converged:  T
     TRS4 it   1 1.00000000   0.880E+00       0.000       16.128   0.100E-07
     TRS4 it   2 1.00000000   0.633E+00       0.001       32.256   0.100E-07
     TRS4 it   3 1.00000000   0.454E+00       0.001       32.256   0.100E-07
     TRS4 it   4 1.00000000   0.276E+00       0.001       32.256   0.100E-07
     TRS4 it   5 1.00000000   0.136E+00       0.001       32.256   0.100E-07
     TRS4 it   6 1.00000000   0.418E-01       0.001       32.256   0.100E-07
     TRS4 it   7 1.00000000   0.548E-02       0.001       32.256   0.100E-07
     TRS4 it   8 1.00000000   0.126E-03       0.001       32.256   0.100E-07
     TRS4 it   9 1.00000000   0.717E-07       0.001       32.256   0.100E-07
     Final TRS4 iteration    9 1.00000000   0.717E-07
     Chemical potential (mu):      -0.07345
 
 PAO| energy:  -7.7965447783952033      penalty:   2.9740329290590984E-008
 PAO|CG| warming up with steepest descent
 PAO|CG| beta:    0.0000000000000000     
 PAO| norm of gradient:   1.3460330379510204E-004
 PAO| energy improvement:  -5.5225291006877342E-009
 PAO| step    413                   -7.796544778  0.841E-05  0.265E+00     0.076
 PAO| converged after          413  steps :-)
 PAO| Recalculating energy after mixing.

     Lanczos converged:  T threshold:   0.100E-02
     Est. extremal eigenvalues:    0.249E+01   0.191E+00
     Est. condition number :    0.130E+02

 Order=           3
     NS sqrt iter    1 1.00000000   0.631E+00       0.001       64.512
     NS sqrt iter    2 1.00000000   0.274E+00       0.001      110.592
     NS sqrt iter    3 1.00000000   0.484E-01       0.001      110.592
     NS sqrt iter    4 1.00000000   0.749E-03       0.001      110.592
     NS sqrt iter    5 1.00000000   0.551E-08       0.001       38.272
     Symmetrizing Results
     Final NS sqrt iter    5 1.00000000   0.324E-09

     Est. extremal eigenvalues     -0.93634     1.62949  converged:  T
     TRS4 it   1 1.00000000   0.880E+00       0.000       16.128   0.100E-07
     TRS4 it   2 1.00000000   0.633E+00       0.001       32.256   0.100E-07
     TRS4 it   3 1.00000000   0.454E+00       0.001       32.256   0.100E-07
     TRS4 it   4 1.00000000   0.276E+00       0.001       32.256   0.100E-07
     TRS4 it   5 1.00000000   0.136E+00       0.001       32.256   0.100E-07
     TRS4 it   6 1.00000000   0.418E-01       0.001       32.256   0.100E-07
     TRS4 it   7 1.00000000   0.548E-02       0.001       32.256   0.100E-07
     TRS4 it   8 1.00000000   0.126E-03       0.001       32.256   0.100E-07
     TRS4 it   9 1.00000000   0.717E-07       0.001       32.256   0.100E-07
     Final TRS4 iteration    9 1.00000000   0.717E-07
     Chemical potential (mu):      -0.07345
 
 PAO| energy:  -7.7965447770145468      penalty:   3.0059175812238810E-008
 PAO| Writing restart file.
     Est. extremal eigenvalues     -0.93634     1.62949  converged:  T
     TRS4 it   1 1.00000000   0.880E+00       0.001       16.128   0.100E-07
     TRS4 it   2 1.00000000   0.633E+00       0.001       32.256   0.100E-07
     TRS4 it   3 1.00000000   0.454E+00       0.001       32.256   0.100E-07
     TRS4 it   4 1.00000000   0.276E+00       0.001       32.256   0.100E-07
     TRS4 it   5 1.00000000   0.136E+00       0.001       32.256   0.100E-07
     TRS4 it   6 1.00000000   0.418E-01       0.001       32.256   0.100E-07
     TRS4 it   7 1.00000000   0.548E-02       0.001       32.256   0.100E-07
     TRS4 it   8 1.00000000   0.126E-03       0.001       32.256   0.100E-07
     TRS4 it   9 1.00000000   0.717E-07       0.001       32.256   0.100E-07
     Final TRS4 iteration    9 1.00000000   0.717E-07
     Chemical potential (mu):      -0.07345

 SCF     1       -34.450453993       -34.450453993    2.307049

*********************************************************
 Using MIXING_FRACTION=0.450 to mix KS matrix:  iscf=  2
 KS_nw=0.450*KS + 0.550*KS_old
*********************************************************
     Est. extremal eigenvalues     -0.93634     1.62949  converged:  T
     TRS4 it   1 1.00000000   0.880E+00       0.000       16.128   0.100E-07
     TRS4 it   2 1.00000000   0.633E+00       0.000       32.256   0.100E-07
     TRS4 it   3 1.00000000   0.454E+00       0.000       32.256   0.100E-07
     TRS4 it   4 1.00000000   0.276E+00       0.000       32.256   0.100E-07
     TRS4 it   5 1.00000000   0.136E+00       0.000       32.256   0.100E-07
     TRS4 it   6 1.00000000   0.418E-01       0.000       32.256   0.100E-07
     TRS4 it   7 1.00000000   0.548E-02       0.000       32.256   0.100E-07
     TRS4 it   8 1.00000000   0.126E-03       0.000       32.256   0.100E-07
     TRS4 it   9 1.00000000   0.717E-07       0.000       32.256   0.100E-07
     Final TRS4 iteration    9 1.00000000   0.717E-07
     Chemical potential (mu):      -0.07345

 SCF     2       -34.450453993        -0.000000000    1.558291


 SCF run converged in     2 steps.

 PAO| Storing density matrix for ASPC guess in slot:           1

 ENERGY| Total FORCE_EVAL ( QS ) energy [a.u.]:              -34.450453993196803

 -------------------------------------------------------------------------------
 -                                                                             -
 -                                DBCSR STATISTICS                             -
 -                                                                             -
 -------------------------------------------------------------------------------
 COUNTER                                    TOTAL       BLAS       SMM       ACC
 flops     5 x     5 x     4                20000       0.0%    100.0%      0.0%
 flops    13 x     5 x     4                20800       0.0%    100.0%      0.0%
 flops     5 x    13 x     4                20800       0.0%    100.0%      0.0%
 flops    13 x    13 x     4                40560       0.0%    100.0%      0.0%
 flops     4 x     4 x     5              3244800       0.0%    100.0%      0.0%
 flops     5 x     4 x     5              3961600       0.0%    100.0%      0.0%
 flops     4 x     4 x    13              4218240       0.0%    100.0%      0.0%
 flops    13 x     4 x     5              5150080       0.0%    100.0%      0.0%
 flops     5 x     4 x    13              5150080       0.0%    100.0%      0.0%
 flops     5 x     4 x     4              6581600       0.0%    100.0%      0.0%
 flops    13 x     4 x    13              6695104       0.0%    100.0%      0.0%
 flops    13 x     4 x     4              8872032       0.0%    100.0%      0.0%
 flops     4 x     4 x     4            413499776       0.0%    100.0%      0.0%
 flops inhomo. stacks                           0       0.0%      0.0%      0.0%
 flops total                       457.475472E+06       0.0%    100.0%      0.0%
 flops max/rank                    457.475472E+06       0.0%    100.0%      0.0%
 matmuls inhomo. stacks                         0       0.0%      0.0%      0.0%
 matmuls total                            3368127       0.0%    100.0%      0.0%
 number of processed stacks                 26902       0.0%    100.0%      0.0%
 average stack size                                     0.0     125.2       0.0
 marketing flops                   742.201344E+06
 -------------------------------------------------------------------------------
 # multiplications                          22364
 max memory usage/rank             506.724352E+06
 # max total images/rank                        1
 # max 3D layers                                1
 # MPI messages exchanged                       0
 -------------------------------------------------------------------------------

 -------------------------------------------------------------------------------
 -                                                                             -
 -                                DBM STATISTICS                               -
 -                                                                             -
 -------------------------------------------------------------------------------
    M  x    N  x    K                                          COUNT     PERCENT
 -------------------------------------------------------------------------------

 -------------------------------------------------------------------------------
 -                                                                             -
 -                                GRID STATISTICS                              -
 -                                                                             -
 -------------------------------------------------------------------------------
 LP    KERNEL             BACKEND                              COUNT     PERCENT
 2     collocate ortho    REF                                  38010      30.76%
 2     integrate ortho    REF                                  38010      30.76%
 3     collocate ortho    REF                                  19600      15.86%
 3     integrate ortho    REF                                  19600      15.86%
 4     collocate ortho    REF                                   4180       3.38%
 4     integrate ortho    REF                                   4180       3.38%
 0     collocate general  REF                                      6       0.00%
 -------------------------------------------------------------------------------

 MEMORY| Estimated peak process memory [MiB]                                 484

 -------------------------------------------------------------------------------
 -                                                                             -
 -                           R E F E R E N C E S                               -
 -                                                                             -
 -------------------------------------------------------------------------------
 
 CP2K version 2023.1 (Development Version), the CP2K developers group (2023).
 CP2K is freely available from https://www.cp2k.org/ .

 Kuehne,Thomas D.; Iannuzzi,Marcella; Del Ben,Mauro;
 Rybkin,Vladimir V.; Seewald,Patrick; Stein,Frederick; Laino,Teodoro;
 Khaliullin,Rustam Z.; Schuett,Ole; Schiffmann,Florian; Golze,Dorothea;
 Wilhelm,Jan; Chulkov,Sergey; Bani-Hashemian,Mohammad Hossein;
 Weber,Valery; Borstnik,Urban; Taillefumier,Mathieu;
 Jakobovits,Alice Shoshana; Lazzaro,Alfio; Pabst,Hans; Mueller,Tiziano;
 Schade,Robert; Guidon,Manuel; Andermatt,Samuel; Holmberg,Nico;
 Schenter,Gregory K.; Hehn,Anna; Bussy,Augustin; Belleflamme,Fabian;
 Tabacchi,Gloria; Gloess,Andreas; Lass,Michael; Bethune,Iain;
 Mundy,Christopher J.; Plessl,Christian; Watkins,Matt;
 VandeVondele,Joost; Krack,Matthias; Hutter,Juerg. 
 The Journal of Chemical Physics, 152 (19), (2020). 
 CP2K: An electronic structure and molecular dynamics software package -
 Quickstep: Efficient and accurate electronic structure calculations.
 https://doi.org/10.1063/5.0007045

 Schuett, O; VandeVondele, J. 
 Journal of Chemical Theory and Computation, 14, (2018). 
 Machine Learning Adaptive Basis Sets for Efficient Large Scale
 Density Functional Theory Simulation.
 https://doi.org/10.1021/acs.jctc.8b00378

 Schuett, Ole; Messmer, Peter; Hutter, Juerg; VandeVondele, Joost. 
 Electronic Structure Calculations on Graphics Processing Units, John
 Wiley & Sons, Ltd, 173-190 (2016). 
 GPU-Accelerated Sparse Matrix-Matrix Multiplication for
 Linear Scaling Density Functional Theory.
 https://doi.org/10.1002/9781118670712.ch8

 Heinecke, A; Henry, G; Hutchinson, M; Pabst, H. 
 Proceedings of Intl. Supercomputing Conference, 981-991 (2016). 
 LIBXSMM: Accelerating Small Matrix Multiplications
 by Runtime Code Generation.
 https://doi.org/10.1109/SC.2016.83

 Borstnik, U; VandeVondele, J; Weber, V; Hutter, J. 
 PARALLEL COMPUTING, 40 (5-6), 47-58 (2014). 
 Sparse matrix multiplication: The distributed block-compressed sparse
 row library.
 https://doi.org/10.1016/j.parco.2014.03.012

 Hutter, J; Iannuzzi, M; Schiffmann, F; VandeVondele, J. 
 WIREs Comput Mol Sci., 4 (1), 15-25 (2014). 
 CP2K: atomistic simulations of condensed matter systems.
 https://doi.org/10.1002/wcms.1159

 VandeVondele, J; Borstnik, U; Hutter, J. 
 JOURNAL OF CHEMICAL THEORY AND COMPUTATION, 8 (10), 3565-3573 (2012). 
 Linear Scaling Self-Consistent Field Calculations with Millions of Atoms
 in the Condensed Phase.
 https://doi.org/10.1021/ct200897x

 VandeVondele, J; Hutter, J. 
 JOURNAL OF CHEMICAL PHYSICS, 127 (11), 114105 (2007). 
 Gaussian basis sets for accurate calculations on molecular systems in
 gas and condensed phases.
 https://doi.org/10.1063/1.2770708

 Krack, M. 
 THEORETICAL CHEMISTRY ACCOUNTS, 114 (1-3), 145-152 (2005). 
 Pseudopotentials for H to Kr optimized for gradient-corrected
 exchange-correlation functionals.
 https://doi.org/10.1007/s00214-005-0655-y

 VandeVondele, J; Krack, M; Mohamed, F; Parrinello, M; Chassaing, T;
 Hutter, J. COMPUTER PHYSICS COMMUNICATIONS, 167 (2), 103-128 (2005). 
 QUICKSTEP: Fast and accurate density functional calculations using a
 mixed Gaussian and plane waves approach.
 https://doi.org/10.1016/j.cpc.2004.12.014

 Frigo, M; Johnson, SG. 
 PROCEEDINGS OF THE IEEE, 93 (2), 216-231 (2005). 
 The design and implementation of FFTW3.
 https://doi.org/10.1109/JPROC.2004.840301

 Niklasson, AMN; Tymczak, CJ; Challacombe, M. 
 JOURNAL OF CHEMICAL PHYSICS, 118 (19), 8611-8620 (2003). 
 Trace resetting density matrix purification in O(N)
 self-consistent-field theory.
 https://doi.org/10.1063/1.1559913

 Hartwigsen, C; Goedecker, S; Hutter, J. 
 PHYSICAL REVIEW B, 58 (7), 3641-3662 (1998). 
 Relativistic separable dual-space Gaussian pseudopotentials from H to Rn.
 https://doi.org/10.1103/PhysRevB.58.3641

 Lippert, G; Hutter, J; Parrinello, M. 
 MOLECULAR PHYSICS, 92 (3), 477-487 (1997). 
 A hybrid Gaussian and plane wave density functional scheme.
 https://doi.org/10.1080/002689797170220

 Perdew, JP; Burke, K; Ernzerhof, M. 
 PHYSICAL REVIEW LETTERS, 77 (18), 3865-3868 (1996). 
 Generalized gradient approximation made simple.
 https://doi.org/10.1103/PhysRevLett.77.3865

 Goedecker, S; Teter, M; Hutter, J. 
 PHYSICAL REVIEW B, 54 (3), 1703-1710 (1996). 
 Separable dual-space Gaussian pseudopotentials.
 https://doi.org/10.1103/PhysRevB.54.1703


 -------------------------------------------------------------------------------
 -                                                                             -
 -                                T I M I N G                                  -
 -                                                                             -
 -------------------------------------------------------------------------------
 SUBROUTINE                       CALLS  ASD         SELF TIME        TOTAL TIME
                                MAXIMUM       AVERAGE  MAXIMUM  AVERAGE  MAXIMUM
 CP2K                                 1  1.0    0.010    0.010   38.765   38.765
 qs_energies                          1  2.0    0.000    0.000   38.123   38.123
 ls_scf                               1  3.0    0.000    0.000   37.867   37.867
 ls_scf_main                          4  4.0    0.001    0.001   25.863   25.863
 ls_scf_dm_to_ks                      9  5.0    0.000    0.000   25.747   25.747
 qs_ks_update_qs_env                 10  6.0    0.000    0.000   21.958   21.958
 rebuild_ks_matrix                   10  7.0    0.000    0.000   21.957   21.957
 qs_ks_build_kohn_sham_matrix        10  8.0    0.003    0.003   21.957   21.957
 qs_vxc_create                       10  9.0    0.000    0.000   13.290   13.290
 xc_vxc_pw_create                    10 10.0    0.238    0.238   13.290   13.290
 pw_transfer                        191 11.1    0.031    0.031   11.806   11.806
 fft_wrap_pw1pw2                    171 12.3    0.004    0.004   11.433   11.433
 fft_wrap_pw1pw2_200                111 13.7    1.205    1.205   11.016   11.016
 xc_pw_derive                        60 12.0    0.002    0.002    8.085    8.085
 pao_update                           4  4.0    0.008    0.008    8.075    8.075
 xc_rho_set_and_dset_create          10 11.0    0.314    0.314    7.926    7.926
 qs_rho_update_rho_low               10  6.0    0.000    0.000    7.663    7.663
 calculate_rho_elec                  10  7.0    0.051    0.051    7.663    7.663
 pao_calc_energy                    416  5.0    0.003    0.003    7.305    7.305
 sum_up_and_integrate                10  9.0    0.165    0.165    6.229    6.229
 integrate_v_rspace                  10 10.0    0.001    0.001    6.064    6.064
 dbcsr_multiply_generic           22364  8.4    0.364    0.364    5.827    5.827
 fft3d_s                            172 14.2    4.944    4.944    4.975    4.975
 xc_pw_divergence                    10 11.0    0.001    0.001    4.959    4.959
 grid_collocate_task_list            10  8.0    4.920    4.920    4.920    4.920
 grid_integrate_task_list            10 11.0    4.891    4.891    4.891    4.891
 pao_guess_initial_P                  1  4.0    0.000    0.000    3.880    3.880
 pao_read_preopt_dm                   1  5.0    0.000    0.000    3.880    3.880
 pao_dm_trs4                        416  6.0    0.002    0.002    3.769    3.769
 density_matrix_trs4                425  7.0    0.117    0.117    3.651    3.651
 ls_scf_init_matrix_S               420  7.0    0.003    0.003    3.517    3.517
 pao_rebuild_S                      416  6.0    0.001    0.001    3.484    3.484
 matrix_sqrt_Newton_Schulz          420  8.0    0.077    0.077    3.176    3.176
 xc_functional_eval                  10 12.0    0.000    0.000    2.890    2.890
 pbe_lda_eval                        10 13.0    2.890    2.890    2.890    2.890
 pw_scatter_s                        90 14.7    2.816    2.816    2.816    2.816
 density_rs2pw                       10  8.0    0.001    0.001    2.692    2.692
 pw_gather_s                         81 13.8    2.389    2.389    2.389    2.389
 make_m2s                         44728  9.4    0.138    0.138    2.189    2.189
 multiply_cannon                  22364  9.4    0.887    0.887    2.169    2.169
 make_images                      44728 10.4    0.538    0.538    1.939    1.939
 pw_derive                           60 13.0    1.655    1.655    1.655    1.655
 pw_copy                            120 11.8    1.199    1.199    1.199    1.199
 potential_pw2rs                     10 11.0    0.003    0.003    1.172    1.172
 arnoldi_extremal                   845  8.5    0.003    0.003    1.161    1.161
 arnoldi_normal_ev                  845  9.5    0.009    0.009    1.158    1.158
 build_subspace                     845 10.5    0.047    0.047    0.908    0.908
 pw_poisson_solve                    10  9.0    0.165    0.165    0.875    0.875
 dbcsr_matrix_vector_mult         20259 11.5    0.097    0.097    0.843    0.843
 pw_axpy                             90 10.3    0.835    0.835    0.835    0.835
 -------------------------------------------------------------------------------

 The number of warnings for this run is : 0
 
 -------------------------------------------------------------------------------
  **** **** ******  **  PROGRAM ENDED AT                 2023-02-01 10:44:33.976
 ***** ** ***  *** **   PROGRAM RAN ON                                    moritz
 **    ****   ******    PROGRAM RAN BY                                       ole
 ***** **    ** ** **   PROGRAM PROCESS ID                                148511
  **** **  *******  **  PROGRAM STOPPED IN /home/ole/git/pao_ml_equivar/2H2O_rot
                                           ations/rand_11
