6
Properties=species:S:1:pos:R:3 i=0 time=0.0 E=-34.4504806384 pbc="F F F"
O       6.05938874       1.75707994      -1.74111729 
H       5.61716011       2.55259078      -1.42665688 
H       5.54647622       1.02222769      -1.39034398 
O       5.95292514       1.68795685      -4.73828020 
H       6.83806665       1.63940356      -5.11015662 
H       6.07802341       1.70672258      -3.77680879 
