 DBCSR| CPU Multiplication driver                                           XSMM
 DBCSR| Multrec recursion limit                                              512
 DBCSR| Multiplication stack size                                           1000
 DBCSR| Maximum elements for images                                    UNLIMITED
 DBCSR| Multiplicative factor virtual images                                   1
 DBCSR| Use multiplication densification                                       T
 DBCSR| Multiplication size stacks                                             3


  **** **** ******  **  PROGRAM STARTED AT               2019-02-14 11:13:19.026
 ***** ** ***  *** **   PROGRAM STARTED ON                                  otto
 **    ****   ******    PROGRAM STARTED BY                                   ole
 ***** **    ** ** **   PROGRAM PROCESS ID                                  7818
  **** **  *******  **  PROGRAM STARTED IN /home/ole/git/pao_ml_equivar/2H2O_MD/
                                           frame_1675

 CP2K| version string:                    CP2K version 7.0 (Development Version)
 CP2K| source code revision number:                                git:8bf305913
 CP2K| cp2kflags: libint fftw3 libxc xsmm libderiv_max_am1=5 libint_max_am=6    
 CP2K| is freely available from                            https://www.cp2k.org/
 CP2K| Program compiled at                           So Jan 13 00:02:37 CET 2019
 CP2K| Program compiled on                                                  otto
 CP2K| Program compiled for                                                local
 CP2K| Data directory path                               /home/ole/git/cp2k/data
 CP2K| Input file name                                            2H2O_pao44.inp

 GLOBAL| Force Environment number                                              1
 GLOBAL| Basis set file name                                        BASIS_MOLOPT
 GLOBAL| Potential file name                                      GTH_POTENTIALS
 GLOBAL| MM Potential file name                                     MM_POTENTIAL
 GLOBAL| Coordinate file name                                         coords.xyz
 GLOBAL| Method name                                                        CP2K
 GLOBAL| Project name                                                 2H2O_pao44
 GLOBAL| Preferred FFT library                                             FFTW3
 GLOBAL| Preferred diagonalization lib.                                       SL
 GLOBAL| Run type                                                         ENERGY
 GLOBAL| All-to-all communication in single precision                          F
 GLOBAL| FFTs using library dependent lengths                                  F
 GLOBAL| Global print level                                                  LOW
 GLOBAL| MPI I/O enabled                                                       T
 GLOBAL| Total number of message passing processes                             1
 GLOBAL| Number of threads for this process                                    1
 GLOBAL| This output is from process                                           0
 GLOBAL| CPU model name :  Intel(R) Core(TM) i5-3320M CPU @ 2.60GHz

 MEMORY| system memory details [Kb]
 MEMORY|                        rank 0           min           max       average
 MEMORY| MemTotal              7860772       7860772       7860772       7860772
 MEMORY| MemFree                603772        603772        603772        603772
 MEMORY| Buffers               1048344       1048344       1048344       1048344
 MEMORY| Cached                2097484       2097484       2097484       2097484
 MEMORY| Slab                   280328        280328        280328        280328
 MEMORY| SReclaimable           155756        155756        155756        155756
 MEMORY| MemLikelyFree         3905356       3905356       3905356       3905356


 GENERATE|  Preliminary Number of Bonds generated:                             0
 GENERATE|  Achieved consistency in connectivity generation.

 *******************************************************************************
 *******************************************************************************
 **                                                                           **
 **     #####                         ##              ##                      **
 **    ##   ##            ##          ##              ##                      **
 **   ##     ##                       ##            ######                    **
 **   ##     ##  ##   ##  ##   #####  ##  ##   ####   ##    #####    #####    **
 **   ##     ##  ##   ##  ##  ##      ## ##   ##      ##   ##   ##  ##   ##   **
 **   ##  ## ##  ##   ##  ##  ##      ####     ###    ##   ######   ######    **
 **    ##  ###   ##   ##  ##  ##      ## ##      ##   ##   ##       ##        **
 **     #######   #####   ##   #####  ##  ##  ####    ##    #####   ##        **
 **           ##                                                    ##        **
 **                                                                           **
 **                                                ... make the atoms dance   **
 **                                                                           **
 **            Copyright (C) by CP2K developers group (2000 - 2018)           **
 **                                                                           **
 *******************************************************************************


 TOTAL NUMBERS AND MAXIMUM NUMBERS

  Total number of            - Atomic kinds:                                   2
                             - Atoms:                                          6
                             - Shell sets:                                     6
                             - Shells:                                        22
                             - Primitive Cartesian functions:                 42
                             - Cartesian basis functions:                     48
                             - Spherical basis functions:                     46

  Maximum angular momentum of- Orbital basis functions:                        2
                             - Local part of the GTH pseudopotential:          2
                             - Non-local part of the GTH pseudopotential:      0

 ------------------------------ Linear scaling SCF -----------------------------
 eps_scf:                                       0.100E-07
 eps_filter:                                    0.100E-07
 mixing_fraction:                               0.450E+00
 max_scf:                                              25
 fixed chemical potential (mu)                          F
 has unit metric:                                       F
 Computing inv(S):                                      T
 Computing sqrt(S):                                     T
 Computing s preconditioner                             F
 sign sqrt order:                                       3
 Extrapolation order:                                   1
 Use single precision matrices                          F
 S preconditioner type                               NONE
 Polarized Atomic Orbitals (PAO)                        T
 Purification method                      Trace resetting 4th order
 Cluster type                                      ATOMIC
 Computing Chebyshev                                FALSE
 Using PAO                                              T
 -------------------------------------------------------------------------------

 
 PAO|                                  EPS_PAO                           0.5E-06
 PAO|                                  MIXING                            0.5E+00
 PAO|                                  MAX_PAO                              1000
 PAO|                                  MAX_CYCLES                           1000
 PAO|                                  PARAMETERIZATION                   DIRECT
 PAO|                                  PRECONDITION                            F
 PAO|                                  REGULARIZATION                    0.0E+00
 PAO|                                  EPS_PGF                           0.1E-09
 PAO|                                  PENALTY_DISTANCE                  0.1E+00
 PAO|                                  PENALTY_STRENGTH                  0.5E-02
 PAO|                                  LINPOT_PRECONDITION_DELTA         0.0E+00
 PAO|                                  LINPOT_INITGUESS_DELT             0.0E+00
 PAO|                                  LINPOT_REGULARIZATION_DELTA       0.0E+00
 PAO|                                  LINPOT_REGULARIZATION_STRENGTH    0.0E+00
 PAO|                                  OPTIMIZER                              CG
 PAO|                                  CG_INIT_STEPS                           2
 PAO|                                  CG_RESET_LIMIT                    0.1E+00
 PAO|                                  CHECK_UNITARY_TOL                -0.1E+01
 PAO|                                  CHECK_GRADIENT_TOL               -0.1E+01
 PAO|                                  NUM_GRADIENT_ORDER                      2
 PAO|                                  NUM_GRADIENT_EPS                  0.1E-07
 PAO|                                  PRINT%RESTART%WRITE_CYCLES            100
 PAO|                                  RESTART_FILE 
 PAO|                                  PREOPT_DM_FILE 2H2O_ref_LS_DM_SPIN_1_RESTART.dm
 PAO|                                  MACHINE_LEARNING%METHOD        GAUSSIAN_P
 PAO|                                  MACHINE_LEARNING%PRIOR               ZERO
 PAO|                                  MACHINE_LEARNING%DESCRIPTOR     POTENTIAL
 PAO|                                  MACHINE_LEARNING%TOLERANCE        0.1E-01
 PAO|                                  MACHINE_LEARNING%GP_NOISE_VAR     0.1E+00
 PAO|                                  MACHINE_LEARNING%GP_SCALE         0.5E-01
 

 Calculating atomic Fock matrix for atomic kind: O

 Electronic structure
    Total number of core electrons                                          2.00
    Total number of valence electrons                                       6.00
    Total number of electrons                                               8.00
    Multiplicity                                                   not specified
    S   [  2.00] 2.00
    P      4.00


 *******************************************************************************
                  Iteration          Convergence                     Energy [au]
 *******************************************************************************
                          1        0.708315                     -15.576645311500
                          2        0.608879                     -15.587933561584
                          3        0.102828E-01                 -15.656849565404
                          4        0.113889E-02                 -15.656866888140
                          5        0.434197E-03                 -15.656867072159
                          6        0.263771E-03                 -15.656867091904
                          7        0.478536E-06                 -15.656867103452

 Energy components [Hartree]           Total Energy ::          -15.656867103452
                                        Band Energy ::           -3.000198112285
                                     Kinetic Energy ::           11.759971203220
                                   Potential Energy ::          -27.416838306672
                                      Virial (-V/T) ::            2.331369510426
                                        Core Energy ::          -26.140716385623
                                          XC Energy ::           -3.154051012914
                                     Coulomb Energy ::           13.637900295084
                       Total Pseudopotential Energy ::          -37.935781716540
                       Local Pseudopotential Energy ::          -39.218907440693
                    Nonlocal Pseudopotential Energy ::            1.283125724153
                                        Confinement ::            0.350941276976

 Orbital energies  State     L     Occupation   Energy[a.u.]          Energy[eV]

                       1     0          2.000      -0.864471          -23.523463

                       1     1          4.000      -0.317814           -8.648154


 Total Electron Density at R=0:                                         0.000068

 Calculating atomic Fock matrix for atomic kind: H

 Electronic structure
    Total number of core electrons                                          0.00
    Total number of valence electrons                                       1.00
    Total number of electrons                                               1.00
    Multiplicity                                                   not specified
    S      1.00


 *******************************************************************************
                  Iteration          Convergence                     Energy [au]
 *******************************************************************************
                          1        0.437545E-02                  -0.424159432110
                          2        0.531356E-03                  -0.424178438213
                          3        0.259176E-06                  -0.424178722480

 Energy components [Hartree]           Total Energy ::           -0.424178722480
                                        Band Energy ::           -0.199015229016
                                     Kinetic Energy ::            0.464007633961
                                   Potential Energy ::           -0.888186356441
                                      Virial (-V/T) ::            1.914163240935
                                        Core Energy ::           -0.479160803564
                                          XC Energy ::           -0.244352904054
                                     Coulomb Energy ::            0.299334985138
                       Total Pseudopotential Energy ::           -0.962295316385
                       Local Pseudopotential Energy ::           -0.962295316385
                    Nonlocal Pseudopotential Energy ::            0.000000000000
                                        Confinement ::            0.191268788606

 Orbital energies  State     L     Occupation   Energy[a.u.]          Energy[eV]

                       1     0          1.000      -0.199015           -5.415480


 Total Electron Density at R=0:                                         0.242907
 PAO| Made initial guess for matrix_X with norm:   4.8989794855663558     

     Lanczos converged:  T threshold:   0.100E-02
     Est. extremal eigenvalues:    0.322E+01   0.113E+00
     Est. condition number :    0.286E+02
     NS sqrt iter    1 1.00000000   0.786E+00       0.001       47.905
     NS sqrt iter    2 1.00000000   0.420E+00       0.001       83.717
     NS sqrt iter    3 1.00000000   0.158E+00       0.001       85.153
     NS sqrt iter    4 1.00000000   0.175E-01       0.001       85.660
     NS sqrt iter    5 1.00000000   0.382E-04       0.001       66.985
     Final NS sqrt iter    5 1.00000000   0.304E-08

 PAO| Read restart DM 2H2O_ref_LS_DM_SPIN_1_RESTART.dm with checksum:    58.810970653262729     
 PAO| Quickstep energy from restart density:  -34.447403605515014     
 PAO| ======================= Iteration:         1 =============================

     Lanczos converged:  T threshold:   0.100E-02
     Est. extremal eigenvalues:    0.322E+01   0.113E+00
     Est. condition number :    0.286E+02
     NS sqrt iter    1 1.00000000   0.786E+00       0.001       64.512
     NS sqrt iter    2 1.00000000   0.420E+00       0.001      110.592
     NS sqrt iter    3 1.00000000   0.158E+00       0.001      110.592
     NS sqrt iter    4 1.00000000   0.175E-01       0.001      110.592
     NS sqrt iter    5 1.00000000   0.382E-04       0.001       86.272
     Final NS sqrt iter    5 1.00000000   0.304E-08

     Est. extremal eigenvalues     -0.90139     1.80385  converged:  T
     TRS4 it   1 1.00000000   0.877E+00       0.000       16.128   0.100E-07
     TRS4 it   2 1.00000000   0.678E+00       0.001       32.256   0.100E-07
     TRS4 it   3 1.00000000   0.492E+00       0.001       32.256   0.100E-07
     TRS4 it   4 1.00000000   0.309E+00       0.001       32.256   0.100E-07
     TRS4 it   5 1.00000000   0.152E+00       0.001       32.256   0.100E-07
     TRS4 it   6 1.00000000   0.453E-01       0.001       32.256   0.100E-07
     TRS4 it   7 1.00000000   0.526E-02       0.001       32.256   0.100E-07
     TRS4 it   8 1.00000000   0.934E-04       0.001       32.256   0.100E-07
     TRS4 it   9 1.00000000   0.342E-07       0.001       32.256   0.100E-07
     Final TRS4 iteration    9 1.00000000   0.342E-07
     Chemical potential (mu):      -0.07147
 
 PAO| energy:  -7.5735044355870231      penalty:   6.9025329206838553E-033
 PAO|CG| warming up with steepest descent
 PAO|CG| beta:    0.0000000000000000     
 PAO| norm of gradient:  0.78576217086572420     
 PAO|LS| adapt:  T F F
 PAO|LS| adapt: scan_steps:    0.0000000000000000        0.0000000000000000        0.0000000000000000     
 PAO|LS| adapt: energies:   -7.5735044355870231        0.0000000000000000        0.0000000000000000     
 PAO| ======================= Iteration:         2 =============================

     Lanczos converged:  T threshold:   0.100E-02
     Est. extremal eigenvalues:    0.315E+01   0.126E+00
     Est. condition number :    0.250E+02
     NS sqrt iter    1 1.00000000   0.774E+00       0.001       64.512
     NS sqrt iter    2 1.00000000   0.406E+00       0.001      110.592
     NS sqrt iter    3 1.00000000   0.141E+00       0.001      110.592
     NS sqrt iter    4 1.00000000   0.119E-01       0.001      110.592
     NS sqrt iter    5 1.00000000   0.120E-04       0.001       82.944
     Final NS sqrt iter    5 1.00000000   0.256E-09

     Est. extremal eigenvalues     -0.90487     1.75931  converged:  T
     TRS4 it   1 1.00000000   0.876E+00       0.000       16.128   0.100E-07
     TRS4 it   2 1.00000000   0.661E+00       0.001       32.256   0.100E-07
     TRS4 it   3 1.00000000   0.475E+00       0.001       32.256   0.100E-07
     TRS4 it   4 1.00000000   0.288E+00       0.001       32.256   0.100E-07
     TRS4 it   5 1.00000000   0.132E+00       0.001       32.256   0.100E-07
     TRS4 it   6 1.00000000   0.345E-01       0.001       32.256   0.100E-07
     TRS4 it   7 1.00000000   0.307E-02       0.001       32.256   0.100E-07
     TRS4 it   8 1.00000000   0.319E-04       0.001       32.256   0.100E-07
     TRS4 it   9 1.00000000   0.402E-08       0.001       32.256   0.100E-07
     Final TRS4 iteration    9 1.00000000   0.402E-08
     Chemical potential (mu):      -0.05998
 
 PAO| energy:  -7.6291184423203342      penalty:   2.2685385494516623E-008
 PAO|LS| adapt:  T T F
 PAO|LS| adapt: scan_steps:    0.0000000000000000       0.10000000000000001        0.0000000000000000     
 PAO|LS| adapt: energies:   -7.5735044355870231       -7.6291184423203342        0.0000000000000000     
 PAO| ======================= Iteration:         3 =============================

     Lanczos converged:  T threshold:   0.100E-02
     Est. extremal eigenvalues:    0.308E+01   0.138E+00
     Est. condition number :    0.223E+02
     NS sqrt iter    1 1.00000000   0.760E+00       0.001       64.512
     NS sqrt iter    2 1.00000000   0.390E+00       0.001      110.592
     NS sqrt iter    3 1.00000000   0.125E+00       0.001      110.592
     NS sqrt iter    4 1.00000000   0.812E-02       0.001      110.592
     NS sqrt iter    5 1.00000000   0.406E-05       0.001       82.944
     Final NS sqrt iter    5 1.00000000   0.292E-10

     Est. extremal eigenvalues     -0.90809     1.72794  converged:  T
     TRS4 it   1 1.00000000   0.876E+00       0.000       16.128   0.100E-07
     TRS4 it   2 1.00000000   0.648E+00       0.001       32.256   0.100E-07
     TRS4 it   3 1.00000000   0.460E+00       0.001       32.256   0.100E-07
     TRS4 it   4 1.00000000   0.268E+00       0.001       32.256   0.100E-07
     TRS4 it   5 1.00000000   0.115E+00       0.001       32.256   0.100E-07
     TRS4 it   6 1.00000000   0.257E-01       0.001       32.256   0.100E-07
     TRS4 it   7 1.00000000   0.168E-02       0.001       32.256   0.100E-07
     TRS4 it   8 1.00000000   0.952E-05       0.001       32.256   0.100E-07
     TRS4 it   9 1.00000000   0.362E-09       0.001       32.256   0.100E-07
     Final TRS4 iteration    9 1.00000000   0.362E-09
     Chemical potential (mu):      -0.04732
 
 PAO| energy:  -7.6718803443420178      penalty:   3.6296515814306607E-007
 PAO|LS| adapt:  T T F
 PAO|LS| adapt: scan_steps:    0.0000000000000000       0.20000000000000001        0.0000000000000000     
 PAO|LS| adapt: energies:   -7.5735044355870231       -7.6718803443420178        0.0000000000000000     
 PAO| ======================= Iteration:         4 =============================

     Lanczos converged:  T threshold:   0.100E-02
     Est. extremal eigenvalues:    0.291E+01   0.156E+00
     Est. condition number :    0.186E+02
     NS sqrt iter    1 1.00000000   0.729E+00       0.001       64.512
     NS sqrt iter    2 1.00000000   0.358E+00       0.001      110.592
     NS sqrt iter    3 1.00000000   0.971E-01       0.001      110.592
     NS sqrt iter    4 1.00000000   0.404E-02       0.001      110.592
     NS sqrt iter    5 1.00000000   0.630E-06       0.001       81.792
     Final NS sqrt iter    5 1.00000000   0.177E-09

     Est. extremal eigenvalues     -0.91298     1.68955  converged:  T
     TRS4 it   1 1.00000000   0.880E+00       0.000       16.128   0.100E-07
     TRS4 it   2 1.00000000   0.627E+00       0.001       32.256   0.100E-07
     TRS4 it   3 1.00000000   0.433E+00       0.001       32.256   0.100E-07
     TRS4 it   4 1.00000000   0.234E+00       0.001       32.256   0.100E-07
     TRS4 it   5 1.00000000   0.849E-01       0.001       32.256   0.100E-07
     TRS4 it   6 1.00000000   0.136E-01       0.001       32.256   0.100E-07
     TRS4 it   7 1.00000000   0.435E-03       0.001       32.256   0.100E-07
     TRS4 it   8 1.00000000   0.609E-06       0.001       32.256   0.100E-07
     TRS4 it   9 1.00000000   0.152E-11       0.001       32.256   0.100E-07
     Final TRS4 iteration    9 1.00000000   0.152E-11
     Chemical potential (mu):      -0.01928
 
 PAO| energy:  -7.7175009435527073      penalty:   5.8074344544121479E-006
 PAO|LS| Need extra step
 PAO|LS| adapt:  T T F
 PAO|LS| adapt: scan_steps:    0.0000000000000000       0.40000000000000002        0.0000000000000000     
 PAO|LS| adapt: energies:   -7.5735044355870231       -7.7175009435527073        0.0000000000000000     
 PAO| ======================= Iteration:         5 =============================

     Lanczos converged:  T threshold:   0.100E-02
     Est. extremal eigenvalues:    0.259E+01   0.181E+00
     Est. condition number :    0.143E+02
     NS sqrt iter    1 1.00000000   0.673E+00       0.001       64.512
     NS sqrt iter    2 1.00000000   0.299E+00       0.001      110.592
     NS sqrt iter    3 1.00000000   0.601E-01       0.001      110.592
     NS sqrt iter    4 1.00000000   0.121E-02       0.001      110.592
     NS sqrt iter    5 1.00000000   0.223E-07       0.001       52.096
     Final NS sqrt iter    5 1.00000000   0.332E-08

     Est. extremal eigenvalues     -0.91361     1.65462  converged:  T
     TRS4 it   1 1.00000000   0.889E+00       0.000       16.128   0.100E-07
     TRS4 it   2 1.00000000   0.600E+00       0.001       32.256   0.100E-07
     TRS4 it   3 1.00000000   0.393E+00       0.001       32.256   0.100E-07
     TRS4 it   4 1.00000000   0.182E+00       0.001       32.256   0.100E-07
     TRS4 it   5 1.00000000   0.484E-01       0.001       32.256   0.100E-07
     TRS4 it   6 1.00000000   0.405E-02       0.001       32.256   0.100E-07
     TRS4 it   7 1.00000000   0.338E-04       0.001       32.256   0.100E-07
     TRS4 it   8 1.00000000   0.310E-08       0.001       32.256   0.100E-07
     Final TRS4 iteration    8 1.00000000   0.310E-08
     Chemical potential (mu):       0.02634
 
 PAO| energy:  -7.6563521189211876      penalty:   9.2918886672685300E-005
 PAO|LS| Need extra step
 PAO|LS| adapt:  T T T
 PAO|LS| adapt: scan_steps:    0.0000000000000000       0.40000000000000002       0.80000000000000004     
 PAO|LS| adapt: energies:   -7.5735044355870231       -7.7175009435527073       -7.6563521189211876     
 PAO|LS| adapt: suggested step_size:   0.48076974726676647     
 PAO|LS| adapt: predicted energy  -7.7216831850805443     
 PAO| ======================= Iteration:         6 =============================

     Lanczos converged:  T threshold:   0.100E-02
     Est. extremal eigenvalues:    0.284E+01   0.162E+00
     Est. condition number :    0.176E+02
     NS sqrt iter    1 1.00000000   0.716E+00       0.001       64.512
     NS sqrt iter    2 1.00000000   0.345E+00       0.001      110.592
     NS sqrt iter    3 1.00000000   0.878E-01       0.001      110.592
     NS sqrt iter    4 1.00000000   0.312E-02       0.001      110.592
     NS sqrt iter    5 1.00000000   0.317E-06       0.001       77.482
     Final NS sqrt iter    5 1.00000000   0.608E-09

     Est. extremal eigenvalues     -0.91417     1.67955  converged:  T
     TRS4 it   1 1.00000000   0.882E+00       0.000       16.128   0.100E-07
     TRS4 it   2 1.00000000   0.620E+00       0.001       32.256   0.100E-07
     TRS4 it   3 1.00000000   0.424E+00       0.001       32.256   0.100E-07
     TRS4 it   4 1.00000000   0.221E+00       0.001       32.256   0.100E-07
     TRS4 it   5 1.00000000   0.752E-01       0.001       32.256   0.100E-07
     TRS4 it   6 1.00000000   0.104E-01       0.001       32.256   0.100E-07
     TRS4 it   7 1.00000000   0.245E-03       0.001       32.256   0.100E-07
     TRS4 it   8 1.00000000   0.183E-06       0.001       32.256   0.100E-07
     TRS4 it   9 1.00000000   0.137E-12       0.001       32.256   0.100E-07
     Final TRS4 iteration    9 1.00000000   0.137E-12
     Chemical potential (mu):      -0.00720
 
 PAO| energy:  -7.7209828777178329      penalty:   1.2119725301996536E-005
 PAO|CG| warming up with steepest descent
 PAO|CG| beta:    0.0000000000000000     
 PAO| norm of gradient:  0.41622767253487586     
 PAO| energy improvement: -0.14747844213080974     
 PAO| step      6                   -7.720982878  0.260E-01  0.481E+00     0.077
 PAO|LS| adapt:  T F F
 PAO|LS| adapt: scan_steps:    0.0000000000000000        0.0000000000000000        0.0000000000000000     
 PAO|LS| adapt: energies:   -7.7209828777178329        0.0000000000000000        0.0000000000000000     
 PAO| ======================= Iteration:         7 =============================

     Lanczos converged:  T threshold:   0.100E-02
     Est. extremal eigenvalues:    0.275E+01   0.176E+00
     Est. condition number :    0.157E+02
     NS sqrt iter    1 1.00000000   0.699E+00       0.001       64.512
     NS sqrt iter    2 1.00000000   0.324E+00       0.001      110.592
     NS sqrt iter    3 1.00000000   0.728E-01       0.001      110.592
     NS sqrt iter    4 1.00000000   0.188E-02       0.001      110.592
     NS sqrt iter    5 1.00000000   0.761E-07       0.001       67.456
     Final NS sqrt iter    5 1.00000000   0.555E-09

     Est. extremal eigenvalues     -0.91598     1.68278  converged:  T
     TRS4 it   1 1.00000000   0.886E+00       0.000       16.128   0.100E-07
     TRS4 it   2 1.00000000   0.623E+00       0.001       32.256   0.100E-07
     TRS4 it   3 1.00000000   0.427E+00       0.001       32.256   0.100E-07
     TRS4 it   4 1.00000000   0.225E+00       0.001       32.256   0.100E-07
     TRS4 it   5 1.00000000   0.774E-01       0.001       32.256   0.100E-07
     TRS4 it   6 1.00000000   0.109E-01       0.001       32.256   0.100E-07
     TRS4 it   7 1.00000000   0.262E-03       0.001       32.256   0.100E-07
     TRS4 it   8 1.00000000   0.205E-06       0.001       32.256   0.100E-07
     TRS4 it   9 1.00000000   0.172E-12       0.001       32.256   0.100E-07
     Final TRS4 iteration    9 1.00000000   0.172E-12
     Chemical potential (mu):      -0.00723
 
 PAO| energy:  -7.7191458273628388      penalty:   1.8201037185695465E-005
 PAO|LS| adapt:  T F T
 PAO|LS| adapt: scan_steps:    0.0000000000000000        0.0000000000000000       0.48076974726676647     
 PAO|LS| adapt: energies:   -7.7209828777178329        0.0000000000000000       -7.7191458273628388     
 PAO| ======================= Iteration:         8 =============================

     Lanczos converged:  T threshold:   0.100E-02
     Est. extremal eigenvalues:    0.280E+01   0.169E+00
     Est. condition number :    0.166E+02
     NS sqrt iter    1 1.00000000   0.708E+00       0.001       64.512
     NS sqrt iter    2 1.00000000   0.335E+00       0.001      110.592
     NS sqrt iter    3 1.00000000   0.801E-01       0.001      110.592
     NS sqrt iter    4 1.00000000   0.244E-02       0.001      110.592
     NS sqrt iter    5 1.00000000   0.159E-06       0.001       74.240
     Final NS sqrt iter    5 1.00000000   0.115E-08

     Est. extremal eigenvalues     -0.91607     1.68090  converged:  T
     TRS4 it   1 1.00000000   0.884E+00       0.000       16.128   0.100E-07
     TRS4 it   2 1.00000000   0.621E+00       0.001       32.256   0.100E-07
     TRS4 it   3 1.00000000   0.425E+00       0.001       32.256   0.100E-07
     TRS4 it   4 1.00000000   0.223E+00       0.001       32.256   0.100E-07
     TRS4 it   5 1.00000000   0.763E-01       0.001       32.256   0.100E-07
     TRS4 it   6 1.00000000   0.108E-01       0.001       32.256   0.100E-07
     TRS4 it   7 1.00000000   0.263E-03       0.001       32.256   0.100E-07
     TRS4 it   8 1.00000000   0.210E-06       0.001       32.256   0.100E-07
     TRS4 it   9 1.00000000   0.180E-12       0.001       32.256   0.100E-07
     Final TRS4 iteration    9 1.00000000   0.180E-12
     Chemical potential (mu):      -0.00807
 
 PAO| energy:  -7.7410816429178251      penalty:   1.3141840705071902E-005
 PAO|LS| adapt:  T T T
 PAO|LS| adapt: scan_steps:    0.0000000000000000       0.24038487363338323       0.48076974726676647     
 PAO|LS| adapt: energies:   -7.7209828777178329       -7.7410816429178251       -7.7191458273628388     
 PAO|LS| adapt: suggested step_size:   0.23513206618875204     
 PAO|LS| adapt: predicted energy  -7.7410916785656960     
 PAO| ======================= Iteration:         9 =============================

     Lanczos converged:  T threshold:   0.100E-02
     Est. extremal eigenvalues:    0.280E+01   0.169E+00
     Est. condition number :    0.166E+02
     NS sqrt iter    1 1.00000000   0.708E+00       0.001       64.512
     NS sqrt iter    2 1.00000000   0.335E+00       0.001      110.592
     NS sqrt iter    3 1.00000000   0.803E-01       0.001      110.592
     NS sqrt iter    4 1.00000000   0.245E-02       0.001      110.592
     NS sqrt iter    5 1.00000000   0.161E-06       0.001       74.240
     Final NS sqrt iter    5 1.00000000   0.117E-08

     Est. extremal eigenvalues     -0.91605     1.68086  converged:  T
     TRS4 it   1 1.00000000   0.884E+00       0.000       16.128   0.100E-07
     TRS4 it   2 1.00000000   0.621E+00       0.001       32.256   0.100E-07
     TRS4 it   3 1.00000000   0.425E+00       0.001       32.256   0.100E-07
     TRS4 it   4 1.00000000   0.223E+00       0.001       32.256   0.100E-07
     TRS4 it   5 1.00000000   0.762E-01       0.001       32.256   0.100E-07
     TRS4 it   6 1.00000000   0.108E-01       0.001       32.256   0.100E-07
     TRS4 it   7 1.00000000   0.263E-03       0.001       32.256   0.100E-07
     TRS4 it   8 1.00000000   0.209E-06       0.001       32.256   0.100E-07
     TRS4 it   9 1.00000000   0.180E-12       0.001       32.256   0.100E-07
     Final TRS4 iteration    9 1.00000000   0.180E-12
     Chemical potential (mu):      -0.00807
 
 PAO| energy:  -7.7410999434059091      penalty:   1.3087428585876927E-005
 PAO|CG| trace_G_new    4.0867721642169723E-002
 PAO|CG| trace_G_prev   0.17324547538379984     
 PAO|CG| trace_G_mix   -1.5619714371199944E-003
 PAO|CG| trace_D   0.17324547538379984     
 PAO|CG| trace_D_Gnew   1.5619714371199944E-003
 PAO|CG| beta:   0.24491082947645809     
 PAO| norm of gradient:  0.20215766530648727     
 PAO| energy improvement:  -2.0117065688076252E-002
 PAO| step      9                   -7.741099943  0.126E-01  0.235E+00     0.048
 PAO|LS| adapt:  T F F
 PAO|LS| adapt: scan_steps:    0.0000000000000000        0.0000000000000000        0.0000000000000000     
 PAO|LS| adapt: energies:   -7.7410999434059091        0.0000000000000000        0.0000000000000000     
 PAO| ======================= Iteration:        10 =============================

     Lanczos converged:  T threshold:   0.100E-02
     Est. extremal eigenvalues:    0.276E+01   0.174E+00
     Est. condition number :    0.159E+02
     NS sqrt iter    1 1.00000000   0.700E+00       0.001       64.512
     NS sqrt iter    2 1.00000000   0.326E+00       0.001      110.592
     NS sqrt iter    3 1.00000000   0.746E-01       0.001      110.592
     NS sqrt iter    4 1.00000000   0.200E-02       0.001      110.592
     NS sqrt iter    5 1.00000000   0.901E-07       0.001       68.736
     Final NS sqrt iter    5 1.00000000   0.214E-08

     Est. extremal eigenvalues     -0.91698     1.68642  converged:  T
     TRS4 it   1 1.00000000   0.886E+00       0.000       16.128   0.100E-07
     TRS4 it   2 1.00000000   0.622E+00       0.001       32.256   0.100E-07
     TRS4 it   3 1.00000000   0.425E+00       0.001       32.256   0.100E-07
     TRS4 it   4 1.00000000   0.221E+00       0.001       32.256   0.100E-07
     TRS4 it   5 1.00000000   0.750E-01       0.001       32.256   0.100E-07
     TRS4 it   6 1.00000000   0.104E-01       0.001       32.256   0.100E-07
     TRS4 it   7 1.00000000   0.240E-03       0.001       32.256   0.100E-07
     TRS4 it   8 1.00000000   0.170E-06       0.001       32.256   0.100E-07
     TRS4 it   9 1.00000000   0.118E-12       0.001       32.256   0.100E-07
     Final TRS4 iteration    9 1.00000000   0.118E-12
     Chemical potential (mu):      -0.00505
 
 PAO| energy:  -7.7466872279203196      penalty:   1.3773708182427619E-005
 PAO|LS| adapt:  T T F
 PAO|LS| adapt: scan_steps:    0.0000000000000000       0.23513206618875204        0.0000000000000000     
 PAO|LS| adapt: energies:   -7.7410999434059091       -7.7466872279203196        0.0000000000000000     
 PAO| ======================= Iteration:        11 =============================

     Lanczos converged:  T threshold:   0.100E-02
     Est. extremal eigenvalues:    0.272E+01   0.180E+00
     Est. condition number :    0.152E+02
     NS sqrt iter    1 1.00000000   0.691E+00       0.001       64.512
     NS sqrt iter    2 1.00000000   0.317E+00       0.001      110.592
     NS sqrt iter    3 1.00000000   0.691E-01       0.001      110.592
     NS sqrt iter    4 1.00000000   0.162E-02       0.001      110.592
     NS sqrt iter    5 1.00000000   0.491E-07       0.001       64.000
     Final NS sqrt iter    5 1.00000000   0.323E-08

     Est. extremal eigenvalues     -0.91671     1.69269  converged:  T
     TRS4 it   1 1.00000000   0.887E+00       0.000       16.128   0.100E-07
     TRS4 it   2 1.00000000   0.624E+00       0.001       32.256   0.100E-07
     TRS4 it   3 1.00000000   0.425E+00       0.001       32.256   0.100E-07
     TRS4 it   4 1.00000000   0.220E+00       0.001       32.256   0.100E-07
     TRS4 it   5 1.00000000   0.738E-01       0.001       32.256   0.100E-07
     TRS4 it   6 1.00000000   0.998E-02       0.001       32.256   0.100E-07
     TRS4 it   7 1.00000000   0.218E-03       0.001       32.256   0.100E-07
     TRS4 it   8 1.00000000   0.137E-06       0.001       32.256   0.100E-07
     TRS4 it   9 1.00000000   0.753E-13       0.001       32.256   0.100E-07
     Final TRS4 iteration    9 1.00000000   0.753E-13
     Chemical potential (mu):      -0.00192
 
 PAO| energy:  -7.7447123296598575      penalty:   1.5294159035994267E-005
 PAO|LS| adapt:  T T T
 PAO|LS| adapt: scan_steps:    0.0000000000000000       0.23513206618875204       0.47026413237750408     
 PAO|LS| adapt: energies:   -7.7410999434059091       -7.7466872279203196       -7.7447123296598575     
 PAO|LS| adapt: suggested step_size:   0.29129229591667088     
 PAO|LS| adapt: predicted energy  -7.7469029284468114     
 PAO| ======================= Iteration:        12 =============================

     Lanczos converged:  T threshold:   0.100E-02
     Est. extremal eigenvalues:    0.275E+01   0.175E+00
     Est. condition number :    0.157E+02
     NS sqrt iter    1 1.00000000   0.698E+00       0.001       64.512
     NS sqrt iter    2 1.00000000   0.324E+00       0.001      110.592
     NS sqrt iter    3 1.00000000   0.732E-01       0.001      110.592
     NS sqrt iter    4 1.00000000   0.190E-02       0.001      110.592
     NS sqrt iter    5 1.00000000   0.781E-07       0.001       67.456
     Final NS sqrt iter    5 1.00000000   0.535E-09

     Est. extremal eigenvalues     -0.91702     1.68786  converged:  T
     TRS4 it   1 1.00000000   0.886E+00       0.000       16.128   0.100E-07
     TRS4 it   2 1.00000000   0.623E+00       0.001       32.256   0.100E-07
     TRS4 it   3 1.00000000   0.425E+00       0.001       32.256   0.100E-07
     TRS4 it   4 1.00000000   0.221E+00       0.001       32.256   0.100E-07
     TRS4 it   5 1.00000000   0.747E-01       0.001       32.256   0.100E-07
     TRS4 it   6 1.00000000   0.103E-01       0.001       32.256   0.100E-07
     TRS4 it   7 1.00000000   0.234E-03       0.001       32.256   0.100E-07
     TRS4 it   8 1.00000000   0.162E-06       0.001       32.256   0.100E-07
     TRS4 it   9 1.00000000   0.106E-12       0.001       32.256   0.100E-07
     Final TRS4 iteration    9 1.00000000   0.106E-12
     Chemical potential (mu):      -0.00431
 
 PAO| energy:  -7.7468855865095687      penalty:   1.4051613343386167E-005
 PAO|CG| trace_G_new    1.4539416659278681E-002
 PAO|CG| trace_G_prev    4.0867721642169723E-002
 PAO|CG| trace_G_mix   -6.3437140113448381E-004
 PAO|CG| trace_D    5.0494125528082918E-002
 PAO|CG| trace_D_Gnew   2.7230838547662693E-004
 PAO|CG| beta:   0.37129028609111292     
 PAO| norm of gradient:  0.12057950347915140     
 PAO| energy improvement:  -5.7856431036595879E-003
 PAO| step     12                   -7.746885587  0.754E-02  0.291E+00     0.048
 PAO|LS| adapt:  T F F
 PAO|LS| adapt: scan_steps:    0.0000000000000000        0.0000000000000000        0.0000000000000000     
 PAO|LS| adapt: energies:   -7.7468855865095687        0.0000000000000000        0.0000000000000000     
 PAO| ======================= Iteration:        13 =============================

     Lanczos converged:  T threshold:   0.100E-02
     Est. extremal eigenvalues:    0.272E+01   0.180E+00
     Est. condition number :    0.151E+02
     NS sqrt iter    1 1.00000000   0.690E+00       0.001       64.512
     NS sqrt iter    2 1.00000000   0.316E+00       0.001      110.592
     NS sqrt iter    3 1.00000000   0.688E-01       0.001      110.592
     NS sqrt iter    4 1.00000000   0.161E-02       0.001      110.592
     NS sqrt iter    5 1.00000000   0.481E-07       0.001       63.744
     Final NS sqrt iter    5 1.00000000   0.239E-08

     Est. extremal eigenvalues     -0.91762     1.68532  converged:  T
     TRS4 it   1 1.00000000   0.887E+00       0.000       16.128   0.100E-07
     TRS4 it   2 1.00000000   0.621E+00       0.001       32.256   0.100E-07
     TRS4 it   3 1.00000000   0.422E+00       0.001       32.256   0.100E-07
     TRS4 it   4 1.00000000   0.216E+00       0.001       32.256   0.100E-07
     TRS4 it   5 1.00000000   0.712E-01       0.001       32.256   0.100E-07
     TRS4 it   6 1.00000000   0.928E-02       0.001       32.256   0.100E-07
     TRS4 it   7 1.00000000   0.188E-03       0.001       32.256   0.100E-07
     TRS4 it   8 1.00000000   0.101E-06       0.001       32.256   0.100E-07
     TRS4 it   9 1.00000000   0.410E-13       0.001       32.256   0.100E-07
     Final TRS4 iteration    9 1.00000000   0.410E-13
     Chemical potential (mu):       0.00042
 
 PAO| energy:  -7.7494408183406991      penalty:   1.4580738515971119E-005
 PAO|LS| adapt:  T T F
 PAO|LS| adapt: scan_steps:    0.0000000000000000       0.29129229591667088        0.0000000000000000     
 PAO|LS| adapt: energies:   -7.7468855865095687       -7.7494408183406991        0.0000000000000000     
 PAO| ======================= Iteration:        14 =============================

     Lanczos converged:  T threshold:   0.100E-02
     Est. extremal eigenvalues:    0.268E+01   0.184E+00
     Est. condition number :    0.146E+02
     NS sqrt iter    1 1.00000000   0.683E+00       0.001       64.512
     NS sqrt iter    2 1.00000000   0.309E+00       0.001      110.592
     NS sqrt iter    3 1.00000000   0.647E-01       0.001      110.592
     NS sqrt iter    4 1.00000000   0.136E-02       0.001      110.592
     NS sqrt iter    5 1.00000000   0.293E-07       0.001       54.784
     Final NS sqrt iter    5 1.00000000   0.459E-08

     Est. extremal eigenvalues     -0.91757     1.68288  converged:  T
     TRS4 it   1 1.00000000   0.888E+00       0.001       16.128   0.100E-07
     TRS4 it   2 1.00000000   0.618E+00       0.001       32.256   0.100E-07
     TRS4 it   3 1.00000000   0.418E+00       0.001       32.256   0.100E-07
     TRS4 it   4 1.00000000   0.212E+00       0.001       32.256   0.100E-07
     TRS4 it   5 1.00000000   0.679E-01       0.001       32.256   0.100E-07
     TRS4 it   6 1.00000000   0.838E-02       0.001       32.256   0.100E-07
     TRS4 it   7 1.00000000   0.151E-03       0.001       32.256   0.100E-07
     TRS4 it   8 1.00000000   0.636E-07       0.001       32.256   0.100E-07
     Final TRS4 iteration    8 1.00000000   0.636E-07
     Chemical potential (mu):       0.00381
 
 PAO| energy:  -7.7487581273119384      penalty:   1.5739432932086512E-005
 PAO|LS| adapt:  T T T
 PAO|LS| adapt: scan_steps:    0.0000000000000000       0.29129229591667088       0.58258459183334177     
 PAO|LS| adapt: energies:   -7.7468855865095687       -7.7494408183406991       -7.7487581273119384     
 PAO|LS| adapt: suggested step_size:   0.37552171291060199     
 PAO|LS| adapt: predicted energy  -7.7495761832493253     
 PAO| ======================= Iteration:        15 =============================

     Lanczos converged:  T threshold:   0.100E-02
     Est. extremal eigenvalues:    0.271E+01   0.181E+00
     Est. condition number :    0.150E+02
     NS sqrt iter    1 1.00000000   0.688E+00       0.001       64.512
     NS sqrt iter    2 1.00000000   0.314E+00       0.001      110.592
     NS sqrt iter    3 1.00000000   0.676E-01       0.001      110.592
     NS sqrt iter    4 1.00000000   0.153E-02       0.001      110.592
     NS sqrt iter    5 1.00000000   0.417E-07       0.001       61.184
     Final NS sqrt iter    5 1.00000000   0.419E-08

     Est. extremal eigenvalues     -0.91767     1.68461  converged:  T
     TRS4 it   1 1.00000000   0.887E+00       0.000       16.128   0.100E-07
     TRS4 it   2 1.00000000   0.620E+00       0.001       32.256   0.100E-07
     TRS4 it   3 1.00000000   0.421E+00       0.001       32.256   0.100E-07
     TRS4 it   4 1.00000000   0.215E+00       0.001       32.256   0.100E-07
     TRS4 it   5 1.00000000   0.702E-01       0.001       32.256   0.100E-07
     TRS4 it   6 1.00000000   0.901E-02       0.001       32.256   0.100E-07
     TRS4 it   7 1.00000000   0.176E-03       0.001       32.256   0.100E-07
     TRS4 it   8 1.00000000   0.884E-07       0.001       32.256   0.100E-07
     TRS4 it   9 1.00000000   0.309E-13       0.001       32.256   0.100E-07
     Final TRS4 iteration    9 1.00000000   0.309E-13
     Chemical potential (mu):       0.00175
 
 PAO| energy:  -7.7495719790113764      penalty:   1.4845678999110544E-005
 PAO|CG| trace_G_new    3.0635645782558173E-003
 PAO|CG| trace_G_prev    1.4539416659278681E-002
 PAO|CG| trace_G_mix    1.0702106093871523E-004
 PAO|CG| trace_D    2.1298147974135213E-002
 PAO|CG| trace_D_Gnew   4.0772387046800414E-005
 PAO|CG| beta:   0.20334677701325191     
 PAO| norm of gradient:   5.5349476765872124E-002
 PAO| energy improvement:  -2.6863925018076884E-003
 PAO| step     15                   -7.749571979  0.346E-02  0.376E+00     0.049
 PAO|LS| adapt:  T F F
 PAO|LS| adapt: scan_steps:    0.0000000000000000        0.0000000000000000        0.0000000000000000     
 PAO|LS| adapt: energies:   -7.7495719790113764        0.0000000000000000        0.0000000000000000     
 PAO| ======================= Iteration:        16 =============================

     Lanczos converged:  T threshold:   0.100E-02
     Est. extremal eigenvalues:    0.270E+01   0.181E+00
     Est. condition number :    0.149E+02
     NS sqrt iter    1 1.00000000   0.686E+00       0.001       64.512
     NS sqrt iter    2 1.00000000   0.313E+00       0.001      110.592
     NS sqrt iter    3 1.00000000   0.671E-01       0.001      110.592
     NS sqrt iter    4 1.00000000   0.149E-02       0.001      110.592
     NS sqrt iter    5 1.00000000   0.383E-07       0.001       60.288
     Final NS sqrt iter    5 1.00000000   0.391E-08

     Est. extremal eigenvalues     -0.91769     1.68553  converged:  T
     TRS4 it   1 1.00000000   0.888E+00       0.000       16.128   0.100E-07
     TRS4 it   2 1.00000000   0.620E+00       0.001       32.256   0.100E-07
     TRS4 it   3 1.00000000   0.420E+00       0.001       32.256   0.100E-07
     TRS4 it   4 1.00000000   0.214E+00       0.001       32.256   0.100E-07
     TRS4 it   5 1.00000000   0.692E-01       0.001       32.256   0.100E-07
     TRS4 it   6 1.00000000   0.876E-02       0.001       32.256   0.100E-07
     TRS4 it   7 1.00000000   0.168E-03       0.001       32.256   0.100E-07
     TRS4 it   8 1.00000000   0.814E-07       0.001       32.256   0.100E-07
     TRS4 it   9 1.00000000   0.265E-13       0.001       32.256   0.100E-07
     Final TRS4 iteration    9 1.00000000   0.265E-13
     Chemical potential (mu):       0.00235
 
 PAO| energy:  -7.7496985968908403      penalty:   1.4727538407123347E-005
 PAO|LS| adapt:  T T F
 PAO|LS| adapt: scan_steps:    0.0000000000000000       0.37552171291060199        0.0000000000000000     
 PAO|LS| adapt: energies:   -7.7495719790113764       -7.7496985968908403        0.0000000000000000     
 PAO| ======================= Iteration:        17 =============================

     Lanczos converged:  T threshold:   0.100E-02
     Est. extremal eigenvalues:    0.269E+01   0.182E+00
     Est. condition number :    0.148E+02
     NS sqrt iter    1 1.00000000   0.685E+00       0.001       64.512
     NS sqrt iter    2 1.00000000   0.312E+00       0.001      110.592
     NS sqrt iter    3 1.00000000   0.667E-01       0.001      110.592
     NS sqrt iter    4 1.00000000   0.146E-02       0.001      110.592
     NS sqrt iter    5 1.00000000   0.351E-07       0.001       56.448
     Final NS sqrt iter    5 1.00000000   0.606E-08

     Est. extremal eigenvalues     -0.91759     1.68653  converged:  T
     TRS4 it   1 1.00000000   0.889E+00       0.000       16.128   0.100E-07
     TRS4 it   2 1.00000000   0.619E+00       0.001       32.256   0.100E-07
     TRS4 it   3 1.00000000   0.419E+00       0.001       32.256   0.100E-07
     TRS4 it   4 1.00000000   0.212E+00       0.001       32.256   0.100E-07
     TRS4 it   5 1.00000000   0.683E-01       0.001       32.256   0.100E-07
     TRS4 it   6 1.00000000   0.853E-02       0.001       32.256   0.100E-07
     TRS4 it   7 1.00000000   0.160E-03       0.001       32.256   0.100E-07
     TRS4 it   8 1.00000000   0.753E-07       0.001       32.256   0.100E-07
     Final TRS4 iteration    8 1.00000000   0.753E-07
     Chemical potential (mu):       0.00263
 
 PAO| energy:  -7.7477739283415534      penalty:   1.4757814947296496E-005
 PAO|LS| adapt:  T T T
 PAO|LS| adapt: scan_steps:    0.0000000000000000       0.37552171291060199       0.75104342582120398     
 PAO|LS| adapt: energies:   -7.7495719790113764       -7.7496985968908403       -7.7477739283415534     
 PAO|LS| adapt: suggested step_size:   0.21094034144333543     
 PAO|LS| adapt: predicted energy  -7.7498956065676667     
 PAO| ======================= Iteration:        18 =============================

     Lanczos converged:  T threshold:   0.100E-02
     Est. extremal eigenvalues:    0.270E+01   0.181E+00
     Est. condition number :    0.149E+02
     NS sqrt iter    1 1.00000000   0.687E+00       0.001       64.512
     NS sqrt iter    2 1.00000000   0.313E+00       0.001      110.592
     NS sqrt iter    3 1.00000000   0.673E-01       0.001      110.592
     NS sqrt iter    4 1.00000000   0.151E-02       0.001      110.592
     NS sqrt iter    5 1.00000000   0.397E-07       0.001       60.928
     Final NS sqrt iter    5 1.00000000   0.403E-08

     Est. extremal eigenvalues     -0.91769     1.68512  converged:  T
     TRS4 it   1 1.00000000   0.888E+00       0.000       16.128   0.100E-07
     TRS4 it   2 1.00000000   0.620E+00       0.001       32.256   0.100E-07
     TRS4 it   3 1.00000000   0.420E+00       0.001       32.256   0.100E-07
     TRS4 it   4 1.00000000   0.214E+00       0.001       32.256   0.100E-07
     TRS4 it   5 1.00000000   0.697E-01       0.001       32.256   0.100E-07
     TRS4 it   6 1.00000000   0.887E-02       0.001       32.256   0.100E-07
     TRS4 it   7 1.00000000   0.171E-03       0.001       32.256   0.100E-07
     TRS4 it   8 1.00000000   0.844E-07       0.001       32.256   0.100E-07
     TRS4 it   9 1.00000000   0.282E-13       0.001       32.256   0.100E-07
     Final TRS4 iteration    9 1.00000000   0.282E-13
     Chemical potential (mu):       0.00209
 
 PAO| energy:  -7.7498947603715624      penalty:   1.4761478937064346E-005
 PAO|CG| trace_G_new    8.5528756415811675E-004
 PAO|CG| trace_G_prev    3.0635645782558173E-003
 PAO|CG| trace_G_mix    2.7024178686398366E-006
 PAO|CG| trace_D    3.9276592498273194E-003
 PAO|CG| trace_D_Gnew  -2.8378561077348440E-006
 PAO|CG| beta:   0.27829840844252096     
 PAO| norm of gradient:   2.9245299864390461E-002
 PAO| energy improvement:  -3.2278136018604187E-004
 PAO| step     18                   -7.749894760  0.183E-02  0.211E+00     0.047
 PAO|LS| adapt:  T F F
 PAO|LS| adapt: scan_steps:    0.0000000000000000        0.0000000000000000        0.0000000000000000     
 PAO|LS| adapt: energies:   -7.7498947603715624        0.0000000000000000        0.0000000000000000     
 PAO| ======================= Iteration:        19 =============================

     Lanczos converged:  T threshold:   0.100E-02
     Est. extremal eigenvalues:    0.270E+01   0.181E+00
     Est. condition number :    0.149E+02
     NS sqrt iter    1 1.00000000   0.687E+00       0.001       64.512
     NS sqrt iter    2 1.00000000   0.314E+00       0.001      110.592
     NS sqrt iter    3 1.00000000   0.676E-01       0.001      110.592
     NS sqrt iter    4 1.00000000   0.152E-02       0.001      110.592
     NS sqrt iter    5 1.00000000   0.402E-07       0.001       60.928
     Final NS sqrt iter    5 1.00000000   0.413E-08

     Est. extremal eigenvalues     -0.91769     1.68549  converged:  T
     TRS4 it   1 1.00000000   0.888E+00       0.000       16.128   0.100E-07
     TRS4 it   2 1.00000000   0.620E+00       0.001       32.256   0.100E-07
     TRS4 it   3 1.00000000   0.420E+00       0.001       32.256   0.100E-07
     TRS4 it   4 1.00000000   0.214E+00       0.001       32.256   0.100E-07
     TRS4 it   5 1.00000000   0.696E-01       0.001       32.256   0.100E-07
     TRS4 it   6 1.00000000   0.887E-02       0.001       32.256   0.100E-07
     TRS4 it   7 1.00000000   0.172E-03       0.001       32.256   0.100E-07
     TRS4 it   8 1.00000000   0.863E-07       0.001       32.256   0.100E-07
     TRS4 it   9 1.00000000   0.300E-13       0.001       32.256   0.100E-07
     Final TRS4 iteration    9 1.00000000   0.300E-13
     Chemical potential (mu):       0.00172
 
 PAO| energy:  -7.7500327545547023      penalty:   1.4496774073070414E-005
 PAO|LS| adapt:  T T F
 PAO|LS| adapt: scan_steps:    0.0000000000000000       0.21094034144333543        0.0000000000000000     
 PAO|LS| adapt: energies:   -7.7498947603715624       -7.7500327545547023        0.0000000000000000     
 PAO| ======================= Iteration:        20 =============================

     Lanczos converged:  T threshold:   0.100E-02
     Est. extremal eigenvalues:    0.270E+01   0.181E+00
     Est. condition number :    0.149E+02
     NS sqrt iter    1 1.00000000   0.687E+00       0.001       64.512
     NS sqrt iter    2 1.00000000   0.314E+00       0.001      110.592
     NS sqrt iter    3 1.00000000   0.678E-01       0.001      110.592
     NS sqrt iter    4 1.00000000   0.153E-02       0.001      110.592
     NS sqrt iter    5 1.00000000   0.407E-07       0.001       61.184
     Final NS sqrt iter    5 1.00000000   0.423E-08

     Est. extremal eigenvalues     -0.91769     1.68587  converged:  T
     TRS4 it   1 1.00000000   0.888E+00       0.000       16.128   0.100E-07
     TRS4 it   2 1.00000000   0.620E+00       0.001       32.256   0.100E-07
     TRS4 it   3 1.00000000   0.420E+00       0.001       32.256   0.100E-07
     TRS4 it   4 1.00000000   0.214E+00       0.001       32.256   0.100E-07
     TRS4 it   5 1.00000000   0.695E-01       0.001       32.256   0.100E-07
     TRS4 it   6 1.00000000   0.887E-02       0.001       32.256   0.100E-07
     TRS4 it   7 1.00000000   0.173E-03       0.001       32.256   0.100E-07
     TRS4 it   8 1.00000000   0.884E-07       0.001       32.256   0.100E-07
     TRS4 it   9 1.00000000   0.315E-13       0.001       32.256   0.100E-07
     Final TRS4 iteration    9 1.00000000   0.315E-13
     Chemical potential (mu):       0.00134
 
 PAO| energy:  -7.7500849889881946      penalty:   1.4244807759544536E-005
 PAO|LS| adapt:  T T F
 PAO|LS| adapt: scan_steps:    0.0000000000000000       0.42188068288667085        0.0000000000000000     
 PAO|LS| adapt: energies:   -7.7498947603715624       -7.7500849889881946        0.0000000000000000     
 PAO| ======================= Iteration:        21 =============================

     Lanczos converged:  T threshold:   0.100E-02
     Est. extremal eigenvalues:    0.270E+01   0.180E+00
     Est. condition number :    0.150E+02
     NS sqrt iter    1 1.00000000   0.687E+00       0.001       64.512
     NS sqrt iter    2 1.00000000   0.315E+00       0.001      110.592
     NS sqrt iter    3 1.00000000   0.683E-01       0.001      110.592
     NS sqrt iter    4 1.00000000   0.155E-02       0.001      110.592
     NS sqrt iter    5 1.00000000   0.419E-07       0.001       63.104
     Final NS sqrt iter    5 1.00000000   0.223E-08

     Est. extremal eigenvalues     -0.91768     1.68664  converged:  T
     TRS4 it   1 1.00000000   0.888E+00       0.000       16.128   0.100E-07
     TRS4 it   2 1.00000000   0.620E+00       0.001       32.256   0.100E-07
     TRS4 it   3 1.00000000   0.420E+00       0.001       32.256   0.100E-07
     TRS4 it   4 1.00000000   0.214E+00       0.001       32.256   0.100E-07
     TRS4 it   5 1.00000000   0.694E-01       0.001       32.256   0.100E-07
     TRS4 it   6 1.00000000   0.888E-02       0.001       32.256   0.100E-07
     TRS4 it   7 1.00000000   0.176E-03       0.001       32.256   0.100E-07
     TRS4 it   8 1.00000000   0.927E-07       0.001       32.256   0.100E-07
     TRS4 it   9 1.00000000   0.347E-13       0.001       32.256   0.100E-07
     Final TRS4 iteration    9 1.00000000   0.347E-13
     Chemical potential (mu):       0.00059
 
 PAO| energy:  -7.7499286357922959      penalty:   1.3778778081558401E-005
 PAO|LS| Need extra step
 PAO|LS| adapt:  T T T
 PAO|LS| adapt: scan_steps:    0.0000000000000000       0.42188068288667085       0.84376136577334171     
 PAO|LS| adapt: energies:   -7.7498947603715624       -7.7500849889881946       -7.7499286357922959     
 PAO|LS| adapt: suggested step_size:   0.44249830492476566     
 PAO|LS| adapt: predicted energy  -7.7500854028674313     
 PAO| ======================= Iteration:        22 =============================

     Lanczos converged:  T threshold:   0.100E-02
     Est. extremal eigenvalues:    0.270E+01   0.181E+00
     Est. condition number :    0.149E+02
     NS sqrt iter    1 1.00000000   0.687E+00       0.001       64.512
     NS sqrt iter    2 1.00000000   0.314E+00       0.001      110.592
     NS sqrt iter    3 1.00000000   0.679E-01       0.001      110.592
     NS sqrt iter    4 1.00000000   0.153E-02       0.001      110.592
     NS sqrt iter    5 1.00000000   0.407E-07       0.001       61.184
     Final NS sqrt iter    5 1.00000000   0.424E-08

     Est. extremal eigenvalues     -0.91769     1.68591  converged:  T
     TRS4 it   1 1.00000000   0.888E+00       0.000       16.128   0.100E-07
     TRS4 it   2 1.00000000   0.620E+00       0.001       32.256   0.100E-07
     TRS4 it   3 1.00000000   0.420E+00       0.001       32.256   0.100E-07
     TRS4 it   4 1.00000000   0.214E+00       0.001       32.256   0.100E-07
     TRS4 it   5 1.00000000   0.695E-01       0.001       32.256   0.100E-07
     TRS4 it   6 1.00000000   0.887E-02       0.001       32.256   0.100E-07
     TRS4 it   7 1.00000000   0.174E-03       0.001       32.256   0.100E-07
     TRS4 it   8 1.00000000   0.886E-07       0.001       32.256   0.100E-07
     TRS4 it   9 1.00000000   0.315E-13       0.001       32.256   0.100E-07
     Final TRS4 iteration    9 1.00000000   0.315E-13
     Chemical potential (mu):       0.00131
 
 PAO| energy:  -7.7500854602085187      penalty:   1.4220858776036829E-005
 PAO|CG| trace_G_new    2.2899423909864095E-004
 PAO|CG| trace_G_prev    8.5528756415811675E-004
 PAO|CG| trace_G_mix    5.1174274439072443E-006
 PAO|CG| trace_D    1.1610643310005372E-003
 PAO|CG| trace_D_Gnew  -2.7686679362689876E-006
 PAO|CG| beta:   0.26175618708440107     
 PAO| norm of gradient:   1.5132555603685748E-002
 PAO| energy improvement:  -1.9069983695629844E-004
 PAO| step     22                   -7.750085460  0.946E-03  0.442E+00     0.062
 PAO|LS| adapt:  T F F
 PAO|LS| adapt: scan_steps:    0.0000000000000000        0.0000000000000000        0.0000000000000000     
 PAO|LS| adapt: energies:   -7.7500854602085187        0.0000000000000000        0.0000000000000000     
 PAO| ======================= Iteration:        23 =============================

     Lanczos converged:  T threshold:   0.100E-02
     Est. extremal eigenvalues:    0.270E+01   0.181E+00
     Est. condition number :    0.149E+02
     NS sqrt iter    1 1.00000000   0.687E+00       0.001       64.512
     NS sqrt iter    2 1.00000000   0.314E+00       0.001      110.592
     NS sqrt iter    3 1.00000000   0.678E-01       0.001      110.592
     NS sqrt iter    4 1.00000000   0.153E-02       0.001      110.592
     NS sqrt iter    5 1.00000000   0.405E-07       0.001       61.056
     Final NS sqrt iter    5 1.00000000   0.424E-08

     Est. extremal eigenvalues     -0.91769     1.68605  converged:  T
     TRS4 it   1 1.00000000   0.888E+00       0.000       16.128   0.100E-07
     TRS4 it   2 1.00000000   0.620E+00       0.001       32.256   0.100E-07
     TRS4 it   3 1.00000000   0.420E+00       0.001       32.256   0.100E-07
     TRS4 it   4 1.00000000   0.214E+00       0.001       32.256   0.100E-07
     TRS4 it   5 1.00000000   0.697E-01       0.001       32.256   0.100E-07
     TRS4 it   6 1.00000000   0.892E-02       0.001       32.256   0.100E-07
     TRS4 it   7 1.00000000   0.176E-03       0.001       32.256   0.100E-07
     TRS4 it   8 1.00000000   0.912E-07       0.001       32.256   0.100E-07
     TRS4 it   9 1.00000000   0.345E-13       0.001       32.256   0.100E-07
     Final TRS4 iteration    9 1.00000000   0.345E-13
     Chemical potential (mu):       0.00101
 
 PAO| energy:  -7.7501234077195349      penalty:   1.3586001877945860E-005
 PAO|LS| adapt:  T T F
 PAO|LS| adapt: scan_steps:    0.0000000000000000       0.44249830492476566        0.0000000000000000     
 PAO|LS| adapt: energies:   -7.7500854602085187       -7.7501234077195349        0.0000000000000000     
 PAO| ======================= Iteration:        24 =============================

     Lanczos converged:  T threshold:   0.100E-02
     Est. extremal eigenvalues:    0.270E+01   0.181E+00
     Est. condition number :    0.149E+02
     NS sqrt iter    1 1.00000000   0.687E+00       0.001       64.512
     NS sqrt iter    2 1.00000000   0.314E+00       0.001      110.592
     NS sqrt iter    3 1.00000000   0.678E-01       0.001      110.592
     NS sqrt iter    4 1.00000000   0.152E-02       0.001      110.592
     NS sqrt iter    5 1.00000000   0.402E-07       0.001       60.800
     Final NS sqrt iter    5 1.00000000   0.426E-08

     Est. extremal eigenvalues     -0.91768     1.68620  converged:  T
     TRS4 it   1 1.00000000   0.888E+00       0.000       16.128   0.100E-07
     TRS4 it   2 1.00000000   0.620E+00       0.001       32.256   0.100E-07
     TRS4 it   3 1.00000000   0.420E+00       0.001       32.256   0.100E-07
     TRS4 it   4 1.00000000   0.215E+00       0.001       32.256   0.100E-07
     TRS4 it   5 1.00000000   0.699E-01       0.001       32.256   0.100E-07
     TRS4 it   6 1.00000000   0.898E-02       0.001       32.256   0.100E-07
     TRS4 it   7 1.00000000   0.178E-03       0.001       32.256   0.100E-07
     TRS4 it   8 1.00000000   0.940E-07       0.001       32.256   0.100E-07
     TRS4 it   9 1.00000000   0.353E-13       0.001       32.256   0.100E-07
     Final TRS4 iteration    9 1.00000000   0.353E-13
     Chemical potential (mu):       0.00071
 
 PAO| energy:  -7.7500333144268572      penalty:   1.2975861951323456E-005
 PAO|LS| adapt:  T T T
 PAO|LS| adapt: scan_steps:    0.0000000000000000       0.44249830492476566       0.88499660984953132     
 PAO|LS| adapt: energies:   -7.7500854602085187       -7.7501234077195349       -7.7500333144268572     
 PAO|LS| adapt: suggested step_size:   0.35239257562386228     
 PAO|LS| adapt: predicted energy  -7.7501260623250081     
 PAO| ======================= Iteration:        25 =============================

     Lanczos converged:  T threshold:   0.100E-02
     Est. extremal eigenvalues:    0.270E+01   0.181E+00
     Est. condition number :    0.149E+02
     NS sqrt iter    1 1.00000000   0.687E+00       0.001       64.512
     NS sqrt iter    2 1.00000000   0.314E+00       0.001      110.592
     NS sqrt iter    3 1.00000000   0.678E-01       0.001      110.592
     NS sqrt iter    4 1.00000000   0.153E-02       0.001      110.592
     NS sqrt iter    5 1.00000000   0.405E-07       0.001       61.056
     Final NS sqrt iter    5 1.00000000   0.424E-08

     Est. extremal eigenvalues     -0.91769     1.68603  converged:  T
     TRS4 it   1 1.00000000   0.888E+00       0.000       16.128   0.100E-07
     TRS4 it   2 1.00000000   0.620E+00       0.001       32.256   0.100E-07
     TRS4 it   3 1.00000000   0.420E+00       0.001       32.256   0.100E-07
     TRS4 it   4 1.00000000   0.214E+00       0.001       32.256   0.100E-07
     TRS4 it   5 1.00000000   0.697E-01       0.001       32.256   0.100E-07
     TRS4 it   6 1.00000000   0.891E-02       0.001       32.256   0.100E-07
     TRS4 it   7 1.00000000   0.175E-03       0.001       32.256   0.100E-07
     TRS4 it   8 1.00000000   0.907E-07       0.001       32.256   0.100E-07
     TRS4 it   9 1.00000000   0.333E-13       0.001       32.256   0.100E-07
     Final TRS4 iteration    9 1.00000000   0.333E-13
     Chemical potential (mu):       0.00106
 
 PAO| energy:  -7.7501260313250340      penalty:   1.3713258942275791E-005
 PAO|CG| trace_G_new    6.6562564401360247E-005
 PAO|CG| trace_G_prev    2.2899423909864095E-004
 PAO|CG| trace_G_mix    2.0481447681643359E-007
 PAO|CG| trace_D    3.0999550476022448E-004
 PAO|CG| trace_D_Gnew  -3.1424766808796735E-007
 PAO|CG| beta:   0.28977912363969877     
 PAO| norm of gradient:   8.1585883828858684E-003
 PAO| energy improvement:  -4.0571116515231154E-005
 PAO| step     25                   -7.750126031  0.510E-03  0.352E+00     0.048
 PAO|LS| adapt:  T F F
 PAO|LS| adapt: scan_steps:    0.0000000000000000        0.0000000000000000        0.0000000000000000     
 PAO|LS| adapt: energies:   -7.7501260313250340        0.0000000000000000        0.0000000000000000     
 PAO| ======================= Iteration:        26 =============================

     Lanczos converged:  T threshold:   0.100E-02
     Est. extremal eigenvalues:    0.270E+01   0.181E+00
     Est. condition number :    0.149E+02
     NS sqrt iter    1 1.00000000   0.687E+00       0.001       64.512
     NS sqrt iter    2 1.00000000   0.314E+00       0.001      110.592
     NS sqrt iter    3 1.00000000   0.678E-01       0.001      110.592
     NS sqrt iter    4 1.00000000   0.152E-02       0.001      110.592
     NS sqrt iter    5 1.00000000   0.402E-07       0.001       60.800
     Final NS sqrt iter    5 1.00000000   0.420E-08

     Est. extremal eigenvalues     -0.91769     1.68577  converged:  T
     TRS4 it   1 1.00000000   0.888E+00       0.000       16.128   0.100E-07
     TRS4 it   2 1.00000000   0.620E+00       0.001       32.256   0.100E-07
     TRS4 it   3 1.00000000   0.420E+00       0.001       32.256   0.100E-07
     TRS4 it   4 1.00000000   0.214E+00       0.001       32.256   0.100E-07
     TRS4 it   5 1.00000000   0.696E-01       0.001       32.256   0.100E-07
     TRS4 it   6 1.00000000   0.891E-02       0.001       32.256   0.100E-07
     TRS4 it   7 1.00000000   0.175E-03       0.001       32.256   0.100E-07
     TRS4 it   8 1.00000000   0.901E-07       0.001       32.256   0.100E-07
     TRS4 it   9 1.00000000   0.331E-13       0.001       32.256   0.100E-07
     Final TRS4 iteration    9 1.00000000   0.331E-13
     Chemical potential (mu):       0.00112
 
 PAO| energy:  -7.7501326147733458      penalty:   1.3180669910812284E-005
 PAO|LS| adapt:  T T F
 PAO|LS| adapt: scan_steps:    0.0000000000000000       0.35239257562386228        0.0000000000000000     
 PAO|LS| adapt: energies:   -7.7501260313250340       -7.7501326147733458        0.0000000000000000     
 PAO| ======================= Iteration:        27 =============================

     Lanczos converged:  T threshold:   0.100E-02
     Est. extremal eigenvalues:    0.270E+01   0.181E+00
     Est. condition number :    0.149E+02
     NS sqrt iter    1 1.00000000   0.687E+00       0.001       64.512
     NS sqrt iter    2 1.00000000   0.314E+00       0.001      110.592
     NS sqrt iter    3 1.00000000   0.677E-01       0.001      110.592
     NS sqrt iter    4 1.00000000   0.152E-02       0.001      110.592
     NS sqrt iter    5 1.00000000   0.398E-07       0.001       60.800
     Final NS sqrt iter    5 1.00000000   0.416E-08

     Est. extremal eigenvalues     -0.91769     1.68552  converged:  T
     TRS4 it   1 1.00000000   0.888E+00       0.000       16.128   0.100E-07
     TRS4 it   2 1.00000000   0.620E+00       0.001       32.256   0.100E-07
     TRS4 it   3 1.00000000   0.420E+00       0.001       32.256   0.100E-07
     TRS4 it   4 1.00000000   0.214E+00       0.001       32.256   0.100E-07
     TRS4 it   5 1.00000000   0.696E-01       0.001       32.256   0.100E-07
     TRS4 it   6 1.00000000   0.890E-02       0.001       32.256   0.100E-07
     TRS4 it   7 1.00000000   0.175E-03       0.001       32.256   0.100E-07
     TRS4 it   8 1.00000000   0.896E-07       0.001       32.256   0.100E-07
     TRS4 it   9 1.00000000   0.329E-13       0.001       32.256   0.100E-07
     Final TRS4 iteration    9 1.00000000   0.329E-13
     Chemical potential (mu):       0.00118
 
 PAO| energy:  -7.7501053460429823      penalty:   1.2660338666102531E-005
 PAO|LS| adapt:  T T T
 PAO|LS| adapt: scan_steps:    0.0000000000000000       0.35239257562386228       0.70478515124772456     
 PAO|LS| adapt: energies:   -7.7501260313250340       -7.7501326147733458       -7.7501053460429823     
 PAO|LS| adapt: suggested step_size:   0.24472831138841503     
 PAO|LS| adapt: predicted energy  -7.7501341947340396     
 PAO| ======================= Iteration:        28 =============================

     Lanczos converged:  T threshold:   0.100E-02
     Est. extremal eigenvalues:    0.270E+01   0.181E+00
     Est. condition number :    0.149E+02
     NS sqrt iter    1 1.00000000   0.687E+00       0.001       64.512
     NS sqrt iter    2 1.00000000   0.314E+00       0.001      110.592
     NS sqrt iter    3 1.00000000   0.678E-01       0.001      110.592
     NS sqrt iter    4 1.00000000   0.152E-02       0.001      110.592
     NS sqrt iter    5 1.00000000   0.403E-07       0.001       60.928
     Final NS sqrt iter    5 1.00000000   0.421E-08

     Est. extremal eigenvalues     -0.91769     1.68585  converged:  T
     TRS4 it   1 1.00000000   0.888E+00       0.000       16.128   0.100E-07
     TRS4 it   2 1.00000000   0.620E+00       0.001       32.256   0.100E-07
     TRS4 it   3 1.00000000   0.420E+00       0.001       32.256   0.100E-07
     TRS4 it   4 1.00000000   0.214E+00       0.001       32.256   0.100E-07
     TRS4 it   5 1.00000000   0.697E-01       0.001       32.256   0.100E-07
     TRS4 it   6 1.00000000   0.891E-02       0.001       32.256   0.100E-07
     TRS4 it   7 1.00000000   0.175E-03       0.001       32.256   0.100E-07
     TRS4 it   8 1.00000000   0.903E-07       0.001       32.256   0.100E-07
     TRS4 it   9 1.00000000   0.328E-13       0.001       32.256   0.100E-07
     Final TRS4 iteration    9 1.00000000   0.328E-13
     Chemical potential (mu):       0.00110
 
 PAO| energy:  -7.7501341932738868      penalty:   1.3342083723786054E-005
 PAO|CG| trace_G_new    1.5378923907379304E-005
 PAO|CG| trace_G_prev    6.6562564401360247E-005
 PAO|CG| trace_G_mix    5.2662964547212349E-008
 PAO|CG| trace_D    9.2775613309273476E-005
 PAO|CG| trace_D_Gnew  -2.7155125889643877E-008
 PAO|CG| beta:   0.23025346274848285     
 PAO| norm of gradient:   3.9215971118129033E-003
 PAO| energy improvement:  -8.1619488527806539E-006
 PAO| step     28                   -7.750134193  0.245E-03  0.245E+00     0.047
 PAO|LS| adapt:  T F F
 PAO|LS| adapt: scan_steps:    0.0000000000000000        0.0000000000000000        0.0000000000000000     
 PAO|LS| adapt: energies:   -7.7501341932738868        0.0000000000000000        0.0000000000000000     
 PAO| ======================= Iteration:        29 =============================

     Lanczos converged:  T threshold:   0.100E-02
     Est. extremal eigenvalues:    0.270E+01   0.181E+00
     Est. condition number :    0.149E+02
     NS sqrt iter    1 1.00000000   0.687E+00       0.001       64.512
     NS sqrt iter    2 1.00000000   0.314E+00       0.001      110.592
     NS sqrt iter    3 1.00000000   0.677E-01       0.001      110.592
     NS sqrt iter    4 1.00000000   0.152E-02       0.001      110.592
     NS sqrt iter    5 1.00000000   0.402E-07       0.001       61.056
     Final NS sqrt iter    5 1.00000000   0.420E-08

     Est. extremal eigenvalues     -0.91769     1.68582  converged:  T
     TRS4 it   1 1.00000000   0.888E+00       0.000       16.128   0.100E-07
     TRS4 it   2 1.00000000   0.620E+00       0.001       32.256   0.100E-07
     TRS4 it   3 1.00000000   0.420E+00       0.001       32.256   0.100E-07
     TRS4 it   4 1.00000000   0.214E+00       0.001       32.256   0.100E-07
     TRS4 it   5 1.00000000   0.696E-01       0.001       32.256   0.100E-07
     TRS4 it   6 1.00000000   0.889E-02       0.001       32.256   0.100E-07
     TRS4 it   7 1.00000000   0.175E-03       0.001       32.256   0.100E-07
     TRS4 it   8 1.00000000   0.897E-07       0.001       32.256   0.100E-07
     TRS4 it   9 1.00000000   0.325E-13       0.001       32.256   0.100E-07
     Final TRS4 iteration    9 1.00000000   0.325E-13
     Chemical potential (mu):       0.00117
 
 PAO| energy:  -7.7501374506298157      penalty:   1.2993635595592238E-005
 PAO|LS| adapt:  T T F
 PAO|LS| adapt: scan_steps:    0.0000000000000000       0.24472831138841503        0.0000000000000000     
 PAO|LS| adapt: energies:   -7.7501341932738868       -7.7501374506298157        0.0000000000000000     
 PAO| ======================= Iteration:        30 =============================

     Lanczos converged:  T threshold:   0.100E-02
     Est. extremal eigenvalues:    0.270E+01   0.181E+00
     Est. condition number :    0.149E+02
     NS sqrt iter    1 1.00000000   0.687E+00       0.001       64.512
     NS sqrt iter    2 1.00000000   0.314E+00       0.001      110.592
     NS sqrt iter    3 1.00000000   0.677E-01       0.001      110.592
     NS sqrt iter    4 1.00000000   0.152E-02       0.001      110.592
     NS sqrt iter    5 1.00000000   0.402E-07       0.001       60.928
     Final NS sqrt iter    5 1.00000000   0.418E-08

     Est. extremal eigenvalues     -0.91769     1.68580  converged:  T
     TRS4 it   1 1.00000000   0.888E+00       0.000       16.128   0.100E-07
     TRS4 it   2 1.00000000   0.620E+00       0.001       32.256   0.100E-07
     TRS4 it   3 1.00000000   0.420E+00       0.001       32.256   0.100E-07
     TRS4 it   4 1.00000000   0.214E+00       0.001       32.256   0.100E-07
     TRS4 it   5 1.00000000   0.695E-01       0.001       32.256   0.100E-07
     TRS4 it   6 1.00000000   0.888E-02       0.001       32.256   0.100E-07
     TRS4 it   7 1.00000000   0.174E-03       0.001       32.256   0.100E-07
     TRS4 it   8 1.00000000   0.891E-07       0.001       32.256   0.100E-07
     TRS4 it   9 1.00000000   0.324E-13       0.001       32.256   0.100E-07
     Final TRS4 iteration    9 1.00000000   0.324E-13
     Chemical potential (mu):       0.00124
 
 PAO| energy:  -7.7501396919303689      penalty:   1.2650084201469911E-005
 PAO|LS| adapt:  T T F
 PAO|LS| adapt: scan_steps:    0.0000000000000000       0.48945662277683005        0.0000000000000000     
 PAO|LS| adapt: energies:   -7.7501341932738868       -7.7501396919303689        0.0000000000000000     
 PAO| ======================= Iteration:        31 =============================

     Lanczos converged:  T threshold:   0.100E-02
     Est. extremal eigenvalues:    0.270E+01   0.181E+00
     Est. condition number :    0.149E+02
     NS sqrt iter    1 1.00000000   0.686E+00       0.001       64.512
     NS sqrt iter    2 1.00000000   0.314E+00       0.001      110.592
     NS sqrt iter    3 1.00000000   0.676E-01       0.001      110.592
     NS sqrt iter    4 1.00000000   0.152E-02       0.001      110.592
     NS sqrt iter    5 1.00000000   0.401E-07       0.001       60.928
     Final NS sqrt iter    5 1.00000000   0.415E-08

     Est. extremal eigenvalues     -0.91770     1.68575  converged:  T
     TRS4 it   1 1.00000000   0.888E+00       0.000       16.128   0.100E-07
     TRS4 it   2 1.00000000   0.620E+00       0.001       32.256   0.100E-07
     TRS4 it   3 1.00000000   0.420E+00       0.001       32.256   0.100E-07
     TRS4 it   4 1.00000000   0.214E+00       0.001       32.256   0.100E-07
     TRS4 it   5 1.00000000   0.694E-01       0.001       32.256   0.100E-07
     TRS4 it   6 1.00000000   0.885E-02       0.001       32.256   0.100E-07
     TRS4 it   7 1.00000000   0.173E-03       0.001       32.256   0.100E-07
     TRS4 it   8 1.00000000   0.878E-07       0.001       32.256   0.100E-07
     TRS4 it   9 1.00000000   0.315E-13       0.001       32.256   0.100E-07
     Final TRS4 iteration    9 1.00000000   0.315E-13
     Chemical potential (mu):       0.00137
 
 PAO| energy:  -7.7501411346173406      penalty:   1.1977625515961401E-005
 PAO|LS| Need extra step
 PAO|LS| adapt:  T T F
 PAO|LS| adapt: scan_steps:    0.0000000000000000       0.97891324555366011        0.0000000000000000     
 PAO|LS| adapt: energies:   -7.7501341932738868       -7.7501411346173406        0.0000000000000000     
 PAO| ======================= Iteration:        32 =============================

     Lanczos converged:  T threshold:   0.100E-02
     Est. extremal eigenvalues:    0.270E+01   0.181E+00
     Est. condition number :    0.149E+02
     NS sqrt iter    1 1.00000000   0.686E+00       0.001       64.512
     NS sqrt iter    2 1.00000000   0.313E+00       0.001      110.592
     NS sqrt iter    3 1.00000000   0.674E-01       0.001      110.592
     NS sqrt iter    4 1.00000000   0.151E-02       0.001      110.592
     NS sqrt iter    5 1.00000000   0.399E-07       0.001       60.928
     Final NS sqrt iter    5 1.00000000   0.411E-08

     Est. extremal eigenvalues     -0.91770     1.68563  converged:  T
     TRS4 it   1 1.00000000   0.888E+00       0.000       16.128   0.100E-07
     TRS4 it   2 1.00000000   0.620E+00       0.001       32.256   0.100E-07
     TRS4 it   3 1.00000000   0.420E+00       0.001       32.256   0.100E-07
     TRS4 it   4 1.00000000   0.214E+00       0.001       32.256   0.100E-07
     TRS4 it   5 1.00000000   0.692E-01       0.001       32.256   0.100E-07
     TRS4 it   6 1.00000000   0.880E-02       0.001       32.256   0.100E-07
     TRS4 it   7 1.00000000   0.171E-03       0.001       32.256   0.100E-07
     TRS4 it   8 1.00000000   0.854E-07       0.001       32.256   0.100E-07
     TRS4 it   9 1.00000000   0.301E-13       0.001       32.256   0.100E-07
     Final TRS4 iteration    9 1.00000000   0.301E-13
     Chemical potential (mu):       0.00165
 
 PAO| energy:  -7.7501318410490567      penalty:   1.0690962720882695E-005
 PAO|LS| Need extra step
 PAO|LS| adapt:  T T T
 PAO|LS| adapt: scan_steps:    0.0000000000000000       0.97891324555366011        1.9578264911073202     
 PAO|LS| adapt: energies:   -7.7501341932738868       -7.7501411346173406       -7.7501318410490567     
 PAO|LS| adapt: suggested step_size:   0.90799742907602177     
 PAO|LS| adapt: predicted energy  -7.7501411772181390     
 PAO| ======================= Iteration:        33 =============================

     Lanczos converged:  T threshold:   0.100E-02
     Est. extremal eigenvalues:    0.270E+01   0.181E+00
     Est. condition number :    0.149E+02
     NS sqrt iter    1 1.00000000   0.686E+00       0.001       64.512
     NS sqrt iter    2 1.00000000   0.314E+00       0.001      110.592
     NS sqrt iter    3 1.00000000   0.676E-01       0.001      110.592
     NS sqrt iter    4 1.00000000   0.152E-02       0.001      110.592
     NS sqrt iter    5 1.00000000   0.401E-07       0.001       60.928
     Final NS sqrt iter    5 1.00000000   0.416E-08

     Est. extremal eigenvalues     -0.91770     1.68575  converged:  T
     TRS4 it   1 1.00000000   0.888E+00       0.000       16.128   0.100E-07
     TRS4 it   2 1.00000000   0.620E+00       0.001       32.256   0.100E-07
     TRS4 it   3 1.00000000   0.420E+00       0.001       32.256   0.100E-07
     TRS4 it   4 1.00000000   0.214E+00       0.001       32.256   0.100E-07
     TRS4 it   5 1.00000000   0.695E-01       0.001       32.256   0.100E-07
     TRS4 it   6 1.00000000   0.886E-02       0.001       32.256   0.100E-07
     TRS4 it   7 1.00000000   0.173E-03       0.001       32.256   0.100E-07
     TRS4 it   8 1.00000000   0.880E-07       0.001       32.256   0.100E-07
     TRS4 it   9 1.00000000   0.305E-13       0.001       32.256   0.100E-07
     Final TRS4 iteration    9 1.00000000   0.305E-13
     Chemical potential (mu):       0.00136
 
 PAO| energy:  -7.7501411770410362      penalty:   1.2073848946647904E-005
 PAO|CG| trace_G_new    4.4729380344456063E-005
 PAO|CG| trace_G_prev    1.5378923907379304E-005
 PAO|CG| trace_G_mix    1.9577001443957596E-008
 PAO|CG| trace_D    2.0310081909685486E-005
 PAO|CG| trace_D_Gnew  -2.5174020143362421E-009
 PAO|CG| beta:    2.9072127290752050     
[...]
 PAO|LS| adapt: scan_steps:    0.0000000000000000       0.20000000000000001        0.0000000000000000     
 PAO|LS| adapt: energies:   -7.7492103356079021       -7.7492103356287627        0.0000000000000000     
 PAO| ======================= Iteration:       780 =============================

     Lanczos converged:  T threshold:   0.100E-02
     Est. extremal eigenvalues:    0.250E+01   0.222E+00
     Est. condition number :    0.113E+02
     NS sqrt iter    1 1.00000000   0.629E+00       0.001       64.512
     NS sqrt iter    2 1.00000000   0.265E+00       0.001      110.592
     NS sqrt iter    3 1.00000000   0.427E-01       0.001      110.592
     NS sqrt iter    4 1.00000000   0.367E-03       0.001      110.592
     NS sqrt iter    5 1.00000000   0.294E-09       0.001       36.864
     Final NS sqrt iter    5 1.00000000   0.188E-10

     Est. extremal eigenvalues     -0.91751     1.47473  converged:  T
     TRS4 it   1 1.00000000   0.843E+00       0.000       16.128   0.100E-07
     TRS4 it   2 1.00000000   0.601E+00       0.001       32.256   0.100E-07
     TRS4 it   3 1.00000000   0.430E+00       0.001       32.256   0.100E-07
     TRS4 it   4 1.00000000   0.260E+00       0.001       32.256   0.100E-07
     TRS4 it   5 1.00000000   0.119E+00       0.001       32.256   0.100E-07
     TRS4 it   6 1.00000000   0.304E-01       0.001       32.256   0.100E-07
     TRS4 it   7 1.00000000   0.265E-02       0.001       32.256   0.100E-07
     TRS4 it   8 1.00000000   0.249E-04       0.001       32.256   0.100E-07
     TRS4 it   9 1.00000000   0.250E-08       0.001       32.256   0.100E-07
     Final TRS4 iteration    9 1.00000000   0.250E-08
     Chemical potential (mu):      -0.07658
 
 PAO| energy:  -7.7492103356227826      penalty:   3.9387931821413296E-011
 PAO|LS| Need extra step
 PAO|LS| adapt:  T T T
 PAO|LS| adapt: scan_steps:    0.0000000000000000       0.20000000000000001       0.40000000000000002     
 PAO|LS| adapt: energies:   -7.7492103356079021       -7.7492103356287627       -7.7492103356227826     
 PAO|LS| adapt: suggested step_size:   0.25544010589013899     
 PAO|LS| adapt: predicted energy  -7.7492103356297939     
 PAO| ======================= Iteration:       781 =============================

     Lanczos converged:  T threshold:   0.100E-02
     Est. extremal eigenvalues:    0.250E+01   0.222E+00
     Est. condition number :    0.113E+02
     NS sqrt iter    1 1.00000000   0.629E+00       0.001       64.512
     NS sqrt iter    2 1.00000000   0.265E+00       0.001      110.592
     NS sqrt iter    3 1.00000000   0.427E-01       0.001      110.592
     NS sqrt iter    4 1.00000000   0.367E-03       0.001      110.592
     NS sqrt iter    5 1.00000000   0.294E-09       0.001       36.864
     Final NS sqrt iter    5 1.00000000   0.188E-10

     Est. extremal eigenvalues     -0.91751     1.47473  converged:  T
     TRS4 it   1 1.00000000   0.843E+00       0.000       16.128   0.100E-07
     TRS4 it   2 1.00000000   0.601E+00       0.001       32.256   0.100E-07
     TRS4 it   3 1.00000000   0.430E+00       0.001       32.256   0.100E-07
     TRS4 it   4 1.00000000   0.260E+00       0.001       32.256   0.100E-07
     TRS4 it   5 1.00000000   0.119E+00       0.001       32.256   0.100E-07
     TRS4 it   6 1.00000000   0.304E-01       0.001       32.256   0.100E-07
     TRS4 it   7 1.00000000   0.265E-02       0.001       32.256   0.100E-07
     TRS4 it   8 1.00000000   0.249E-04       0.001       32.256   0.100E-07
     TRS4 it   9 1.00000000   0.250E-08       0.001       32.256   0.100E-07
     Final TRS4 iteration    9 1.00000000   0.250E-08
     Chemical potential (mu):      -0.07658
 
 PAO| energy:  -7.7492103356297957      penalty:   3.9807164320201926E-011
 PAO|CG| warming up with steepest descent
 PAO|CG| beta:    0.0000000000000000     
 PAO| norm of gradient:   7.7902911550946881E-006
 PAO| energy improvement:  -2.1893598045608087E-011
 PAO| step    781                   -7.749210336  0.487E-06  0.255E+00     0.062
 PAO| converged after          781  steps :-)
 PAO| Recalculating energy after mixing.

     Lanczos converged:  T threshold:   0.100E-02
     Est. extremal eigenvalues:    0.250E+01   0.222E+00
     Est. condition number :    0.113E+02
     NS sqrt iter    1 1.00000000   0.629E+00       0.001       64.512
     NS sqrt iter    2 1.00000000   0.265E+00       0.001      110.592
     NS sqrt iter    3 1.00000000   0.427E-01       0.001      110.592
     NS sqrt iter    4 1.00000000   0.367E-03       0.001      110.592
     NS sqrt iter    5 1.00000000   0.294E-09       0.001       36.864
     Final NS sqrt iter    5 1.00000000   0.188E-10

     Est. extremal eigenvalues     -0.91751     1.47473  converged:  T
     TRS4 it   1 1.00000000   0.843E+00       0.000       16.128   0.100E-07
     TRS4 it   2 1.00000000   0.601E+00       0.001       32.256   0.100E-07
     TRS4 it   3 1.00000000   0.430E+00       0.001       32.256   0.100E-07
     TRS4 it   4 1.00000000   0.260E+00       0.001       32.256   0.100E-07
     TRS4 it   5 1.00000000   0.119E+00       0.001       32.256   0.100E-07
     TRS4 it   6 1.00000000   0.304E-01       0.001       32.256   0.100E-07
     TRS4 it   7 1.00000000   0.265E-02       0.001       32.256   0.100E-07
     TRS4 it   8 1.00000000   0.249E-04       0.001       32.256   0.100E-07
     TRS4 it   9 1.00000000   0.250E-08       0.001       32.256   0.100E-07
     Final TRS4 iteration    9 1.00000000   0.250E-08
     Chemical potential (mu):      -0.07658
 
 PAO| energy:  -7.7492103356243218      penalty:   4.0179752134078277E-011
 PAO| Writing restart file.
     Est. extremal eigenvalues     -0.91751     1.47473  converged:  T
     TRS4 it   1 1.00000000   0.843E+00       0.000       16.128   0.100E-07
     TRS4 it   2 1.00000000   0.601E+00       0.001       32.256   0.100E-07
     TRS4 it   3 1.00000000   0.430E+00       0.001       32.256   0.100E-07
     TRS4 it   4 1.00000000   0.260E+00       0.001       32.256   0.100E-07
     TRS4 it   5 1.00000000   0.119E+00       0.001       32.256   0.100E-07
     TRS4 it   6 1.00000000   0.304E-01       0.001       32.256   0.100E-07
     TRS4 it   7 1.00000000   0.265E-02       0.001       32.256   0.100E-07
     TRS4 it   8 1.00000000   0.249E-04       0.001       32.256   0.100E-07
     TRS4 it   9 1.00000000   0.250E-08       0.001       32.256   0.100E-07
     Final TRS4 iteration    9 1.00000000   0.250E-08
     Chemical potential (mu):      -0.07658

 SCF     1       -34.447211003       -34.447211003    1.891218

*********************************************************
 Using MIXING_FRACTION=0.450 to mix KS matrix:  iscf=  2
 KS_nw=0.450*KS + 0.550*KS_old
*********************************************************
     Est. extremal eigenvalues     -0.91751     1.47473  converged:  T
     TRS4 it   1 1.00000000   0.843E+00       0.000       16.128   0.100E-07
     TRS4 it   2 1.00000000   0.601E+00       0.001       32.256   0.100E-07
     TRS4 it   3 1.00000000   0.430E+00       0.001       32.256   0.100E-07
     TRS4 it   4 1.00000000   0.260E+00       0.001       32.256   0.100E-07
     TRS4 it   5 1.00000000   0.119E+00       0.001       32.256   0.100E-07
     TRS4 it   6 1.00000000   0.304E-01       0.001       32.256   0.100E-07
     TRS4 it   7 1.00000000   0.265E-02       0.001       32.256   0.100E-07
     TRS4 it   8 1.00000000   0.249E-04       0.001       32.256   0.100E-07
     TRS4 it   9 1.00000000   0.250E-08       0.001       32.256   0.100E-07
     Final TRS4 iteration    9 1.00000000   0.250E-08
     Chemical potential (mu):      -0.07658

 SCF     2       -34.447211003         0.000000000    1.898012

 PAO| Storing density matrix for ASPC guess in slot:           1

 ENERGY| Total FORCE_EVAL ( QS ) energy (a.u.):              -34.447211003218726


 -------------------------------------------------------------------------------
 -                                                                             -
 -                                DBCSR STATISTICS                             -
 -                                                                             -
 -------------------------------------------------------------------------------
 COUNTER                                    TOTAL       BLAS       SMM       ACC
 flops     5 x     5 x     4                26000       0.0%    100.0%      0.0%
 flops    13 x     5 x     4                27040       0.0%    100.0%      0.0%
 flops     5 x    13 x     4                27040       0.0%    100.0%      0.0%
 flops    13 x    13 x     4                52728       0.0%    100.0%      0.0%
 flops     4 x     4 x     5              6105600       0.0%    100.0%      0.0%
 flops     5 x     4 x     5              7440000       0.0%    100.0%      0.0%
 flops     4 x     4 x    13              7937280       0.0%    100.0%      0.0%
 flops    13 x     4 x     5              9672000       0.0%    100.0%      0.0%
 flops     5 x     4 x    13              9672000       0.0%    100.0%      0.0%
 flops     5 x     4 x     4             11386560       0.0%    100.0%      0.0%
 flops    13 x     4 x    13             12573600       0.0%    100.0%      0.0%
 flops    13 x     4 x     4             14835392       0.0%    100.0%      0.0%
 flops     4 x     4 x     4            774337664       0.0%    100.0%      0.0%
 flops inhomo. stacks                           0       0.0%      0.0%      0.0%
 flops total                       854.092904E+06       0.0%    100.0%      0.0%
 flops max/rank                    854.092904E+06       0.0%    100.0%      0.0%
 matmuls inhomo. stacks                         0       0.0%      0.0%      0.0%
 matmuls total                            6297554       0.0%    100.0%      0.0%
 number of processed stacks                 50135       0.0%    100.0%      0.0%
 average stack size                                     0.0     125.6       0.0
 marketing flops                     1.394298E+09
 -------------------------------------------------------------------------------
 # multiplications                          42035
 max memory usage/rank             321.294336E+06
 # max total images/rank                        1
 # max 3D layers                                1
 # MPI messages exchanged                       0
 MPI messages size (bytes):
  total size                         0.000000E+00
  min size                           0.000000E+00
  max size                           0.000000E+00
  average size                       0.000000E+00
 MPI breakdown and total messages size (bytes):
             size <=      128                   0                        0
       128 < size <=     8192                   0                        0
      8192 < size <=    32768                   0                        0
     32768 < size <=   131072                   0                        0
    131072 < size <=  4194304                   0                        0
   4194304 < size <= 16777216                   0                        0
  16777216 < size                               0                        0
 -------------------------------------------------------------------------------

 MEMORY| Estimated peak process memory [MiB]                                 307

 -------------------------------------------------------------------------------
 -                                                                             -
 -                           R E F E R E N C E S                               -
 -                                                                             -
 -------------------------------------------------------------------------------
 
 CP2K version 7.0 (Development Version), the CP2K developers group (2018).
 CP2K is freely available from https://www.cp2k.org/ .

 Schuett, O; VandeVondele, J. 
 Journal of Chemical Theory and Computation, 14, (2018). 
 Machine Learning Adaptive Basis Sets for Efficient Large Scale Density Functional Theory Simulation.
 https://dx.doi.org/10.1021/acs.jctc.8b00378


 Schuett, Ole; Messmer, Peter; Hutter, Juerg; VandeVondele, Joost. 
 Electronic Structure Calculations on Graphics Processing Units, John Wiley & Sons, Ltd, 173-190 (2016). 
 GPU-Accelerated Sparse Matrix-Matrix Multiplication for Linear Scaling Density Functional Theory.
 https://dx.doi.org/10.1002/9781118670712.ch8


 Borstnik, U; VandeVondele, J; Weber, V; Hutter, J. 
 PARALLEL COMPUTING, 40 (5-6), 47-58 (2014). 
 Sparse matrix multiplication: The distributed block-compressed sparse
 row library.
 https://dx.doi.org/10.1016/j.parco.2014.03.012


 Hutter, J; Iannuzzi, M; Schiffmann, F; VandeVondele, J. 
 WILEY INTERDISCIPLINARY REVIEWS-COMPUTATIONAL MOLECULAR SCIENCE, 4 (1), 15-25 (2014). 
 CP2K: atomistic simulations of condensed matter systems.
 https://dx.doi.org/10.1002/wcms.1159


 VandeVondele, J; Borstnik, U; Hutter, J. 
 JOURNAL OF CHEMICAL THEORY AND COMPUTATION, 8 (10), 3565-3573 (2012). 
 Linear Scaling Self-Consistent Field Calculations with Millions of Atoms
 in the Condensed Phase.
 https://dx.doi.org/10.1021/ct200897x


 VandeVondele, J; Hutter, J. 
 JOURNAL OF CHEMICAL PHYSICS, 127 (11), 114105 (2007). 
 Gaussian basis sets for accurate calculations on molecular systems in
 gas and condensed phases.
 https://dx.doi.org/10.1063/1.2770708


 Krack, M. 
 THEORETICAL CHEMISTRY ACCOUNTS, 114 (1-3), 145-152 (2005). 
 Pseudopotentials for H to Kr optimized for gradient-corrected
 exchange-correlation functionals.
 https://dx.doi.org/10.1007/s00214-005-0655-y


 VandeVondele, J; Krack, M; Mohamed, F; Parrinello, M; Chassaing, T;
 Hutter, J. COMPUTER PHYSICS COMMUNICATIONS, 167 (2), 103-128 (2005). 
 QUICKSTEP: Fast and accurate density functional calculations using a
 mixed Gaussian and plane waves approach.
 https://dx.doi.org/10.1016/j.cpc.2004.12.014


 Frigo, M; Johnson, SG. 
 PROCEEDINGS OF THE IEEE, 93 (2), 216-231 (2005). 
 The design and implementation of FFTW3.
 https://dx.doi.org/10.1109/JPROC.2004.840301


 Niklasson, AMN; Tymczak, CJ; Challacombe, M. 
 JOURNAL OF CHEMICAL PHYSICS, 118 (19), 8611-8620 (2003). 
 Trace resetting density matrix purification in O(N)
 self-consistent-field theory.
 https://dx.doi.org/10.1063/1.1559913


 Hartwigsen, C; Goedecker, S; Hutter, J. 
 PHYSICAL REVIEW B, 58 (7), 3641-3662 (1998). 
 Relativistic separable dual-space Gaussian pseudopotentials from H to Rn.
 https://dx.doi.org/10.1103/PhysRevB.58.3641


 Lippert, G; Hutter, J; Parrinello, M. 
 MOLECULAR PHYSICS, 92 (3), 477-487 (1997). 
 A hybrid Gaussian and plane wave density functional scheme.
 https://dx.doi.org/10.1080/002689797170220


 Perdew, JP; Burke, K; Ernzerhof, M. 
 PHYSICAL REVIEW LETTERS, 77 (18), 3865-3868 (1996). 
 Generalized gradient approximation made simple.
 https://dx.doi.org/10.1103/PhysRevLett.77.3865


 Goedecker, S; Teter, M; Hutter, J. 
 PHYSICAL REVIEW B, 54 (3), 1703-1710 (1996). 
 Separable dual-space Gaussian pseudopotentials.
 https://dx.doi.org/10.1103/PhysRevB.54.1703


 -------------------------------------------------------------------------------
 -                                                                             -
 -                                T I M I N G                                  -
 -                                                                             -
 -------------------------------------------------------------------------------
 SUBROUTINE                       CALLS  ASD         SELF TIME        TOTAL TIME
                                MAXIMUM       AVERAGE  MAXIMUM  AVERAGE  MAXIMUM
 CP2K                                 1  1.0    0.029    0.029   37.819   37.819
 qs_energies                          1  2.0    0.000    0.000   37.453   37.453
 ls_scf                               1  3.0    0.000    0.000   37.352   37.352
 ls_scf_main                          6  4.0    0.001    0.001   22.727   22.727
 ls_scf_dm_to_ks                     12  5.0    0.000    0.000   22.632   22.632
 qs_ks_update_qs_env                 13  6.0    0.000    0.000   17.310   17.310
 rebuild_ks_matrix                   13  7.0    0.000    0.000   17.310   17.310
 qs_ks_build_kohn_sham_matrix        13  8.0    0.002    0.002   17.310   17.310
 pao_update                           6  4.0    0.017    0.017   12.614   12.614
 pao_calc_energy                    786  5.0    0.006    0.006   11.419   11.419
 qs_vxc_create                       13  9.0    0.000    0.000    9.817    9.817
 xc_vxc_pw_create                    13 10.0    0.159    0.159    9.817    9.817
 dbcsr_multiply_generic           42035  8.4    0.719    0.719    9.241    9.241
 qs_rho_update_rho                   13  6.0    0.000    0.000    7.261    7.261
 calculate_rho_elec                  13  7.0    5.910    5.910    7.261    7.261
 xc_rho_set_and_dset_create          13 11.0    0.060    0.060    7.175    7.175
 sum_up_and_integrate                13  9.0    0.027    0.027    6.452    6.452
 integrate_v_rspace                  13 10.0    5.710    5.710    6.425    6.425
 pw_transfer                        248 10.6    0.016    0.016    6.193    6.193
 fft_wrap_pw1pw2                    222 11.7    0.002    0.002    6.060    6.060
 pao_dm_trs4                        786  6.0    0.004    0.004    5.913    5.913
 fft_wrap_pw1pw2_200                144 12.8    0.495    0.495    5.800    5.800
 density_matrix_trs4                798  7.0    0.315    0.315    5.641    5.641
 ls_scf_init_matrix_S               792  7.0    0.005    0.005    5.484    5.484
 pao_rebuild_S                      786  6.0    0.004    0.004    5.443    5.443
 xc_functional_eval                  13 12.0    0.000    0.000    4.945    4.945
 pbe_lda_eval                        13 13.0    4.945    4.945    4.945    4.945
 matrix_sqrt_Newton_Schulz          792  8.0    0.204    0.204    4.929    4.929
 multiply_cannon                  42035  9.4    1.638    1.638    3.530    3.530
 make_m2s                         84070  9.4    0.243    0.243    3.429    3.429
 fft3d_s                            223 13.6    3.378    3.378    3.389    3.389
 make_images                      84070 10.4    0.911    0.911    3.052    3.052
 pao_guess_initial_P                  1  4.0    0.000    0.000    1.946    1.946
 pao_read_preopt_dm                   1  5.0    0.000    0.000    1.946    1.946
 arnoldi_extremal                  1590  8.5    0.006    0.006    1.535    1.535
 arnoldi_normal_ev                 1590  9.5    0.017    0.017    1.529    1.529
 density_rs2pw                       13  8.0    0.001    0.001    1.328    1.328
 pao_calc_AB                       1032  5.8    0.001    0.001    1.166    1.166
 pao_calc_AB_direct                1032  6.8    0.038    0.038    1.165    1.165
 build_subspace                    1590 10.5    0.094    0.094    1.141    1.141
 pw_scatter_s                       117 14.2    1.094    1.094    1.094    1.094
 pao_calc_grad_lnv_wrt_AB           245  7.0    0.012    0.012    1.085    1.085
 pw_gather_s                        105 13.1    1.060    1.060    1.060    1.060
 dbcsr_matrix_vector_mult         38117 11.5    0.185    0.185    1.005    1.005
 dbcsr_create_new                321522 10.7    0.561    0.561    0.993    0.993
 dbcsr_finalize                   99340  9.7    0.184    0.184    0.958    0.958
 -------------------------------------------------------------------------------

 The number of warnings for this run is : 0
 
 -------------------------------------------------------------------------------
  **** **** ******  **  PROGRAM ENDED AT                 2019-02-14 11:13:56.898
 ***** ** ***  *** **   PROGRAM RAN ON                                      otto
 **    ****   ******    PROGRAM RAN BY                                       ole
 ***** **    ** ** **   PROGRAM PROCESS ID                                  7818
  **** **  *******  **  PROGRAM STOPPED IN /home/ole/git/pao_ml_equivar/2H2O_MD/
                                           frame_1675
