 DBCSR| CPU Multiplication driver                                           XSMM (U)
 DBCSR| Multrec recursion limit                                              512 (U)
 DBCSR| Multiplication stack size                                           1000 (D)
 DBCSR| Maximum elements for images                                    UNLIMITED (U)
 DBCSR| Multiplicative factor virtual images                                   1 (U)
 DBCSR| Use multiplication densification                                       T (D)
 DBCSR| Multiplication size stacks                                             3 (U)
 DBCSR| Use memory pool for CPU allocation                                     F (U)
 DBCSR| Number of 3D layers                                               SINGLE (U)
 DBCSR| Use MPI memory allocation                                              F (U)
 DBCSR| Use RMA algorithm                                                      F (U)
 DBCSR| Use Communication thread                                               T (U)
 DBCSR| Communication thread load                                             87 (D)
 DBCSR| MPI: My process id                                                     0
 DBCSR| MPI: Number of processes                                              32
 DBCSR| OMP: Current number of threads                                         1
 DBCSR| OMP: Max number of threads                                             1
 DBCSR| Split modifier for TAS multiplication algorithm                  1.0E+00 (U)


  **** **** ******  **  PROGRAM STARTED AT               2024-09-23 17:34:52.201
 ***** ** ***  *** **   PROGRAM STARTED ON                                moritz
 **    ****   ******    PROGRAM STARTED BY                                   ole
 ***** **    ** ** **   PROGRAM PROCESS ID                                156237
  **** **  *******  **  PROGRAM STARTED IN /home/ole/git/pao_ml_equivar/64H2O_MD
                                           /Frame1600

 CP2K| version string:                 CP2K version 2024.3 (Development Version)
 CP2K| source code revision number:                                  git:3f890bb
 CP2K| cp2kflags: omp libint fftw3 libxc libgrpp pexsi elpa parallel scalapack c
 CP2K|            osma quip deepmd xsmm plumed2 spglib libdftd4 sirius libvori l
 CP2K|            libbqb libvdwxc hdf5
 CP2K| is freely available from                            https://www.cp2k.org/
 CP2K| Program compiled at                          Mo 23 Sep 2024 17:17:04 CEST
 CP2K| Program compiled on                                                moritz
 CP2K| Program compiled for                                                local
 CP2K| Data directory path                               /home/ole/git/cp2k/data
 CP2K| Input file name                                             64H2O_ref.inp

 GLOBAL| Force Environment number                                              1
 GLOBAL| Basis set file name                                        BASIS_MOLOPT
 GLOBAL| Potential file name                                      GTH_POTENTIALS
 GLOBAL| MM Potential file name                                     MM_POTENTIAL
 GLOBAL| Coordinate file name                                         coords.xyz
 GLOBAL| Method name                                                        CP2K
 GLOBAL| Project name                                                  64H2O_ref
 GLOBAL| Run type                                                         ENERGY
 GLOBAL| FFT library                                                       FFTW3
 GLOBAL| Diagonalization library                                            ELPA
 GLOBAL| DGEMM library                                                      BLAS
 GLOBAL| Minimum number of eigenvectors for ELPA usage                        16
 GLOBAL| Orthonormality check for eigenvectors                          DISABLED
 GLOBAL| Matrix multiplication library                                     COSMA
 GLOBAL| All-to-all communication in single precision                          F
 GLOBAL| FFTs using library dependent lengths                                  F
 GLOBAL| Grid backend                                                       AUTO
 GLOBAL| Global print level                                                  LOW
 GLOBAL| MPI I/O enabled                                                       T
 GLOBAL| Total number of message passing processes                            32
 GLOBAL| Number of threads for this process                                    1
 GLOBAL| This output is from process                                           0
 GLOBAL| Stack size for threads created by OpenMP (OMP_STACKSIZE)        default
 GLOBAL| CPU model name           AMD Ryzen Threadripper 3970X 32-Core Processor
 GLOBAL| CPUID                                                              1002

 MEMORY| system memory details [Kb]
 MEMORY|                        rank 0           min           max       average
 MEMORY| MemTotal            131752136     131752136     131752136     131752136
 MEMORY| MemFree             118573768     118573768     118573768     118573768
 MEMORY| Buffers                259556        259556        259556        259556
 MEMORY| Cached                6976212       6976212       6976212       6976212
 MEMORY| Slab                   698564        698564        698564        698564
 MEMORY| SReclaimable           266444        266444        266444        266444
 MEMORY| MemLikelyFree       126075980     126075980     126075980     126075980


 GENERATE|  Preliminary Number of Bonds generated:                             0
 GENERATE|  Achieved consistency in connectivity generation.

 *******************************************************************************
 *******************************************************************************
 **                                                                           **
 **     #####                         ##              ##                      **
 **    ##   ##            ##          ##              ##                      **
 **   ##     ##                       ##            ######                    **
 **   ##     ##  ##   ##  ##   #####  ##  ##   ####   ##    #####    #####    **
 **   ##     ##  ##   ##  ##  ##      ## ##   ##      ##   ##   ##  ##   ##   **
 **   ##  ## ##  ##   ##  ##  ##      ####     ###    ##   ######   ######    **
 **    ##  ###   ##   ##  ##  ##      ## ##      ##   ##   ##       ##        **
 **     #######   #####   ##   #####  ##  ##  ####    ##    #####   ##        **
 **           ##                                                    ##        **
 **                                                                           **
 **                                                ... make the atoms dance   **
 **                                                                           **
 **            Copyright (C) by CP2K developers group (2000-2024)             **
 **                      J. Chem. Phys. 152, 194103 (2020)                    **
 **                                                                           **
 *******************************************************************************


 TOTAL NUMBERS AND MAXIMUM NUMBERS

  Total number of            - Atomic kinds:                                   2
                             - Atoms:                                        192
                             - Shell sets:                                   192
                             - Shells:                                       704
                             - Primitive Cartesian functions:               1344
                             - Cartesian basis functions:                   1536
                             - Spherical basis functions:                   1472

  Maximum angular momentum of- Orbital basis functions:                        2
                             - Local part of the GTH pseudopotential:          2
                             - Non-local part of the GTH pseudopotential:      0

 ------------------------------ Linear scaling SCF -----------------------------
 eps_scf:                                                              0.100E-07
 eps_filter:                                                           0.100E-11
 mixing_fraction:                                                      0.450E+00
 max_scf:                                                                     25
 fixed chemical potential (mu)                                                 F
 has unit metric:                                                              F
 Computing inv(S):                                                             T
 Computing sqrt(S):                                                            T
 Computing S preconditioner                                                    F
 S sqrt method:                                                     NEWTONSCHULZ
 S sqrt order:                                                                 3
 Extrapolation order:                                                          1
 S preconditioner type                                                      NONE
 Polarized Atomic Orbitals (PAO)                                               F
 Purification method                                   Trace resetting 4th order
 Cluster type                                                             ATOMIC
 Computing Chebyshev                                                       FALSE
 Using PAO                                                                     F
 -------------------------------------------------------------------------------


     Lanczos converged:  F threshold:   0.100E-02
     Est. extremal eigenvalues:    0.834E+01   0.584E-02
     Est. condition number :    0.143E+04

 Order=           3
     NS sqrt iter    1 1.00000000   0.215E+01       0.064     6246.816
     NS sqrt iter    2 1.00000000   0.114E+01       0.099     8078.995
     NS sqrt iter    3 1.00000000   0.567E+00       0.097     8219.826
     NS sqrt iter    4 1.00000000   0.328E+00       0.099     8055.382
     NS sqrt iter    5 1.00000000   0.222E+00       0.099     8070.930
     NS sqrt iter    6 1.00000000   0.101E+00       0.098     8102.238
     NS sqrt iter    7 1.00000000   0.118E-01       0.097     8219.298
     NS sqrt iter    8 1.00000000   0.510E-04       0.097     8234.521
     NS sqrt iter    9 1.00000000   0.197E-10       0.053     5635.004
     Symmetrizing Results
     Final NS sqrt iter    9 1.00000000   0.715E-11



 Guess for atomic kind: O

 Electronic structure
    Total number of core electrons                                          2.00
    Total number of valence electrons                                       6.00
    Total number of electrons                                               8.00
    Multiplicity                                                   not specified
    S   [  2.00] 2.00
    P      4.00


 *******************************************************************************
                  Iteration          Convergence                     Energy [au]
 *******************************************************************************
                          1        0.708315                     -15.576645311500
                          2        0.608879                     -15.587933561584
                          3        0.102828E-01                 -15.656849565404
                          4        0.113889E-02                 -15.656866888140
                          5        0.434197E-03                 -15.656867072159
                          6        0.263771E-03                 -15.656867091904
                          7        0.478536E-06                 -15.656867103452

 Energy components [Hartree]           Total Energy ::          -15.656867103452
                                        Band Energy ::           -3.000198112285
                                     Kinetic Energy ::           11.759971203220
                                   Potential Energy ::          -27.416838306672
                                      Virial (-V/T) ::            2.331369510426
                                        Core Energy ::          -26.140716385623
                                          XC Energy ::           -3.154051012914
                                     Coulomb Energy ::           13.637900295084
                       Total Pseudopotential Energy ::          -37.935781716540
                       Local Pseudopotential Energy ::          -39.218907440693
                    Nonlocal Pseudopotential Energy ::            1.283125724153
                                        Confinement ::            0.350941276976

 Orbital energies  State     L     Occupation   Energy[a.u.]          Energy[eV]

                       1     0          2.000      -0.864471          -23.523463

                       1     1          4.000      -0.317814           -8.648154


 Total Electron Density at R=0:                                         0.000068

 Guess for atomic kind: H

 Electronic structure
    Total number of core electrons                                          0.00
    Total number of valence electrons                                       1.00
    Total number of electrons                                               1.00
    Multiplicity                                                   not specified
    S      1.00


 *******************************************************************************
                  Iteration          Convergence                     Energy [au]
 *******************************************************************************
                          1        0.437545E-02                  -0.424159432110
                          2        0.531356E-03                  -0.424178438213
                          3        0.259176E-06                  -0.424178722480

 Energy components [Hartree]           Total Energy ::           -0.424178722480
                                        Band Energy ::           -0.199015229016
                                     Kinetic Energy ::            0.464007633961
                                   Potential Energy ::           -0.888186356441
                                      Virial (-V/T) ::            1.914163240935
                                        Core Energy ::           -0.479160803564
                                          XC Energy ::           -0.244352904054
                                     Coulomb Energy ::            0.299334985138
                       Total Pseudopotential Energy ::           -0.962295316385
                       Local Pseudopotential Energy ::           -0.962295316385
                    Nonlocal Pseudopotential Energy ::            0.000000000000
                                        Confinement ::            0.191268788606

 Orbital energies  State     L     Occupation   Energy[a.u.]          Energy[eV]

                       1     0          1.000      -0.199015           -5.415480


 Total Electron Density at R=0:                                         0.242907
 Re-scaling the density matrix to get the right number of electrons
                  # Electrons              Trace(P)               Scaling factor
                          512               512.001                        1.000
 Energy with the initial guess:     -1095.646512031

     Est. extremal eigenvalues     -0.94025     5.16464  converged:  T
     TRS4 it   1 1.00000000   0.566E+02       0.019     5386.160   0.100E-11
     TRS4 it   2 1.00000000   0.536E+02       0.019     5377.156   0.100E-11
     TRS4 it   3 1.00000000   0.334E+02       0.036     5511.718   0.100E-11
     TRS4 it   4 1.00000000   0.177E+02       0.036     5597.829   0.100E-11
     TRS4 it   5 1.00000000   0.107E+02       0.036     5546.364   0.100E-11
     TRS4 it   6 1.00000000   0.486E+01       0.035     5709.367   0.100E-11
     TRS4 it   7 1.00000000   0.144E+01       0.036     5597.279   0.100E-11
     TRS4 it   8 1.00000000   0.218E+00       0.036     5579.450   0.100E-11
     TRS4 it   9 1.00000000   0.931E-02       0.035     5697.316   0.100E-11
     TRS4 it  10 1.00000000   0.259E-04       0.035     5682.499   0.100E-11
     TRS4 it  11 1.00000000   0.685E-10       0.035     5674.452   0.100E-11
     Final TRS4 iteration   11 1.00000000   0.685E-10
     Chemical potential (mu):      -0.10623

 SCF     1     -1097.974365767     -1097.974365767    2.045979

*********************************************************
 Using MIXING_FRACTION=0.450 to mix KS matrix:  iscf=  2
 KS_nw=0.450*KS + 0.550*KS_old
*********************************************************
     Est. extremal eigenvalues     -0.83111     5.25059  converged:  T
     TRS4 it   1 1.00000000   0.559E+02       0.018     5448.687   0.100E-11
     TRS4 it   2 1.00000000   0.538E+02       0.018     5441.254   0.100E-11
     TRS4 it   3 1.00000000   0.347E+02       0.036     5532.184   0.100E-11
     TRS4 it   4 1.00000000   0.184E+02       0.036     5583.599   0.100E-11
     TRS4 it   5 1.00000000   0.119E+02       0.036     5639.886   0.100E-11
     TRS4 it   6 1.00000000   0.623E+01       0.036     5614.894   0.100E-11
     TRS4 it   7 1.00000000   0.248E+01       0.036     5619.659   0.100E-11
     TRS4 it   8 1.00000000   0.679E+00       0.036     5646.851   0.100E-11
     TRS4 it   9 1.00000000   0.100E+00       0.036     5650.867   0.100E-11
     TRS4 it  10 1.00000000   0.508E-02       0.036     5557.150   0.100E-11
     TRS4 it  11 1.00000000   0.660E-05       0.036     5651.408   0.100E-11
     TRS4 it  12 1.00000000   0.749E-11       0.036     5546.730   0.100E-11
     Final TRS4 iteration   12 1.00000000   0.749E-11
     Chemical potential (mu):      -0.01865

 SCF     2     -1102.987306967        -5.012941200    2.070071

*********************************************************
 Using MIXING_FRACTION=0.450 to mix KS matrix:  iscf=  3
 KS_nw=0.450*KS + 0.550*KS_old
*********************************************************
     Est. extremal eigenvalues     -0.84002     5.24230  converged:  T
     TRS4 it   1 1.00000000   0.559E+02       0.019     5343.612   0.100E-11
     TRS4 it   2 1.00000000   0.538E+02       0.018     5434.622   0.100E-11
     TRS4 it   3 1.00000000   0.345E+02       0.036     5589.820   0.100E-11
     TRS4 it   4 1.00000000   0.183E+02       0.035     5681.936   0.100E-11
     TRS4 it   5 1.00000000   0.117E+02       0.036     5630.939   0.100E-11
     TRS4 it   6 1.00000000   0.600E+01       0.036     5621.638   0.100E-11
     TRS4 it   7 1.00000000   0.230E+01       0.036     5627.878   0.100E-11
     TRS4 it   8 1.00000000   0.589E+00       0.036     5540.638   0.100E-11
     TRS4 it   9 1.00000000   0.757E-01       0.036     5598.888   0.100E-11
     TRS4 it  10 1.00000000   0.271E-02       0.036     5600.311   0.100E-11
     TRS4 it  11 1.00000000   0.170E-05       0.036     5548.843   0.100E-11
     TRS4 it  12 1.00000000   0.707E-12       0.035     5670.100   0.100E-11
     Final TRS4 iteration   12 1.00000000   0.707E-12
     Chemical potential (mu):      -0.02788

 SCF     3     -1103.150939162        -0.163632195    2.079961

*********************************************************
 Using MIXING_FRACTION=0.450 to mix KS matrix:  iscf=  4
 KS_nw=0.450*KS + 0.550*KS_old
*********************************************************
     Est. extremal eigenvalues     -0.83538     5.24751  converged:  T
     TRS4 it   1 1.00000000   0.559E+02       0.018     5555.860   0.100E-11
     TRS4 it   2 1.00000000   0.538E+02       0.018     5471.541   0.100E-11
     TRS4 it   3 1.00000000   0.346E+02       0.037     5476.722   0.100E-11
     TRS4 it   4 1.00000000   0.184E+02       0.035     5683.297   0.100E-11
     TRS4 it   5 1.00000000   0.118E+02       0.036     5586.648   0.100E-11
     TRS4 it   6 1.00000000   0.609E+01       0.036     5647.639   0.100E-11
     TRS4 it   7 1.00000000   0.237E+01       0.036     5628.187   0.100E-11
     TRS4 it   8 1.00000000   0.624E+00       0.036     5526.914   0.100E-11
     TRS4 it   9 1.00000000   0.855E-01       0.036     5638.353   0.100E-11
     TRS4 it  10 1.00000000   0.359E-02       0.035     5721.428   0.100E-11
     TRS4 it  11 1.00000000   0.341E-05       0.036     5589.993   0.100E-11
     TRS4 it  12 1.00000000   0.259E-11       0.036     5521.753   0.100E-11
     Final TRS4 iteration   12 1.00000000   0.259E-11
     Chemical potential (mu):      -0.02181

 SCF     4     -1103.159245638        -0.008306475    2.079657

*********************************************************
 Using MIXING_FRACTION=0.450 to mix KS matrix:  iscf=  5
 KS_nw=0.450*KS + 0.550*KS_old
*********************************************************
     Est. extremal eigenvalues     -0.83398     5.24820  converged:  T
     TRS4 it   1 1.00000000   0.559E+02       0.019     5395.323   0.100E-11
     TRS4 it   2 1.00000000   0.538E+02       0.018     5436.922   0.100E-11
     TRS4 it   3 1.00000000   0.346E+02       0.036     5573.167   0.100E-11
     TRS4 it   4 1.00000000   0.184E+02       0.036     5629.154   0.100E-11
     TRS4 it   5 1.00000000   0.118E+02       0.036     5594.443   0.100E-11
     TRS4 it   6 1.00000000   0.608E+01       0.036     5647.134   0.100E-11
     TRS4 it   7 1.00000000   0.236E+01       0.036     5559.654   0.100E-11
     TRS4 it   8 1.00000000   0.622E+00       0.036     5645.410   0.100E-11
     TRS4 it   9 1.00000000   0.852E-01       0.036     5618.809   0.100E-11
     TRS4 it  10 1.00000000   0.356E-02       0.035     5693.707   0.100E-11
     TRS4 it  11 1.00000000   0.338E-05       0.036     5543.899   0.100E-11
     TRS4 it  12 1.00000000   0.277E-11       0.036     5607.353   0.100E-11
     Final TRS4 iteration   12 1.00000000   0.277E-11
     Chemical potential (mu):      -0.02103

 SCF     5     -1103.159892767        -0.000647129    2.082502

*********************************************************
 Using MIXING_FRACTION=0.450 to mix KS matrix:  iscf=  6
 KS_nw=0.450*KS + 0.550*KS_old
*********************************************************
     Est. extremal eigenvalues     -0.83327     5.24898  converged:  T
     TRS4 it   1 1.00000000   0.559E+02       0.018     5446.853   0.100E-11
     TRS4 it   2 1.00000000   0.538E+02       0.018     5456.678   0.100E-11
     TRS4 it   3 1.00000000   0.346E+02       0.037     5483.687   0.100E-11
     TRS4 it   4 1.00000000   0.184E+02       0.036     5563.815   0.100E-11
     TRS4 it   5 1.00000000   0.118E+02       0.035     5696.575   0.100E-11
     TRS4 it   6 1.00000000   0.609E+01       0.036     5631.145   0.100E-11
     TRS4 it   7 1.00000000   0.237E+01       0.036     5544.947   0.100E-11
     TRS4 it   8 1.00000000   0.626E+00       0.035     5697.097   0.100E-11
     TRS4 it   9 1.00000000   0.864E-01       0.035     5669.295   0.100E-11
     TRS4 it  10 1.00000000   0.368E-02       0.035     5664.661   0.100E-11
     TRS4 it  11 1.00000000   0.369E-05       0.035     5711.341   0.100E-11
     TRS4 it  12 1.00000000   0.333E-11       0.036     5618.886   0.100E-11
     Final TRS4 iteration   12 1.00000000   0.333E-11
     Chemical potential (mu):      -0.02009

 SCF     6     -1103.159986631        -0.000093864    2.091071

*********************************************************
 Using MIXING_FRACTION=0.450 to mix KS matrix:  iscf=  7
 KS_nw=0.450*KS + 0.550*KS_old
*********************************************************
     Est. extremal eigenvalues     -0.83279     5.24927  converged:  T
     TRS4 it   1 1.00000000   0.559E+02       0.019     5394.563   0.100E-11
     TRS4 it   2 1.00000000   0.538E+02       0.018     5537.982   0.100E-11
     TRS4 it   3 1.00000000   0.346E+02       0.036     5568.233   0.100E-11
     TRS4 it   4 1.00000000   0.184E+02       0.036     5625.043   0.100E-11
     TRS4 it   5 1.00000000   0.118E+02       0.036     5628.587   0.100E-11
     TRS4 it   6 1.00000000   0.609E+01       0.035     5692.888   0.100E-11
     TRS4 it   7 1.00000000   0.237E+01       0.035     5743.506   0.100E-11
     TRS4 it   8 1.00000000   0.627E+00       0.036     5595.754   0.100E-11
     TRS4 it   9 1.00000000   0.866E-01       0.035     5722.942   0.100E-11
     TRS4 it  10 1.00000000   0.370E-02       0.036     5559.273   0.100E-11
     TRS4 it  11 1.00000000   0.375E-05       0.036     5589.622   0.100E-11
     TRS4 it  12 1.00000000   0.352E-11       0.036     5612.043   0.100E-11
     Final TRS4 iteration   12 1.00000000   0.352E-11
     Chemical potential (mu):      -0.01973

 SCF     7     -1103.160006281        -0.000019649    2.078592

*********************************************************
 Using MIXING_FRACTION=0.450 to mix KS matrix:  iscf=  8
 KS_nw=0.450*KS + 0.550*KS_old
*********************************************************
     Est. extremal eigenvalues     -0.83258     5.24945  converged:  T
     TRS4 it   1 1.00000000   0.559E+02       0.018     5556.940   0.100E-11
     TRS4 it   2 1.00000000   0.538E+02       0.019     5389.581   0.100E-11
     TRS4 it   3 1.00000000   0.346E+02       0.036     5587.283   0.100E-11
     TRS4 it   4 1.00000000   0.184E+02       0.036     5573.740   0.100E-11
     TRS4 it   5 1.00000000   0.118E+02       0.036     5631.421   0.100E-11
     TRS4 it   6 1.00000000   0.609E+01       0.036     5554.139   0.100E-11
     TRS4 it   7 1.00000000   0.237E+01       0.036     5586.614   0.100E-11
     TRS4 it   8 1.00000000   0.628E+00       0.036     5632.879   0.100E-11
     TRS4 it   9 1.00000000   0.868E-01       0.036     5607.800   0.100E-11
     TRS4 it  10 1.00000000   0.372E-02       0.035     5683.349   0.100E-11
     TRS4 it  11 1.00000000   0.381E-05       0.036     5622.530   0.100E-11
     TRS4 it  12 1.00000000   0.360E-11       0.036     5570.281   0.100E-11
     Final TRS4 iteration   12 1.00000000   0.360E-11
     Chemical potential (mu):      -0.01952

 SCF     8     -1103.160011007        -0.000004727    2.088742


 SCF run converged in     8 steps.

 Writing restart DM 64H2O_ref_LS_DM_SPIN_1_RESTART.dm with checksum:       0.60268656E+04

 ENERGY| Total FORCE_EVAL ( QS ) energy [a.u.]:            -1103.160011007152207

 -------------------------------------------------------------------------------
 -                                                                             -
 -                                DBCSR STATISTICS                             -
 -                                                                             -
 -------------------------------------------------------------------------------
 COUNTER                                    TOTAL       BLAS       SMM       ACC
 flops     5 x     5 x     5          79184574250       0.0%    100.0%      0.0%     
 flops     5 x    13 x     5         102512447700       0.0%    100.0%      0.0%     
 flops    13 x     5 x     5         102521146000       0.0%    100.0%      0.0%     
 flops     5 x     5 x    13         103017818800       0.0%    100.0%      0.0%     
 flops     5 x    13 x    13         133418043720       0.0%    100.0%      0.0%     
 flops    13 x     5 x    13         133445038090       0.0%    100.0%      0.0%     
 flops    13 x    13 x     5         134586269740       0.0%    100.0%      0.0%     
 flops    13 x    13 x    13         175248938254       0.0%    100.0%      0.0%     
 flops inhomo. stacks                           0       0.0%      0.0%      0.0%
 flops total                       963.934277E+09       0.0%    100.0%      0.0%
 flops max/rank                     30.929839E+09       0.0%    100.0%      0.0%
 matmuls inhomo. stacks                         0       0.0%      0.0%      0.0%
 matmuls total                         1068091233       0.0%    100.0%      0.0%
 number of processed stacks               1512941       0.0%    100.0%      0.0%
 average stack size                                     0.0     706.0       0.0
 marketing flops                     1.569237E+12
 -------------------------------------------------------------------------------
 # multiplications                            246
 max memory usage/rank             620.728320E+06
 # max total images/rank                        2
 # max 3D layers                                1
 # MPI messages exchanged                  102336
 MPI messages size (bytes):
  total size                        42.270425E+09
  min size                           0.000000E+00
  max size                         541.696000E+03
  average size                     413.055281E+03
 MPI breakdown and total messages size (bytes):
             size <=      128                 312                        0
       128 < size <=     8192                  42                   279312
      8192 < size <=    32768                  62                   841968
     32768 < size <=   131072                 318                 34778688
    131072 < size <=  4194304              101602              42234526592
   4194304 < size <= 16777216                   0                        0
  16777216 < size                               0                        0
 -------------------------------------------------------------------------------

 *** WARNING in dbcsr_mm.F:301 :: Using a non-square number of MPI ranks ***
 *** might lead to poor performance. Used ranks: 32 Suggested: 36 64     ***

 -------------------------------------------------------------------------------
 -                                                                             -
 -                      DBCSR MESSAGE PASSING PERFORMANCE                      -
 -                                                                             -
 -------------------------------------------------------------------------------
 ROUTINE             CALLS      AVE VOLUME [Bytes]
 MP_Bcast                9                     12.
 MP_Allreduce         1762                     34.
 MP_Alltoall           546                  34827.
 MP_ISend             8604                 170409.
 MP_IRecv             8238                 178580.
 -------------------------------------------------------------------------------

 -------------------------------------------------------------------------------
 -                                                                             -
 -                                DBM STATISTICS                               -
 -                                                                             -
 -------------------------------------------------------------------------------
    M  x    N  x    K                                          COUNT     PERCENT
 -------------------------------------------------------------------------------

 -------------------------------------------------------------------------------
 -                                                                             -
 -                                GRID STATISTICS                              -
 -                                                                             -
 -------------------------------------------------------------------------------
 LP    KERNEL             BACKEND                              COUNT     PERCENT
 2     collocate ortho    CPU                                7376355      28.83%
 2     integrate ortho    CPU                                7376355      28.83%
 3     collocate ortho    CPU                                4741722      18.53%
 3     integrate ortho    CPU                                4741722      18.53%
 4     collocate ortho    CPU                                 673056       2.63%
 4     integrate ortho    CPU                                 673056       2.63%
 0     collocate general  CPU                                   6144       0.02%
 -------------------------------------------------------------------------------

 MEMORY| Estimated peak process memory [MiB]                                 593

 -------------------------------------------------------------------------------
 -                                                                             -
 -                         MESSAGE PASSING PERFORMANCE                         -
 -                                                                             -
 -------------------------------------------------------------------------------

 ROUTINE             CALLS      AVE VOLUME [Bytes]
 MP_Group                5
 MP_Bcast             2296                 169746.
 MP_Allreduce         6180                    940.
 MP_Sync                 5
 MP_Alltoall           244                4531027.
 MP_SendRecv           837                  18832.
 MP_ISendRecv          837                  18832.
 MP_Wait              2391
 MP_ISend             1406                 108579.
 MP_IRecv             1406                 108603.
 -------------------------------------------------------------------------------


 -------------------------------------------------------------------------------
 -                                                                             -
 -                           R E F E R E N C E S                               -
 -                                                                             -
 -------------------------------------------------------------------------------
 
 CP2K version 2024.3 (Development Version), the CP2K developers group (2024).
 CP2K is freely available from https://www.cp2k.org/ .
 
 T. D. Kuehne, M. Iannuzzi, M. Del Ben, V. V. Rybkin, P. Seewald, F. Stein, T. 
 Laino, R. Z. Khaliullin, O. Schuett, F. Schiffmann, D. Golze, J. Wilhelm, S. 
 Chulkov, M. H. Bani-Hashemian, V. Weber, U. Borstnik, M. Taillefumier, A. S. 
 Jakobovits, A. Lazzaro, H. Pabst, T. Mueller, R. Schade, M. Guidon, S. 
 Andermatt, N. Holmberg, G. K. Schenter, A. Hehn, A. Bussy, F. Belleflamme, G. 
 Tabacchi, A. Gloess, M. Lass, I. Bethune, C. J. Mundy, C. Plessl, M. Watkins, 
 J. VandeVondele, M. Krack, J. Hutter.
 J. Chem. Phys. 152, 194103 (2020).
 CP2K: An electronic structure and molecular dynamics software package - 
 Quickstep: Efficient and accurate electronic structure calculations.
 https://doi.org/10.1063/5.0007045

 O. Schuett, P. Messmer, J. Hutter, J. VandeVondele.
 Electronic Structure Calculations on Graphics Processing Units, 173-190 (2016).
 GPU-Accelerated Sparse Matrix-Matrix Multiplication for Linear Scaling Density 
 Functional Theory.
 https://doi.org/10.1002/9781118670712.ch8

 A. Heinecke, G. Henry, M. Hutchinson, H. Pabst.
 Proceedings of Intl. Supercomputing Conference, 981-991 (2016).
 LIBXSMM: Accelerating Small Matrix Multiplications by Runtime Code Generation.
 https://doi.org/10.1109/SC.2016.83

 J. Hutter, M. Iannuzzi, F. Schiffmann, J. VandeVondele.
 WIREs Comput Mol Sci. 4, 15-25 (2014).
 CP2K: atomistic simulations of condensed matter systems.
 https://doi.org/10.1002/wcms.1159

 U. Borstnik, J. VandeVondele, V. Weber, J. Hutter.
 Parallel Comput. 40, 47-58 (2014).
 Sparse matrix multiplication: The distributed block-compressed sparse row 
 library.
 https://doi.org/10.1016/j.parco.2014.03.012

 A. Marek, V. Blum, R. Johanni, V. Havu, B. Lang, T. Auckenthaler, A. Heinecke, 
 H. Bungartz, H. Lederer.
 J. Phys. Condens. Matter 26, 213201 (2014).
 The ELPA library: scalable parallel eigenvalue solutions for electronic 
 structure theory and computational science.
 https://doi.org/10.1088/0953-8984/26/21/213201

 J. VandeVondele, U. Borstnik, J. Hutter.
 J. Chem. Theory Comput. 8, 3565-3573 (2012).
 Linear Scaling Self-Consistent Field Calculations with Millions of Atoms in the 
 Condensed Phase.
 https://doi.org/10.1021/ct200897x

 J. VandeVondele, J. Hutter.
 J. Chem. Phys. 127, 114105 (2007).
 Gaussian basis sets for accurate calculations on molecular systems in gas and 
 condensed phases.
 https://doi.org/10.1063/1.2770708

 J. VandeVondele, M. Krack, F. Mohamed, M. Parrinello, T. Chassaing, J. Hutter.
 Comput. Phys. Commun. 167, 103-128 (2005).
 QUICKSTEP: Fast and accurate density functional calculations using a mixed 
 Gaussian and plane waves approach.
 https://doi.org/10.1016/j.cpc.2004.12.014

 M. Krack.
 Theor. Chem. Acc. 114, 145-152 (2005).
 Pseudopotentials for H to Kr optimized for gradient-corrected 
 exchange-correlation functionals.
 https://doi.org/10.1007/s00214-005-0655-y

 M. Frigo, S. G. Johnson.
 Proc. IEEE 93, 216-231 (2005).
 The design and implementation of FFTW3.
 https://doi.org/10.1109/JPROC.2004.840301

 A. M. N. Niklasson, C. J. Tymczak, M. Challacombe.
 J. Chem. Phys. 118, 8611-8620 (2003).
 Trace resetting density matrix purification in O(N) self-consistent-field 
 theory.
 https://doi.org/10.1063/1.1559913

 C. Hartwigsen, S. Goedecker, J. Hutter.
 Phys. Rev. B 58, 3641-3662 (1998).
 Relativistic separable dual-space Gaussian pseudopotentials from H to Rn.
 https://doi.org/10.1103/PhysRevB.58.3641

 G. Lippert, J. Hutter, M. Parrinello.
 Mol. Phys. 92, 477-487 (1997).
 A hybrid Gaussian and plane wave density functional scheme.
 https://doi.org/10.1080/002689797170220

 S. Goedecker, M. Teter, J. Hutter.
 Phys. Rev. B 54, 1703-1710 (1996).
 Separable dual-space Gaussian pseudopotentials.
 https://doi.org/10.1103/PhysRevB.54.1703

 J. P. Perdew, K. Burke, M. Ernzerhof.
 Phys. Rev. Lett. 77, 3865-3868 (1996).
 Generalized gradient approximation made simple.
 https://doi.org/10.1103/PhysRevLett.77.3865


 -------------------------------------------------------------------------------
 -                                                                             -
 -                                T I M I N G                                  -
 -                                                                             -
 -------------------------------------------------------------------------------
 SUBROUTINE                       CALLS  ASD         SELF TIME        TOTAL TIME
                                MAXIMUM       AVERAGE  MAXIMUM  AVERAGE  MAXIMUM
 CP2K                                 1  1.0    0.012    0.016   20.356   20.357
 qs_energies                          1  2.0    0.000    0.000   20.201   20.202
 ls_scf                               1  3.0    0.000    0.000   19.141   19.142
 ls_scf_main                          1  4.0    0.000    0.000   16.617   16.617
 ls_scf_dm_to_ks                      8  5.0    0.000    0.000   12.416   12.422
 qs_ks_update_qs_env                  9  6.1    0.000    0.000    7.817    7.818
 rebuild_ks_matrix                    9  7.1    0.000    0.000    7.810    7.811
 qs_ks_build_kohn_sham_matrix         9  8.1    0.001    0.002    7.810    7.811
 qs_rho_update_rho_low                9  6.1    0.000    0.000    6.150    6.156
 calculate_rho_elec                   9  7.1    0.003    0.003    6.149    6.155
 sum_up_and_integrate                 9  9.1    0.000    0.000    5.917    5.918
 integrate_v_rspace                   9 10.1    0.000    0.000    5.909    5.910
 grid_collocate_task_list             9  8.1    5.446    5.529    5.446    5.529
 grid_integrate_task_list             9 11.1    5.202    5.297    5.202    5.297
 dbcsr_multiply_generic             246  6.2    0.012    0.013    4.588    4.596
 density_matrix_trs4                  8  5.0    0.004    0.005    4.196    4.203
 multiply_cannon                    246  7.2    0.018    0.021    3.731    3.822
 multiply_cannon_loop               246  8.2    0.019    0.020    3.655    3.697
 ls_scf_init_scf                      1  4.0    0.000    0.000    2.462    2.462
 multiply_cannon_multrec           1968  9.2    2.089    2.156    2.095    2.163
 mp_waitall_1                     16729 10.5    1.701    1.794    1.701    1.794
 fft_wrap_pw1pw2                    172 11.3    0.003    0.004    1.761    1.784
 fft_wrap_pw1pw2_200                100 12.8    0.103    0.109    1.689    1.733
 qs_vxc_create                        9  9.1    0.000    0.000    1.547    1.576
 xc_vxc_pw_create                     9 10.1    0.013    0.018    1.547    1.575
 ls_scf_initial_guess                 1  5.0    0.000    0.000    1.555    1.556
 ls_scf_qs_atomic_guess               1  6.0    0.000    0.000    1.555    1.556
 multiply_cannon_metrocomm3        1968  9.2    0.005    0.006    1.325    1.403
 fft3d_ps                           172 13.3    0.728    0.812    1.327    1.356
 xc_pw_derive                        54 12.1    0.001    0.001    1.096    1.175
 qs_energies_init_hamiltonians        1  3.0    0.000    0.000    1.060    1.060
 ls_scf_init_matrix_S                 1  5.0    0.000    0.000    0.907    0.908
 matrix_sqrt_Newton_Schulz            1  6.0    0.001    0.001    0.883    0.884
 build_core_hamiltonian_matrix        1  4.0    0.000    0.000    0.701    0.873
 xc_rho_set_and_dset_create           9 11.1    0.021    0.028    0.782    0.799
 xc_pw_divergence                     9 11.1    0.000    0.000    0.733    0.775
 density_rs2pw                        9  8.1    0.000    0.000    0.671    0.765
 make_m2s                           492  7.2    0.005    0.008    0.678    0.689
 make_images                        492  8.2    0.039    0.040    0.667    0.679
 mp_waitany                        1406 12.5    0.544    0.678    0.544    0.678
 build_core_ppl                       1  5.0    0.481    0.625    0.481    0.625
 mp_alltoall_z22v                   172 15.3    0.422    0.611    0.422    0.611
 transfer_rs2pw                      46  9.0    0.001    0.001    0.479    0.607
 potential_pw2rs                      9 11.1    0.001    0.001    0.596    0.597
 transfer_rs2pw_200                  10  9.8    0.034    0.051    0.377    0.502
 -------------------------------------------------------------------------------

 The number of warnings for this run is : 1
 
 -------------------------------------------------------------------------------
  **** **** ******  **  PROGRAM ENDED AT                 2024-09-23 17:35:13.108
 ***** ** ***  *** **   PROGRAM RAN ON                                    moritz
 **    ****   ******    PROGRAM RAN BY                                       ole
 ***** **    ** ** **   PROGRAM PROCESS ID                                156237
  **** **  *******  **  PROGRAM STOPPED IN /home/ole/git/pao_ml_equivar/64H2O_MD
                                           /Frame1600
