 DBCSR| CPU Multiplication driver                                           XSMM (U)
 DBCSR| Multrec recursion limit                                              512 (U)
 DBCSR| Multiplication stack size                                           1000 (D)
 DBCSR| Maximum elements for images                                    UNLIMITED (U)
 DBCSR| Multiplicative factor virtual images                                   1 (U)
 DBCSR| Use multiplication densification                                       T (D)
 DBCSR| Multiplication size stacks                                             3 (U)
 DBCSR| Use memory pool for CPU allocation                                     F (U)
 DBCSR| Number of 3D layers                                               SINGLE (U)
 DBCSR| Use MPI memory allocation                                              F (U)
 DBCSR| Use RMA algorithm                                                      F (U)
 DBCSR| Use Communication thread                                               T (U)
 DBCSR| Communication thread load                                             87 (D)
 DBCSR| MPI: My process id                                                     0
 DBCSR| MPI: Number of processes                                              32
 DBCSR| OMP: Current number of threads                                         1
 DBCSR| OMP: Max number of threads                                             1
 DBCSR| Split modifier for TAS multiplication algorithm                  1.0E+00 (U)


  **** **** ******  **  PROGRAM STARTED AT               2024-09-24 00:15:38.950
 ***** ** ***  *** **   PROGRAM STARTED ON                                moritz
 **    ****   ******    PROGRAM STARTED BY                                   ole
 ***** **    ** ** **   PROGRAM PROCESS ID                                165085
  **** **  *******  **  PROGRAM STARTED IN /home/ole/git/pao_ml_equivar/64H2O_MD
                                           /Frame1600

 CP2K| version string:                 CP2K version 2024.3 (Development Version)
 CP2K| source code revision number:                                  git:3f890bb
 CP2K| cp2kflags: omp libint fftw3 libxc libgrpp pexsi elpa parallel scalapack c
 CP2K|            osma quip deepmd xsmm plumed2 spglib libdftd4 sirius libvori l
 CP2K|            libbqb libvdwxc hdf5
 CP2K| is freely available from                            https://www.cp2k.org/
 CP2K| Program compiled at                          Mo 23 Sep 2024 17:17:04 CEST
 CP2K| Program compiled on                                                moritz
 CP2K| Program compiled for                                                local
 CP2K| Data directory path                               /home/ole/git/cp2k/data
 CP2K| Input file name                                           64H2O_pao44.inp

 GLOBAL| Force Environment number                                              1
 GLOBAL| Basis set file name                                        BASIS_MOLOPT
 GLOBAL| Potential file name                                      GTH_POTENTIALS
 GLOBAL| MM Potential file name                                     MM_POTENTIAL
 GLOBAL| Coordinate file name                                         coords.xyz
 GLOBAL| Method name                                                        CP2K
 GLOBAL| Project name                                                64H2O_pao44
 GLOBAL| Run type                                                         ENERGY
 GLOBAL| FFT library                                                       FFTW3
 GLOBAL| Diagonalization library                                            ELPA
 GLOBAL| DGEMM library                                                      BLAS
 GLOBAL| Minimum number of eigenvectors for ELPA usage                        16
 GLOBAL| Orthonormality check for eigenvectors                          DISABLED
 GLOBAL| Matrix multiplication library                                     COSMA
 GLOBAL| All-to-all communication in single precision                          F
 GLOBAL| FFTs using library dependent lengths                                  F
 GLOBAL| Grid backend                                                       AUTO
 GLOBAL| Global print level                                                  LOW
 GLOBAL| MPI I/O enabled                                                       T
 GLOBAL| Total number of message passing processes                            32
 GLOBAL| Number of threads for this process                                    1
 GLOBAL| This output is from process                                           0
 GLOBAL| Stack size for threads created by OpenMP (OMP_STACKSIZE)        default
 GLOBAL| CPU model name           AMD Ryzen Threadripper 3970X 32-Core Processor
 GLOBAL| CPUID                                                              1002

 MEMORY| system memory details [Kb]
 MEMORY|                        rank 0           min           max       average
 MEMORY| MemTotal            131752136     131752136     131752136     131752136
 MEMORY| MemFree             114319852     114319852     114319852     114319852
 MEMORY| Buffers               1993224       1993224       1993224       1993224
 MEMORY| Cached                8626924       8626920       8626924       8626920
 MEMORY| Slab                  1639844       1639844       1639844       1639844
 MEMORY| SReclaimable          1142596       1142596       1142596       1142596
 MEMORY| MemLikelyFree       126082596     126082592     126082596     126082592


 GENERATE|  Preliminary Number of Bonds generated:                             0
 GENERATE|  Achieved consistency in connectivity generation.

 *******************************************************************************
 *******************************************************************************
 **                                                                           **
 **     #####                         ##              ##                      **
 **    ##   ##            ##          ##              ##                      **
 **   ##     ##                       ##            ######                    **
 **   ##     ##  ##   ##  ##   #####  ##  ##   ####   ##    #####    #####    **
 **   ##     ##  ##   ##  ##  ##      ## ##   ##      ##   ##   ##  ##   ##   **
 **   ##  ## ##  ##   ##  ##  ##      ####     ###    ##   ######   ######    **
 **    ##  ###   ##   ##  ##  ##      ## ##      ##   ##   ##       ##        **
 **     #######   #####   ##   #####  ##  ##  ####    ##    #####   ##        **
 **           ##                                                    ##        **
 **                                                                           **
 **                                                ... make the atoms dance   **
 **                                                                           **
 **            Copyright (C) by CP2K developers group (2000-2024)             **
 **                      J. Chem. Phys. 152, 194103 (2020)                    **
 **                                                                           **
 *******************************************************************************


 TOTAL NUMBERS AND MAXIMUM NUMBERS

  Total number of            - Atomic kinds:                                   2
                             - Atoms:                                        192
                             - Shell sets:                                   192
                             - Shells:                                       704
                             - Primitive Cartesian functions:               1344
                             - Cartesian basis functions:                   1536
                             - Spherical basis functions:                   1472

  Maximum angular momentum of- Orbital basis functions:                        2
                             - Local part of the GTH pseudopotential:          2
                             - Non-local part of the GTH pseudopotential:      0

 ------------------------------ Linear scaling SCF -----------------------------
 eps_scf:                                                              0.100E-07
 eps_filter:                                                           0.100E-11
 mixing_fraction:                                                      0.450E+00
 max_scf:                                                                     25
 fixed chemical potential (mu)                                                 F
 has unit metric:                                                              F
 Computing inv(S):                                                             T
 Computing sqrt(S):                                                            T
 Computing S preconditioner                                                    F
 S sqrt method:                                                     NEWTONSCHULZ
 S sqrt order:                                                                 3
 Extrapolation order:                                                          1
 S preconditioner type                                                      NONE
 Polarized Atomic Orbitals (PAO)                                               T
 Purification method                                   Trace resetting 4th order
 Cluster type                                                             ATOMIC
 Computing Chebyshev                                                       FALSE
 Using PAO                                                                     T
 -------------------------------------------------------------------------------

 
 PAO|                                  EPS_PAO                           0.5E-06
 PAO|                                  MIXING                            0.5E+00
 PAO|                                  MAX_PAO                              1500
 PAO|                                  MAX_CYCLES                           1000
 PAO|                                  PARAMETERIZATION              EQUIVARIANT
 PAO|                                  PRECONDITION                            F
 PAO|                                  REGULARIZATION                    0.0E+00
 PAO|                                  EPS_PGF                           0.1E-09
 PAO|                                  PENALTY_DISTANCE                  0.1E+00
 PAO|                                  PENALTY_STRENGTH                  0.5E-02
 PAO|                                  LINPOT_PRECONDITION_DELTA         0.0E+00
 PAO|                                  LINPOT_INITGUESS_DELT             0.0E+00
 PAO|                                  LINPOT_REGULARIZATION_DELTA       0.0E+00
 PAO|                                  LINPOT_REGULARIZATION_STRENGTH    0.0E+00
 PAO|                                  OPTIMIZER                              CG
 PAO|                                  CG_INIT_STEPS                           2
 PAO|                                  CG_RESET_LIMIT                    0.1E+00
 PAO|                                  CHECK_UNITARY_TOL                -0.1E+01
 PAO|                                  CHECK_GRADIENT_TOL               -0.1E+01
 PAO|                                  NUM_GRADIENT_ORDER                      2
 PAO|                                  NUM_GRADIENT_EPS                  0.1E-07
 PAO|                                  PRINT%RESTART%WRITE_CYCLES            100
 PAO|                                  RESTART_FILE 
 PAO|                                  PREOPT_DM_FILE 64H2O_ref_LS_DM_SPIN_1_RESTART.dm
 PAO|                                  MACHINE_LEARNING%METHOD       GAUSSIAN_PR
 PAO|                                  MACHINE_LEARNING%PRIOR               ZERO
 PAO|                                  MACHINE_LEARNING%DESCRIPTOR     POTENTIAL
 PAO|                                  MACHINE_LEARNING%TOLERANCE        0.1E-01
 PAO|                                  MACHINE_LEARNING%GP_NOISE_VAR     0.1E+00
 PAO|                                  MACHINE_LEARNING%GP_SCALE         0.5E-01
 

 Calculating atomic Fock matrix for atomic kind: O

 Electronic structure
    Total number of core electrons                                          2.00
    Total number of valence electrons                                       6.00
    Total number of electrons                                               8.00
    Multiplicity                                                   not specified
    S   [  2.00] 2.00
    P      4.00


 *******************************************************************************
                  Iteration          Convergence                     Energy [au]
 *******************************************************************************
                          1        0.708315                     -15.576645311500
                          2        0.608879                     -15.587933561584
                          3        0.102828E-01                 -15.656849565404
                          4        0.113889E-02                 -15.656866888140
                          5        0.434197E-03                 -15.656867072159
                          6        0.263771E-03                 -15.656867091904
                          7        0.478536E-06                 -15.656867103452

 Energy components [Hartree]           Total Energy ::          -15.656867103452
                                        Band Energy ::           -3.000198112285
                                     Kinetic Energy ::           11.759971203220
                                   Potential Energy ::          -27.416838306672
                                      Virial (-V/T) ::            2.331369510426
                                        Core Energy ::          -26.140716385623
                                          XC Energy ::           -3.154051012914
                                     Coulomb Energy ::           13.637900295084
                       Total Pseudopotential Energy ::          -37.935781716540
                       Local Pseudopotential Energy ::          -39.218907440693
                    Nonlocal Pseudopotential Energy ::            1.283125724153
                                        Confinement ::            0.350941276976

 Orbital energies  State     L     Occupation   Energy[a.u.]          Energy[eV]

                       1     0          2.000      -0.864471          -23.523463

                       1     1          4.000      -0.317814           -8.648154


 Total Electron Density at R=0:                                         0.000068

 Calculating atomic Fock matrix for atomic kind: H

 Electronic structure
    Total number of core electrons                                          0.00
    Total number of valence electrons                                       1.00
    Total number of electrons                                               1.00
    Multiplicity                                                   not specified
    S      1.00


 *******************************************************************************
                  Iteration          Convergence                     Energy [au]
 *******************************************************************************
                          1        0.437545E-02                  -0.424159432110
                          2        0.531356E-03                  -0.424178438213
                          3        0.259176E-06                  -0.424178722480

 Energy components [Hartree]           Total Energy ::           -0.424178722480
                                        Band Energy ::           -0.199015229016
                                     Kinetic Energy ::            0.464007633961
                                   Potential Energy ::           -0.888186356441
                                      Virial (-V/T) ::            1.914163240935
                                        Core Energy ::           -0.479160803564
                                          XC Energy ::           -0.244352904054
                                     Coulomb Energy ::            0.299334985138
                       Total Pseudopotential Energy ::           -0.962295316385
                       Local Pseudopotential Energy ::           -0.962295316385
                    Nonlocal Pseudopotential Energy ::            0.000000000000
                                        Confinement ::            0.191268788606

 Orbital energies  State     L     Occupation   Energy[a.u.]          Energy[eV]

                       1     0          1.000      -0.199015           -5.415480


 Total Electron Density at R=0:                                         0.242907
 PAO| Made initial guess for matrix_X with norm:   27.712812921102035     

     Lanczos converged:  F threshold:   0.100E-02
     Est. extremal eigenvalues:    0.600E+01   0.955E-01
     Est. condition number :    0.628E+02

 Order=           3
     NS sqrt iter    1 1.00000000   0.146E+01       0.021     2680.684
     NS sqrt iter    2 1.00000000   0.799E+00       0.034     3344.634
     NS sqrt iter    3 1.00000000   0.320E+00       0.034     3328.089
     NS sqrt iter    4 1.00000000   0.864E-01       0.034     3362.190
     NS sqrt iter    5 1.00000000   0.275E-02       0.034     3343.573
     NS sqrt iter    6 1.00000000   0.163E-06       0.029     2896.032
     Symmetrizing Results
     Final NS sqrt iter    6 1.00000000   0.603E-13

 PAO| Read restart DM 64H2O_ref_LS_DM_SPIN_1_RESTART.dm with checksum:    6026.8655834078972     
 PAO| Quickstep energy from restart density:  -1103.1600110071522     
 PAO| ======================= Iteration:         1 =============================

     Lanczos converged:  F threshold:   0.100E-02
     Est. extremal eigenvalues:    0.600E+01   0.955E-01
     Est. condition number :    0.628E+02

 Order=           3
     NS sqrt iter    1 1.00000000   0.146E+01       0.021     2694.366
     NS sqrt iter    2 1.00000000   0.799E+00       0.034     3367.038
     NS sqrt iter    3 1.00000000   0.320E+00       0.034     3351.313
     NS sqrt iter    4 1.00000000   0.864E-01       0.034     3352.748
     NS sqrt iter    5 1.00000000   0.275E-02       0.034     3360.835
     NS sqrt iter    6 1.00000000   0.163E-06       0.029     2885.728
     Symmetrizing Results
     Final NS sqrt iter    6 1.00000000   0.603E-13

     Est. extremal eigenvalues     -0.81537     2.58458  converged:  T
     TRS4 it   1 1.00000000   0.272E+02       0.007     2118.549   0.100E-11
     TRS4 it   2 1.00000000   0.235E+02       0.013     2167.841   0.100E-11
     TRS4 it   3 1.00000000   0.160E+02       0.013     2164.597   0.100E-11
     TRS4 it   4 1.00000000   0.100E+02       0.013     2170.807   0.100E-11
     TRS4 it   5 1.00000000   0.483E+01       0.013     2168.706   0.100E-11
     TRS4 it   6 1.00000000   0.160E+01       0.013     2186.538   0.100E-11
     TRS4 it   7 1.00000000   0.314E+00       0.013     2145.942   0.100E-11
     TRS4 it   8 1.00000000   0.218E-01       0.013     2156.900   0.100E-11
     TRS4 it   9 1.00000000   0.165E-03       0.013     2190.747   0.100E-11
     TRS4 it  10 1.00000000   0.719E-08       0.013     2178.951   0.100E-11
     TRS4 it  11 1.00000000   0.195E-13       0.013     2151.355   0.100E-11
     Final TRS4 iteration   11 1.00000000   0.195E-13
     Chemical potential (mu):       0.00653
 
 PAO| energy:  -186.01963424015955      penalty:   1.4199496293978212E-031
 PAO|CG| warming up with steepest descent
 PAO|CG| beta:    0.0000000000000000     
 PAO| norm of gradient:   3.9664729197996991     
 PAO|LS| adapt:  T F F
 PAO|LS| adapt: scan_steps:    0.0000000000000000        0.0000000000000000        0.0000000000000000     
 PAO|LS| adapt: energies:   -186.01963424015955        0.0000000000000000        0.0000000000000000     
 PAO| ======================= Iteration:         2 =============================

     Lanczos converged:  F threshold:   0.100E-02
     Est. extremal eigenvalues:    0.579E+01   0.101E+00
     Est. condition number :    0.573E+02

 Order=           3
     NS sqrt iter    1 1.00000000   0.142E+01       0.021     2664.560
     NS sqrt iter    2 1.00000000   0.770E+00       0.034     3355.172
     NS sqrt iter    3 1.00000000   0.300E+00       0.034     3350.258
     NS sqrt iter    4 1.00000000   0.722E-01       0.034     3356.307
     NS sqrt iter    5 1.00000000   0.169E-02       0.034     3361.658
     NS sqrt iter    6 1.00000000   0.448E-07       0.029     2910.505
     Symmetrizing Results
     Final NS sqrt iter    6 1.00000000   0.533E-14

     Est. extremal eigenvalues     -0.81868     2.58429  converged:  T
     TRS4 it   1 1.00000000   0.274E+02       0.007     2110.289   0.100E-11
     TRS4 it   2 1.00000000   0.235E+02       0.013     2167.002   0.100E-11
     TRS4 it   3 1.00000000   0.159E+02       0.013     2176.976   0.100E-11
     TRS4 it   4 1.00000000   0.980E+01       0.013     2173.202   0.100E-11
     TRS4 it   5 1.00000000   0.461E+01       0.013     2157.775   0.100E-11
     TRS4 it   6 1.00000000   0.147E+01       0.013     2171.983   0.100E-11
     TRS4 it   7 1.00000000   0.269E+00       0.013     2200.836   0.100E-11
     TRS4 it   8 1.00000000   0.155E-01       0.013     2156.918   0.100E-11
     TRS4 it   9 1.00000000   0.754E-04       0.013     2164.382   0.100E-11
     TRS4 it  10 1.00000000   0.173E-08       0.013     2163.316   0.100E-11
     TRS4 it  11 1.00000000   0.178E-13       0.013     2159.953   0.100E-11
     Final TRS4 iteration   11 1.00000000   0.178E-13
     Chemical potential (mu):       0.01210
 
 PAO| energy:  -187.46477858991412      penalty:   4.6554860466144639E-007
 PAO|LS| adapt:  T T F
 PAO|LS| adapt: scan_steps:    0.0000000000000000       0.10000000000000001        0.0000000000000000     
 PAO|LS| adapt: energies:   -186.01963424015955       -187.46477858991412        0.0000000000000000     
 PAO| ======================= Iteration:         3 =============================

     Lanczos converged:  F threshold:   0.100E-02
     Est. extremal eigenvalues:    0.558E+01   0.106E+00
     Est. condition number :    0.525E+02

 Order=           3
     NS sqrt iter    1 1.00000000   0.138E+01       0.021     2680.284
     NS sqrt iter    2 1.00000000   0.741E+00       0.034     3327.265
     NS sqrt iter    3 1.00000000   0.280E+00       0.034     3298.161
     NS sqrt iter    4 1.00000000   0.602E-01       0.034     3331.621
     NS sqrt iter    5 1.00000000   0.105E-02       0.034     3313.287
     NS sqrt iter    6 1.00000000   0.130E-07       0.030     2876.227
     Symmetrizing Results
     Final NS sqrt iter    6 1.00000000   0.409E-14

     Est. extremal eigenvalues     -0.82182     2.59372  converged:  T
     TRS4 it   1 1.00000000   0.277E+02       0.007     2095.701   0.100E-11
     TRS4 it   2 1.00000000   0.235E+02       0.013     2160.398   0.100E-11
     TRS4 it   3 1.00000000   0.158E+02       0.013     2163.982   0.100E-11
     TRS4 it   4 1.00000000   0.962E+01       0.013     2181.424   0.100E-11
     TRS4 it   5 1.00000000   0.442E+01       0.013     2187.864   0.100E-11
     TRS4 it   6 1.00000000   0.135E+01       0.013     2168.863   0.100E-11
     TRS4 it   7 1.00000000   0.229E+00       0.013     2167.923   0.100E-11
     TRS4 it   8 1.00000000   0.108E-01       0.013     2173.655   0.100E-11
     TRS4 it   9 1.00000000   0.319E-04       0.013     2147.853   0.100E-11
     TRS4 it  10 1.00000000   0.362E-09       0.013     2181.909   0.100E-11
     TRS4 it  11 1.00000000   0.142E-13       0.013     2171.438   0.100E-11
     Final TRS4 iteration   11 1.00000000   0.142E-13
     Chemical potential (mu):       0.01844
 
 PAO| energy:  -188.63723940753431      penalty:   7.4487776746012865E-006
 PAO|LS| adapt:  T T F
 PAO|LS| adapt: scan_steps:    0.0000000000000000       0.20000000000000001        0.0000000000000000     
 PAO|LS| adapt: energies:   -186.01963424015955       -188.63723940753431        0.0000000000000000     
 PAO| ======================= Iteration:         4 =============================

     Lanczos converged:  T threshold:   0.100E-02
     Est. extremal eigenvalues:    0.518E+01   0.116E+00
     Est. condition number :    0.448E+02

 Order=           3
     NS sqrt iter    1 1.00000000   0.130E+01       0.021     2691.354
     NS sqrt iter    2 1.00000000   0.686E+00       0.034     3334.755
     NS sqrt iter    3 1.00000000   0.242E+00       0.034     3339.265
     NS sqrt iter    4 1.00000000   0.418E-01       0.034     3341.640
     NS sqrt iter    5 1.00000000   0.419E-03       0.034     3340.280
     NS sqrt iter    6 1.00000000   0.113E-08       0.029     2812.931
     Symmetrizing Results
     Final NS sqrt iter    6 1.00000000   0.220E-13

     Est. extremal eigenvalues     -0.82706     2.60808  converged:  T
     TRS4 it   1 1.00000000   0.281E+02       0.007     2104.721   0.100E-11
     TRS4 it   2 1.00000000   0.236E+02       0.013     2192.231   0.100E-11
     TRS4 it   3 1.00000000   0.156E+02       0.013     2184.520   0.100E-11
     TRS4 it   4 1.00000000   0.930E+01       0.013     2200.177   0.100E-11
     TRS4 it   5 1.00000000   0.406E+01       0.013     2164.886   0.100E-11
     TRS4 it   6 1.00000000   0.114E+01       0.013     2182.145   0.100E-11
     TRS4 it   7 1.00000000   0.162E+00       0.013     2173.310   0.100E-11
     TRS4 it   8 1.00000000   0.495E-02       0.013     2179.280   0.100E-11
     TRS4 it   9 1.00000000   0.521E-05       0.013     2172.116   0.100E-11
     TRS4 it  10 1.00000000   0.105E-10       0.013     2200.657   0.100E-11
     Final TRS4 iteration   10 1.00000000   0.105E-10
     Chemical potential (mu):       0.03840
 
 PAO| energy:  -190.12124293784115      penalty:   1.1918044279376646E-004
 PAO|LS| Need extra step
 PAO|LS| adapt:  T T F
 PAO|LS| adapt: scan_steps:    0.0000000000000000       0.40000000000000002        0.0000000000000000     
 PAO|LS| adapt: energies:   -186.01963424015955       -190.12124293784115        0.0000000000000000     
 PAO| ======================= Iteration:         5 =============================

     Lanczos converged:  T threshold:   0.100E-02
     Est. extremal eigenvalues:    0.455E+01   0.131E+00
     Est. condition number :    0.348E+02

 Order=           3
     NS sqrt iter    1 1.00000000   0.118E+01       0.021     2681.193
     NS sqrt iter    2 1.00000000   0.599E+00       0.034     3344.995
     NS sqrt iter    3 1.00000000   0.186E+00       0.034     3341.916
     NS sqrt iter    4 1.00000000   0.215E-01       0.034     3358.366
     NS sqrt iter    5 1.00000000   0.766E-04       0.034     3360.003
     NS sqrt iter    6 1.00000000   0.101E-10       0.016     2132.348
     Symmetrizing Results
     Final NS sqrt iter    6 1.00000000   0.176E-11

     Est. extremal eigenvalues     -0.83059     2.61312  converged:  T
     TRS4 it   1 1.00000000   0.288E+02       0.007     2110.903   0.100E-11
     TRS4 it   2 1.00000000   0.236E+02       0.013     2192.117   0.100E-11
     TRS4 it   3 1.00000000   0.154E+02       0.013     2155.528   0.100E-11
     TRS4 it   4 1.00000000   0.881E+01       0.013     2179.325   0.100E-11
     TRS4 it   5 1.00000000   0.354E+01       0.013     2200.615   0.100E-11
     TRS4 it   6 1.00000000   0.842E+00       0.013     2183.439   0.100E-11
     TRS4 it   7 1.00000000   0.875E-01       0.013     2177.852   0.100E-11
     TRS4 it   8 1.00000000   0.131E-02       0.013     2163.317   0.100E-11
     TRS4 it   9 1.00000000   0.343E-06       0.013     2187.223   0.100E-11
     TRS4 it  10 1.00000000   0.373E-13       0.013     2191.996   0.100E-11
     Final TRS4 iteration   10 1.00000000   0.373E-13
     Chemical potential (mu):       0.06119
 
 PAO| energy:  -189.76555507104160      penalty:   1.9068870847014255E-003
 PAO|LS| Need extra step
 PAO|LS| adapt:  T T T
 PAO|LS| adapt: scan_steps:    0.0000000000000000       0.40000000000000002       0.80000000000000004     
 PAO|LS| adapt: energies:   -186.01963424015955       -190.12124293784115       -189.76555507104160     
 PAO|LS| adapt: suggested step_size:   0.56808039477257033     
 PAO|LS| adapt: predicted energy  -190.51475284536704     
 PAO| ======================= Iteration:         6 =============================

     Lanczos converged:  T threshold:   0.100E-02
     Est. extremal eigenvalues:    0.488E+01   0.123E+00
     Est. condition number :    0.399E+02

 Order=           3
     NS sqrt iter    1 1.00000000   0.124E+01       0.021     2681.049
     NS sqrt iter    2 1.00000000   0.645E+00       0.034     3330.827
     NS sqrt iter    3 1.00000000   0.216E+00       0.034     3350.414
     NS sqrt iter    4 1.00000000   0.311E-01       0.034     3354.153
     NS sqrt iter    5 1.00000000   0.199E-03       0.034     3364.829
     NS sqrt iter    6 1.00000000   0.147E-09       0.027     2540.745
     Symmetrizing Results
     Final NS sqrt iter    6 1.00000000   0.114E-11

     Est. extremal eigenvalues     -0.82983     2.61325  converged:  T
     TRS4 it   1 1.00000000   0.285E+02       0.007     2095.988   0.100E-11
     TRS4 it   2 1.00000000   0.236E+02       0.013     2185.186   0.100E-11
     TRS4 it   3 1.00000000   0.155E+02       0.013     2155.890   0.100E-11
     TRS4 it   4 1.00000000   0.907E+01       0.013     2169.951   0.100E-11
     TRS4 it   5 1.00000000   0.381E+01       0.013     2174.320   0.100E-11
     TRS4 it   6 1.00000000   0.991E+00       0.013     2186.533   0.100E-11
     TRS4 it   7 1.00000000   0.123E+00       0.013     2159.117   0.100E-11
     TRS4 it   8 1.00000000   0.266E-02       0.013     2183.904   0.100E-11
     TRS4 it   9 1.00000000   0.138E-05       0.013     2167.915   0.100E-11
     TRS4 it  10 1.00000000   0.707E-12       0.013     2194.728   0.100E-11
     Final TRS4 iteration   10 1.00000000   0.707E-12
     Chemical potential (mu):       0.04922
 
 PAO| energy:  -190.48892269507439      penalty:   4.8484646674481385E-004
 PAO|CG| warming up with steepest descent
 PAO|CG| beta:    0.0000000000000000     
 PAO| norm of gradient:   2.0918670482214381     
 PAO| energy improvement:  -4.4692884549148459     
 PAO| step      6                 -190.488922695  0.409E-02  0.568E+00     2.512
 PAO|LS| adapt:  T F F
 PAO|LS| adapt: scan_steps:    0.0000000000000000        0.0000000000000000        0.0000000000000000     
 PAO|LS| adapt: energies:   -190.48892269507439        0.0000000000000000        0.0000000000000000     
 PAO| ======================= Iteration:         7 =============================

     Lanczos converged:  T threshold:   0.100E-02
     Est. extremal eigenvalues:    0.474E+01   0.130E+00
     Est. condition number :    0.365E+02

 Order=           3
     NS sqrt iter    1 1.00000000   0.121E+01       0.022     2632.503
     NS sqrt iter    2 1.00000000   0.621E+00       0.034     3352.425
     NS sqrt iter    3 1.00000000   0.199E+00       0.034     3326.161
     NS sqrt iter    4 1.00000000   0.250E-01       0.034     3349.872
     NS sqrt iter    5 1.00000000   0.110E-03       0.034     3350.920
     NS sqrt iter    6 1.00000000   0.271E-10       0.020     2221.684
     Symmetrizing Results
     Final NS sqrt iter    6 1.00000000   0.221E-11

     Est. extremal eigenvalues     -0.83025     2.60855  converged:  T
     TRS4 it   1 1.00000000   0.286E+02       0.007     2150.739   0.100E-11
     TRS4 it   2 1.00000000   0.237E+02       0.013     2166.355   0.100E-11
     TRS4 it   3 1.00000000   0.156E+02       0.013     2195.137   0.100E-11
     TRS4 it   4 1.00000000   0.920E+01       0.013     2169.367   0.100E-11
     TRS4 it   5 1.00000000   0.391E+01       0.013     2204.918   0.100E-11
     TRS4 it   6 1.00000000   0.102E+01       0.013     2175.842   0.100E-11
     TRS4 it   7 1.00000000   0.124E+00       0.013     2182.694   0.100E-11
     TRS4 it   8 1.00000000   0.272E-02       0.013     2199.271   0.100E-11
     TRS4 it   9 1.00000000   0.155E-05       0.013     2186.894   0.100E-11
     TRS4 it  10 1.00000000   0.109E-11       0.013     2193.381   0.100E-11
     Final TRS4 iteration   10 1.00000000   0.109E-11
     Chemical potential (mu):       0.05241
 
 PAO| energy:  -189.55712418511044      penalty:   6.7913527563863397E-004
 PAO|LS| adapt:  T F T
 PAO|LS| adapt: scan_steps:    0.0000000000000000        0.0000000000000000       0.56808039477257033     
 PAO|LS| adapt: energies:   -190.48892269507439        0.0000000000000000       -189.55712418511044     
 PAO| ======================= Iteration:         8 =============================

     Lanczos converged:  T threshold:   0.100E-02
     Est. extremal eigenvalues:    0.481E+01   0.126E+00
     Est. condition number :    0.381E+02

 Order=           3
     NS sqrt iter    1 1.00000000   0.123E+01       0.021     2691.146
     NS sqrt iter    2 1.00000000   0.632E+00       0.034     3307.513
     NS sqrt iter    3 1.00000000   0.207E+00       0.034     3357.336
     NS sqrt iter    4 1.00000000   0.279E-01       0.034     3354.045
     NS sqrt iter    5 1.00000000   0.149E-03       0.034     3344.637
     NS sqrt iter    6 1.00000000   0.643E-10       0.024     2397.431
     Symmetrizing Results
     Final NS sqrt iter    6 1.00000000   0.201E-11

     Est. extremal eigenvalues     -0.83108     2.61129  converged:  T
     TRS4 it   1 1.00000000   0.285E+02       0.007     2135.226   0.100E-11
     TRS4 it   2 1.00000000   0.237E+02       0.013     2177.291   0.100E-11
     TRS4 it   3 1.00000000   0.155E+02       0.013     2180.891   0.100E-11
     TRS4 it   4 1.00000000   0.910E+01       0.013     2190.837   0.100E-11
     TRS4 it   5 1.00000000   0.383E+01       0.013     2170.920   0.100E-11
     TRS4 it   6 1.00000000   0.994E+00       0.013     2206.196   0.100E-11
     TRS4 it   7 1.00000000   0.122E+00       0.013     2183.104   0.100E-11
     TRS4 it   8 1.00000000   0.264E-02       0.013     2173.577   0.100E-11
     TRS4 it   9 1.00000000   0.138E-05       0.013     2160.238   0.100E-11
     TRS4 it  10 1.00000000   0.716E-12       0.013     2186.437   0.100E-11
     Final TRS4 iteration   10 1.00000000   0.716E-12
     Chemical potential (mu):       0.04931
 
 PAO| energy:  -190.86375671692176      penalty:   5.1367465322822280E-004
 PAO|LS| adapt:  T T T
 PAO|LS| adapt: scan_steps:    0.0000000000000000       0.28404019738628516       0.56808039477257033     
 PAO|LS| adapt: energies:   -190.48892269507439       -190.86375671692176       -189.55712418511044     
 PAO|LS| adapt: suggested step_size:   0.20533859249306860     
 PAO|LS| adapt: predicted energy  -190.92830219221548     
 PAO| ======================= Iteration:         9 =============================

     Lanczos converged:  T threshold:   0.100E-02
     Est. extremal eigenvalues:    0.483E+01   0.125E+00
     Est. condition number :    0.386E+02

 Order=           3
     NS sqrt iter    1 1.00000000   0.123E+01       0.021     2668.233
     NS sqrt iter    2 1.00000000   0.636E+00       0.034     3331.323
     NS sqrt iter    3 1.00000000   0.210E+00       0.034     3310.663
     NS sqrt iter    4 1.00000000   0.288E-01       0.034     3345.197
     NS sqrt iter    5 1.00000000   0.161E-03       0.034     3313.762
     NS sqrt iter    6 1.00000000   0.811E-10       0.025     2437.037
     Symmetrizing Results
     Final NS sqrt iter    6 1.00000000   0.183E-11

     Est. extremal eigenvalues     -0.83095     2.61194  converged:  T
     TRS4 it   1 1.00000000   0.285E+02       0.007     2105.325   0.100E-11
     TRS4 it   2 1.00000000   0.236E+02       0.013     2168.386   0.100E-11
     TRS4 it   3 1.00000000   0.155E+02       0.013     2164.194   0.100E-11
     TRS4 it   4 1.00000000   0.909E+01       0.013     2158.019   0.100E-11
     TRS4 it   5 1.00000000   0.382E+01       0.013     2161.876   0.100E-11
     TRS4 it   6 1.00000000   0.991E+00       0.013     2149.383   0.100E-11
     TRS4 it   7 1.00000000   0.122E+00       0.013     2165.021   0.100E-11
     TRS4 it   8 1.00000000   0.264E-02       0.013     2178.986   0.100E-11
     TRS4 it   9 1.00000000   0.137E-05       0.013     2206.111   0.100E-11
     TRS4 it  10 1.00000000   0.627E-12       0.013     2192.612   0.100E-11
     Final TRS4 iteration   10 1.00000000   0.627E-12
     Chemical potential (mu):       0.04901
 
 PAO| energy:  -190.93270191587163      penalty:   4.9650769641845088E-004
 PAO|CG| trace_G_new   0.71860913295600670     
 PAO|CG| trace_G_prev    4.3759077474346730     
 PAO|CG| trace_G_mix   -4.2396661432730250E-002
 PAO|CG| trace_D    4.3759077474346730     
 PAO|CG| trace_D_Gnew   4.2396661432730250E-002
 PAO|CG| beta:   0.17390809823055983     
 PAO| norm of gradient:  0.84770816496952928     
 PAO| energy improvement: -0.44377922079723930     
 PAO| step      9                 -190.932701916  0.166E-02  0.205E+00     1.537
 PAO|LS| adapt:  T F F
 PAO|LS| adapt: scan_steps:    0.0000000000000000        0.0000000000000000        0.0000000000000000     
 PAO|LS| adapt: energies:   -190.93270191587163        0.0000000000000000        0.0000000000000000     
 PAO| ======================= Iteration:        10 =============================

     Lanczos converged:  T threshold:   0.100E-02
     Est. extremal eigenvalues:    0.478E+01   0.128E+00
     Est. condition number :    0.372E+02

 Order=           3
     NS sqrt iter    1 1.00000000   0.122E+01       0.021     2662.133
     NS sqrt iter    2 1.00000000   0.628E+00       0.034     3340.472
     NS sqrt iter    3 1.00000000   0.204E+00       0.034     3334.923
     NS sqrt iter    4 1.00000000   0.267E-01       0.034     3343.403
     NS sqrt iter    5 1.00000000   0.129E-03       0.034     3347.017
     NS sqrt iter    6 1.00000000   0.416E-10       0.022     2268.830
     Symmetrizing Results
     Final NS sqrt iter    6 1.00000000   0.231E-11

     Est. extremal eigenvalues     -0.83150     2.59907  converged:  T
     TRS4 it   1 1.00000000   0.285E+02       0.007     2125.289   0.100E-11
     TRS4 it   2 1.00000000   0.236E+02       0.013     2186.556   0.100E-11
     TRS4 it   3 1.00000000   0.155E+02       0.013     2199.565   0.100E-11
     TRS4 it   4 1.00000000   0.907E+01       0.013     2193.895   0.100E-11
     TRS4 it   5 1.00000000   0.380E+01       0.013     2182.902   0.100E-11
     TRS4 it   6 1.00000000   0.979E+00       0.013     2182.209   0.100E-11
     TRS4 it   7 1.00000000   0.119E+00       0.013     2195.738   0.100E-11
     TRS4 it   8 1.00000000   0.249E-02       0.013     2171.685   0.100E-11
     TRS4 it   9 1.00000000   0.122E-05       0.013     2170.185   0.100E-11
     TRS4 it  10 1.00000000   0.538E-12       0.013     2165.077   0.100E-11
     Final TRS4 iteration   10 1.00000000   0.538E-12
     Chemical potential (mu):       0.04985
 
 PAO| energy:  -191.03070134874582      penalty:   4.9859128959229323E-004
 PAO|LS| adapt:  T T F
 PAO|LS| adapt: scan_steps:    0.0000000000000000       0.20533859249306860        0.0000000000000000     
 PAO|LS| adapt: energies:   -190.93270191587163       -191.03070134874582        0.0000000000000000     
 PAO| ======================= Iteration:        11 =============================

     Lanczos converged:  T threshold:   0.100E-02
     Est. extremal eigenvalues:    0.473E+01   0.132E+00
     Est. condition number :    0.359E+02

 Order=           3
     NS sqrt iter    1 1.00000000   0.121E+01       0.021     2663.792
     NS sqrt iter    2 1.00000000   0.620E+00       0.034     3362.000
     NS sqrt iter    3 1.00000000   0.199E+00       0.034     3340.807
     NS sqrt iter    4 1.00000000   0.248E-01       0.034     3338.512
     NS sqrt iter    5 1.00000000   0.103E-03       0.034     3342.513
     NS sqrt iter    6 1.00000000   0.210E-10       0.018     2168.754
     Symmetrizing Results
     Final NS sqrt iter    6 1.00000000   0.211E-11

     Est. extremal eigenvalues     -0.83162     2.58590  converged:  T
     TRS4 it   1 1.00000000   0.285E+02       0.007     2092.351   0.100E-11
     TRS4 it   2 1.00000000   0.235E+02       0.013     2189.470   0.100E-11
     TRS4 it   3 1.00000000   0.155E+02       0.013     2150.497   0.100E-11
     TRS4 it   4 1.00000000   0.904E+01       0.013     2177.855   0.100E-11
     TRS4 it   5 1.00000000   0.378E+01       0.013     2196.357   0.100E-11
     TRS4 it   6 1.00000000   0.964E+00       0.013     2185.124   0.100E-11
     TRS4 it   7 1.00000000   0.115E+00       0.013     2193.696   0.100E-11
     TRS4 it   8 1.00000000   0.233E-02       0.013     2180.397   0.100E-11
     TRS4 it   9 1.00000000   0.108E-05       0.013     2198.772   0.100E-11
     TRS4 it  10 1.00000000   0.405E-12       0.013     2160.068   0.100E-11
     Final TRS4 iteration   10 1.00000000   0.405E-12
     Chemical potential (mu):       0.05077
 
 PAO| energy:  -191.03525400068608      penalty:   5.1031168859408122E-004
 PAO|LS| adapt:  T T F
 PAO|LS| adapt: scan_steps:    0.0000000000000000       0.41067718498613720        0.0000000000000000     
 PAO|LS| adapt: energies:   -190.93270191587163       -191.03525400068608        0.0000000000000000     
 PAO| ======================= Iteration:        12 =============================

     Lanczos converged:  T threshold:   0.100E-02
     Est. extremal eigenvalues:    0.464E+01   0.138E+00
     Est. condition number :    0.335E+02

 Order=           3
     NS sqrt iter    1 1.00000000   0.119E+01       0.021     2668.985
     NS sqrt iter    2 1.00000000   0.605E+00       0.034     3354.530
     NS sqrt iter    3 1.00000000   0.189E+00       0.034     3349.017
     NS sqrt iter    4 1.00000000   0.213E-01       0.034     3341.162
     NS sqrt iter    5 1.00000000   0.654E-04       0.034     3336.869
     NS sqrt iter    6 1.00000000   0.493E-11       0.014     2109.704
     Symmetrizing Results
     Final NS sqrt iter    6 1.00000000   0.121E-11

     Est. extremal eigenvalues     -0.83068     2.55998  converged:  T
     TRS4 it   1 1.00000000   0.284E+02       0.007     2096.652   0.100E-11
     TRS4 it   2 1.00000000   0.234E+02       0.013     2157.070   0.100E-11
     TRS4 it   3 1.00000000   0.155E+02       0.013     2168.424   0.100E-11
     TRS4 it   4 1.00000000   0.898E+01       0.013     2169.333   0.100E-11
     TRS4 it   5 1.00000000   0.372E+01       0.013     2148.226   0.100E-11
     TRS4 it   6 1.00000000   0.929E+00       0.013     2178.883   0.100E-11
     TRS4 it   7 1.00000000   0.106E+00       0.013     2174.903   0.100E-11
     TRS4 it   8 1.00000000   0.200E-02       0.013     2169.111   0.100E-11
     TRS4 it   9 1.00000000   0.802E-06       0.013     2180.905   0.100E-11
     TRS4 it  10 1.00000000   0.234E-12       0.013     2221.041   0.100E-11
     Final TRS4 iteration   10 1.00000000   0.234E-12
     Chemical potential (mu):       0.05280
 
 PAO| energy:  -190.78070776930838      penalty:   5.6950139344744567E-004
 PAO|LS| Need extra step
 PAO|LS| adapt:  T T T
 PAO|LS| adapt: scan_steps:    0.0000000000000000       0.41067718498613720       0.82135436997227440     
 PAO|LS| adapt: energies:   -190.93270191587163       -191.03525400068608       -190.78070776930838     
 PAO|LS| adapt: suggested step_size:   0.32327754542667786     
 PAO|LS| adapt: predicted energy  -191.04334078643316     
 PAO| ======================= Iteration:        13 =============================

     Lanczos converged:  T threshold:   0.100E-02
     Est. extremal eigenvalues:    0.475E+01   0.130E+00
     Est. condition number :    0.365E+02

 Order=           3
     NS sqrt iter    1 1.00000000   0.122E+01       0.021     2652.923
     NS sqrt iter    2 1.00000000   0.623E+00       0.034     3366.851
     NS sqrt iter    3 1.00000000   0.201E+00       0.034     3323.247
     NS sqrt iter    4 1.00000000   0.256E-01       0.034     3339.303
     NS sqrt iter    5 1.00000000   0.113E-03       0.034     3330.394
     NS sqrt iter    6 1.00000000   0.281E-10       0.020     2204.253
     Symmetrizing Results
     Final NS sqrt iter    6 1.00000000   0.220E-11

     Est. extremal eigenvalues     -0.83162     2.59152  converged:  T
     TRS4 it   1 1.00000000   0.285E+02       0.007     2098.417   0.100E-11
     TRS4 it   2 1.00000000   0.235E+02       0.013     2175.887   0.100E-11
     TRS4 it   3 1.00000000   0.155E+02       0.013     2175.729   0.100E-11
     TRS4 it   4 1.00000000   0.906E+01       0.013     2178.282   0.100E-11
     TRS4 it   5 1.00000000   0.379E+01       0.013     2168.825   0.100E-11
     TRS4 it   6 1.00000000   0.971E+00       0.013     2186.776   0.100E-11
     TRS4 it   7 1.00000000   0.116E+00       0.013     2154.115   0.100E-11
     TRS4 it   8 1.00000000   0.240E-02       0.013     2196.499   0.100E-11
     TRS4 it   9 1.00000000   0.114E-05       0.013     2169.604   0.100E-11
     TRS4 it  10 1.00000000   0.464E-12       0.013     2165.131   0.100E-11
     Final TRS4 iteration   10 1.00000000   0.464E-12
     Chemical potential (mu):       0.05037
 
 PAO| energy:  -191.04447794058052      penalty:   5.0406659872157282E-004
 PAO|CG| trace_G_new   0.26832263045949961     
 PAO|CG| trace_G_prev   0.71860913295600670     
 PAO|CG| trace_G_mix   -1.1726892021683628E-002
 PAO|CG| trace_D   0.83620795787840618     
 PAO|CG| trace_D_Gnew   1.1721780260954820E-002
 PAO|CG| beta:   0.38971049717834283     
 PAO| norm of gradient:  0.51799867804802324     
 PAO| energy improvement: -0.11177602470888814     
 PAO| step     13                 -191.044477941  0.101E-02  0.323E+00     1.977
 PAO|LS| adapt:  T F F
 PAO|LS| adapt: scan_steps:    0.0000000000000000        0.0000000000000000        0.0000000000000000     
 PAO|LS| adapt: energies:   -191.04447794058052        0.0000000000000000        0.0000000000000000     
 PAO| ======================= Iteration:        14 =============================

     Lanczos converged:  T threshold:   0.100E-02
     Est. extremal eigenvalues:    0.469E+01   0.133E+00
     Est. condition number :    0.353E+02

 Order=           3
     NS sqrt iter    1 1.00000000   0.120E+01       0.021     2672.882
     NS sqrt iter    2 1.00000000   0.613E+00       0.034     3348.670
     NS sqrt iter    3 1.00000000   0.195E+00       0.034     3353.399
     NS sqrt iter    4 1.00000000   0.236E-01       0.034     3343.130
     NS sqrt iter    5 1.00000000   0.909E-04       0.034     3366.366
     NS sqrt iter    6 1.00000000   0.147E-10       0.017     2117.337
     Symmetrizing Results
     Final NS sqrt iter    6 1.00000000   0.193E-11

     Est. extremal eigenvalues     -0.83203     2.58622  converged:  T
     TRS4 it   1 1.00000000   0.285E+02       0.007     2103.110   0.100E-11
     TRS4 it   2 1.00000000   0.235E+02       0.013     2177.815   0.100E-11
     TRS4 it   3 1.00000000   0.155E+02       0.013     2146.123   0.100E-11
     TRS4 it   4 1.00000000   0.900E+01       0.013     2194.792   0.100E-11
     TRS4 it   5 1.00000000   0.373E+01       0.013     2186.160   0.100E-11
     TRS4 it   6 1.00000000   0.941E+00       0.013     2167.771   0.100E-11
     TRS4 it   7 1.00000000   0.110E+00       0.013     2198.527   0.100E-11
     TRS4 it   8 1.00000000   0.212E-02       0.013     2191.775   0.100E-11
     TRS4 it   9 1.00000000   0.890E-06       0.013     2177.897   0.100E-11
     TRS4 it  10 1.00000000   0.263E-12       0.013     2175.463   0.100E-11
     Final TRS4 iteration   10 1.00000000   0.263E-12
     Chemical potential (mu):       0.05223
 
 PAO| energy:  -191.09479536701011      penalty:   5.0498971171113833E-004
 PAO|LS| adapt:  T T F
 PAO|LS| adapt: scan_steps:    0.0000000000000000       0.32327754542667786        0.0000000000000000     
 PAO|LS| adapt: energies:   -191.04447794058052       -191.09479536701011        0.0000000000000000     
 PAO| ======================= Iteration:        15 =============================

     Lanczos converged:  T threshold:   0.100E-02
     Est. extremal eigenvalues:    0.463E+01   0.135E+00
     Est. condition number :    0.342E+02

 Order=           3
     NS sqrt iter    1 1.00000000   0.119E+01       0.021     2668.520
     NS sqrt iter    2 1.00000000   0.604E+00       0.034     3339.823
     NS sqrt iter    3 1.00000000   0.189E+00       0.034     3346.351
     NS sqrt iter    4 1.00000000   0.219E-01       0.034     3345.451
     NS sqrt iter    5 1.00000000   0.733E-04       0.034     3371.836
     NS sqrt iter    6 1.00000000   0.763E-11       0.015     2103.844
     Symmetrizing Results
     Final NS sqrt iter    6 1.00000000   0.147E-11

     Est. extremal eigenvalues     -0.83209     2.58033  converged:  T
     TRS4 it   1 1.00000000   0.285E+02       0.007     2128.993   0.100E-11
     TRS4 it   2 1.00000000   0.235E+02       0.013     2187.987   0.100E-11
     TRS4 it   3 1.00000000   0.154E+02       0.013     2175.375   0.100E-11
     TRS4 it   4 1.00000000   0.894E+01       0.013     2197.844   0.100E-11
     TRS4 it   5 1.00000000   0.368E+01       0.013     2183.359   0.100E-11
     TRS4 it   6 1.00000000   0.912E+00       0.013     2191.373   0.100E-11
     TRS4 it   7 1.00000000   0.103E+00       0.013     2168.549   0.100E-11
     TRS4 it   8 1.00000000   0.187E-02       0.013     2196.415   0.100E-11
     TRS4 it   9 1.00000000   0.698E-06       0.013     2182.149   0.100E-11
     TRS4 it  10 1.00000000   0.183E-12       0.013     2186.815   0.100E-11
     Final TRS4 iteration   10 1.00000000   0.183E-12
     Chemical potential (mu):       0.05399
 
 PAO| energy:  -191.07622185714075      penalty:   5.1980442282124515E-004
 PAO|LS| adapt:  T T T
 PAO|LS| adapt: scan_steps:    0.0000000000000000       0.32327754542667786       0.64655509085335572     
 PAO|LS| adapt: energies:   -191.04447794058052       -191.09479536701011       -191.07622185714075     
 PAO|LS| adapt: suggested step_size:   0.39775828251007200     
 PAO|LS| adapt: predicted energy  -191.09662375745725     
 PAO| ======================= Iteration:        16 =============================

     Lanczos converged:  T threshold:   0.100E-02
     Est. extremal eigenvalues:    0.468E+01   0.133E+00
     Est. condition number :    0.351E+02

 Order=           3
     NS sqrt iter    1 1.00000000   0.120E+01       0.021     2678.316
     NS sqrt iter    2 1.00000000   0.611E+00       0.034     3361.908
     NS sqrt iter    3 1.00000000   0.194E+00       0.034     3349.419
     NS sqrt iter    4 1.00000000   0.232E-01       0.034     3363.640
     NS sqrt iter    5 1.00000000   0.864E-04       0.034     3349.637
     NS sqrt iter    6 1.00000000   0.126E-10       0.016     2123.356
     Symmetrizing Results
     Final NS sqrt iter    6 1.00000000   0.187E-11

     Est. extremal eigenvalues     -0.83208     2.58491  converged:  T
     TRS4 it   1 1.00000000   0.285E+02       0.007     2127.001   0.100E-11
     TRS4 it   2 1.00000000   0.235E+02       0.013     2180.118   0.100E-11
     TRS4 it   3 1.00000000   0.155E+02       0.013     2178.347   0.100E-11
     TRS4 it   4 1.00000000   0.899E+01       0.013     2179.969   0.100E-11
     TRS4 it   5 1.00000000   0.372E+01       0.013     2185.935   0.100E-11
     TRS4 it   6 1.00000000   0.935E+00       0.013     2160.619   0.100E-11
     TRS4 it   7 1.00000000   0.108E+00       0.013     2164.724   0.100E-11
     TRS4 it   8 1.00000000   0.206E-02       0.013     2198.476   0.100E-11
     TRS4 it   9 1.00000000   0.841E-06       0.013     2173.360   0.100E-11
     TRS4 it  10 1.00000000   0.247E-12       0.013     2173.106   0.100E-11
     Final TRS4 iteration   10 1.00000000   0.247E-12
     Chemical potential (mu):       0.05264
 
 PAO| energy:  -191.09656803552153      penalty:   5.0712657027809341E-004
 PAO|CG| trace_G_new   0.10091751112991026     
 PAO|CG| trace_G_prev   0.26832263045949961     
 PAO|CG| trace_G_mix    4.4889093207171066E-003
 PAO|CG| trace_D   0.38618490335097294     
 PAO|CG| trace_D_Gnew   6.6637479853639452E-004
 PAO|CG| beta:   0.35937558320764901     
 PAO| norm of gradient:  0.31767516605789359     
 PAO| energy improvement:  -5.2090094941007692E-002
 PAO| step     16                 -191.096568036  0.620E-03  0.398E+00     1.485
 PAO|LS| adapt:  T F F
 PAO|LS| adapt: scan_steps:    0.0000000000000000        0.0000000000000000        0.0000000000000000     
 PAO|LS| adapt: energies:   -191.09656803552153        0.0000000000000000        0.0000000000000000     
 PAO| ======================= Iteration:        17 =============================

     Lanczos converged:  T threshold:   0.100E-02
     Est. extremal eigenvalues:    0.464E+01   0.134E+00
     Est. condition number :    0.346E+02

 Order=           3
     NS sqrt iter    1 1.00000000   0.119E+01       0.021     2693.662
     NS sqrt iter    2 1.00000000   0.607E+00       0.034     3336.931
     NS sqrt iter    3 1.00000000   0.191E+00       0.034     3346.836
     NS sqrt iter    4 1.00000000   0.225E-01       0.034     3348.244
     NS sqrt iter    5 1.00000000   0.787E-04       0.034     3357.809
     NS sqrt iter    6 1.00000000   0.944E-11       0.015     2128.101
     Symmetrizing Results
     Final NS sqrt iter    6 1.00000000   0.163E-11

     Est. extremal eigenvalues     -0.83213     2.58168  converged:  T
     TRS4 it   1 1.00000000   0.285E+02       0.007     2130.099   0.100E-11
     TRS4 it   2 1.00000000   0.235E+02       0.013     2170.839   0.100E-11
     TRS4 it   3 1.00000000   0.154E+02       0.013     2166.204   0.100E-11
     TRS4 it   4 1.00000000   0.894E+01       0.013     2178.522   0.100E-11
     TRS4 it   5 1.00000000   0.368E+01       0.013     2193.826   0.100E-11
     TRS4 it   6 1.00000000   0.914E+00       0.013     2186.084   0.100E-11
     TRS4 it   7 1.00000000   0.104E+00       0.013     2185.900   0.100E-11
     TRS4 it   8 1.00000000   0.189E-02       0.013     2184.532   0.100E-11
     TRS4 it   9 1.00000000   0.710E-06       0.013     2164.255   0.100E-11
     TRS4 it  10 1.00000000   0.187E-12       0.013     2146.656   0.100E-11
     Final TRS4 iteration   10 1.00000000   0.187E-12
     Chemical potential (mu):       0.05382
 
 PAO| energy:  -191.10049905382655      penalty:   4.9908695198249819E-004
 PAO|LS| adapt:  T T F
 PAO|LS| adapt: scan_steps:    0.0000000000000000       0.39775828251007200        0.0000000000000000     
 PAO|LS| adapt: energies:   -191.09656803552153       -191.10049905382655        0.0000000000000000     
 PAO| ======================= Iteration:        18 =============================

     Lanczos converged:  T threshold:   0.100E-02
     Est. extremal eigenvalues:    0.461E+01   0.135E+00
     Est. condition number :    0.341E+02

 Order=           3
     NS sqrt iter    1 1.00000000   0.118E+01       0.021     2682.511
     NS sqrt iter    2 1.00000000   0.602E+00       0.034     3329.756
     NS sqrt iter    3 1.00000000   0.189E+00       0.034     3342.956
     NS sqrt iter    4 1.00000000   0.218E-01       0.034     3341.594
     NS sqrt iter    5 1.00000000   0.719E-04       0.034     3344.333
     NS sqrt iter    6 1.00000000   0.709E-11       0.015     2121.010
     Symmetrizing Results
     Final NS sqrt iter    6 1.00000000   0.142E-11

     Est. extremal eigenvalues     -0.83201     2.57822  converged:  T
     TRS4 it   1 1.00000000   0.286E+02       0.007     2150.495   0.100E-11
     TRS4 it   2 1.00000000   0.234E+02       0.013     2171.195   0.100E-11
     TRS4 it   3 1.00000000   0.154E+02       0.013     2155.247   0.100E-11
     TRS4 it   4 1.00000000   0.889E+01       0.013     2184.442   0.100E-11
     TRS4 it   5 1.00000000   0.364E+01       0.013     2175.136   0.100E-11
     TRS4 it   6 1.00000000   0.894E+00       0.013     2138.377   0.100E-11
     TRS4 it   7 1.00000000   0.994E-01       0.013     2182.818   0.100E-11
     TRS4 it   8 1.00000000   0.174E-02       0.013     2198.631   0.100E-11
     TRS4 it   9 1.00000000   0.603E-06       0.013     2168.913   0.100E-11
     TRS4 it  10 1.00000000   0.162E-12       0.013     2169.855   0.100E-11
     Final TRS4 iteration   10 1.00000000   0.162E-12
     Chemical potential (mu):       0.05507
 
 PAO| energy:  -191.03203349819213      penalty:   4.9842340151772056E-004
 PAO|LS| adapt:  T T T
 PAO|LS| adapt: scan_steps:    0.0000000000000000       0.39775828251007200       0.79551656502014401     
 PAO|LS| adapt: energies:   -191.09656803552153       -191.10049905382655       -191.03203349819213     
 PAO|LS| adapt: suggested step_size:   0.22047678054153291     
 PAO|LS| adapt: predicted energy  -191.10768984042338     
 PAO| ======================= Iteration:        19 =============================

     Lanczos converged:  T threshold:   0.100E-02
     Est. extremal eigenvalues:    0.466E+01   0.134E+00
     Est. condition number :    0.348E+02

 Order=           3
     NS sqrt iter    1 1.00000000   0.119E+01       0.021     2679.983
     NS sqrt iter    2 1.00000000   0.608E+00       0.034     3335.236
     NS sqrt iter    3 1.00000000   0.192E+00       0.034     3355.821
     NS sqrt iter    4 1.00000000   0.228E-01       0.034     3334.342
     NS sqrt iter    5 1.00000000   0.820E-04       0.034     3341.122
     NS sqrt iter    6 1.00000000   0.107E-10       0.015     2144.987
     Symmetrizing Results
     Final NS sqrt iter    6 1.00000000   0.174E-11

     Est. extremal eigenvalues     -0.83213     2.58315  converged:  T
     TRS4 it   1 1.00000000   0.285E+02       0.007     2122.012   0.100E-11
     TRS4 it   2 1.00000000   0.235E+02       0.013     2191.506   0.100E-11
     TRS4 it   3 1.00000000   0.155E+02       0.013     2191.523   0.100E-11
     TRS4 it   4 1.00000000   0.896E+01       0.013     2214.601   0.100E-11
     TRS4 it   5 1.00000000   0.370E+01       0.013     2186.674   0.100E-11
     TRS4 it   6 1.00000000   0.923E+00       0.013     2191.412   0.100E-11
     TRS4 it   7 1.00000000   0.105E+00       0.013     2187.834   0.100E-11
     TRS4 it   8 1.00000000   0.196E-02       0.013     2175.041   0.100E-11
     TRS4 it   9 1.00000000   0.766E-06       0.013     2195.694   0.100E-11
     TRS4 it  10 1.00000000   0.238E-12       0.013     2182.585   0.100E-11
     Final TRS4 iteration   10 1.00000000   0.238E-12
     Chemical potential (mu):       0.05328
 
 PAO| energy:  -191.10767631291128      penalty:   5.0177145726565853E-004
 PAO|CG| trace_G_new    2.0845977029044681E-002
 PAO|CG| trace_G_prev   0.10091751112991026     
 PAO|CG| trace_G_mix   -3.4944606912445302E-004
 PAO|CG| trace_D   0.15031464646875983     
 PAO|CG| trace_D_Gnew  -4.4998398415665021E-005
 PAO|CG| beta:   0.21002720797270202     
 PAO| norm of gradient:  0.14438135970077537     
 PAO| energy improvement:  -1.1108277389752175E-002
 PAO| step     19                 -191.107676313  0.282E-03  0.220E+00     1.493
 PAO|LS| adapt:  T F F
 PAO|LS| adapt: scan_steps:    0.0000000000000000        0.0000000000000000        0.0000000000000000     
 PAO|LS| adapt: energies:   -191.10767631291128        0.0000000000000000        0.0000000000000000     
 PAO| ======================= Iteration:        20 =============================

     Lanczos converged:  T threshold:   0.100E-02
     Est. extremal eigenvalues:    0.465E+01   0.134E+00
     Est. condition number :    0.348E+02

 Order=           3
     NS sqrt iter    1 1.00000000   0.119E+01       0.021     2677.370
     NS sqrt iter    2 1.00000000   0.608E+00       0.034     3350.599
     NS sqrt iter    3 1.00000000   0.192E+00       0.034     3313.626
     NS sqrt iter    4 1.00000000   0.228E-01       0.034     3353.298
     NS sqrt iter    5 1.00000000   0.818E-04       0.034     3363.991
     NS sqrt iter    6 1.00000000   0.106E-10       0.015     2125.543
     Symmetrizing Results
     Final NS sqrt iter    6 1.00000000   0.173E-11

     Est. extremal eigenvalues     -0.83213     2.58170  converged:  T
     TRS4 it   1 1.00000000   0.285E+02       0.007     2132.180   0.100E-11
     TRS4 it   2 1.00000000   0.235E+02       0.013     2189.647   0.100E-11
     TRS4 it   3 1.00000000   0.154E+02       0.013     2189.739   0.100E-11
     TRS4 it   4 1.00000000   0.895E+01       0.013     2190.292   0.100E-11
     TRS4 it   5 1.00000000   0.369E+01       0.013     2157.183   0.100E-11
     TRS4 it   6 1.00000000   0.919E+00       0.013     2192.602   0.100E-11
     TRS4 it   7 1.00000000   0.105E+00       0.013     2176.280   0.100E-11
     TRS4 it   8 1.00000000   0.193E-02       0.013     2204.301   0.100E-11
     TRS4 it   9 1.00000000   0.740E-06       0.013     2198.452   0.100E-11
     TRS4 it  10 1.00000000   0.188E-12       0.013     2179.947   0.100E-11
     Final TRS4 iteration   10 1.00000000   0.188E-12
     Chemical potential (mu):       0.05349
 
 PAO| energy:  -191.11140397516203      penalty:   4.9205498278175801E-004
 PAO|LS| adapt:  T T F
 PAO|LS| adapt: scan_steps:    0.0000000000000000       0.22047678054153291        0.0000000000000000     
 PAO|LS| adapt: energies:   -191.10767631291128       -191.11140397516203        0.0000000000000000     
 PAO| ======================= Iteration:        21 =============================

     Lanczos converged:  T threshold:   0.100E-02
     Est. extremal eigenvalues:    0.465E+01   0.134E+00
     Est. condition number :    0.347E+02

 Order=           3
     NS sqrt iter    1 1.00000000   0.119E+01       0.021     2676.228
     NS sqrt iter    2 1.00000000   0.608E+00       0.034     3326.188
     NS sqrt iter    3 1.00000000   0.192E+00       0.034     3348.764
     NS sqrt iter    4 1.00000000   0.228E-01       0.034     3345.913
     NS sqrt iter    5 1.00000000   0.816E-04       0.034     3368.082
     NS sqrt iter    6 1.00000000   0.105E-10       0.016     2103.222
     Symmetrizing Results
     Final NS sqrt iter    6 1.00000000   0.171E-11

     Est. extremal eigenvalues     -0.83214     2.58022  converged:  T
     TRS4 it   1 1.00000000   0.285E+02       0.007     2147.658   0.100E-11
     TRS4 it   2 1.00000000   0.235E+02       0.013     2176.828   0.100E-11
     TRS4 it   3 1.00000000   0.154E+02       0.013     2176.233   0.100E-11
     TRS4 it   4 1.00000000   0.894E+01       0.013     2192.668   0.100E-11
     TRS4 it   5 1.00000000   0.368E+01       0.013     2191.128   0.100E-11
     TRS4 it   6 1.00000000   0.914E+00       0.013     2185.853   0.100E-11
     TRS4 it   7 1.00000000   0.104E+00       0.013     2186.162   0.100E-11
     TRS4 it   8 1.00000000   0.190E-02       0.013     2190.926   0.100E-11
     TRS4 it   9 1.00000000   0.715E-06       0.013     2184.784   0.100E-11
     TRS4 it  10 1.00000000   0.169E-12       0.013     2199.397   0.100E-11
     Final TRS4 iteration   10 1.00000000   0.169E-12
     Chemical potential (mu):       0.05370
 
 PAO| energy:  -191.11337786021451      penalty:   4.8275983690810757E-004
 PAO|LS| adapt:  T T F
 PAO|LS| adapt: scan_steps:    0.0000000000000000       0.44095356108306583        0.0000000000000000     
 PAO|LS| adapt: energies:   -191.10767631291128       -191.11337786021451        0.0000000000000000     
 PAO| ======================= Iteration:        22 =============================

     Lanczos converged:  T threshold:   0.100E-02
     Est. extremal eigenvalues:    0.464E+01   0.134E+00
     Est. condition number :    0.347E+02

 Order=           3
     NS sqrt iter    1 1.00000000   0.119E+01       0.021     2684.419
     NS sqrt iter    2 1.00000000   0.607E+00       0.034     3342.209
     NS sqrt iter    3 1.00000000   0.192E+00       0.034     3351.576
     NS sqrt iter    4 1.00000000   0.228E-01       0.034     3342.437
     NS sqrt iter    5 1.00000000   0.811E-04       0.034     3331.796
     NS sqrt iter    6 1.00000000   0.103E-10       0.016     2103.922
     Symmetrizing Results
     Final NS sqrt iter    6 1.00000000   0.167E-11

     Est. extremal eigenvalues     -0.83214     2.57721  converged:  T
     TRS4 it   1 1.00000000   0.285E+02       0.007     2110.643   0.100E-11
     TRS4 it   2 1.00000000   0.234E+02       0.013     2172.449   0.100E-11
     TRS4 it   3 1.00000000   0.154E+02       0.013     2174.752   0.100E-11
     TRS4 it   4 1.00000000   0.891E+01       0.013     2201.898   0.100E-11
     TRS4 it   5 1.00000000   0.366E+01       0.013     2195.017   0.100E-11
     TRS4 it   6 1.00000000   0.906E+00       0.013     2177.772   0.100E-11
     TRS4 it   7 1.00000000   0.102E+00       0.013     2186.907   0.100E-11
     TRS4 it   8 1.00000000   0.183E-02       0.013     2162.816   0.100E-11
     TRS4 it   9 1.00000000   0.668E-06       0.013     2161.444   0.100E-11
     TRS4 it  10 1.00000000   0.167E-12       0.013     2182.015   0.100E-11
     Final TRS4 iteration   10 1.00000000   0.167E-12
     Chemical potential (mu):       0.05413
 
 PAO| energy:  -191.11198673109834      penalty:   4.6540587725521851E-004
 PAO|LS| Need extra step
 PAO|LS| adapt:  T T T
 PAO|LS| adapt: scan_steps:    0.0000000000000000       0.44095356108306583       0.88190712216613165     
 PAO|LS| adapt: energies:   -191.10767631291128       -191.11337786021451       -191.11198673109834     
 PAO|LS| adapt: suggested step_size:   0.57494347807276203     
 PAO|LS| adapt: predicted energy  -191.11370530545256     
 PAO| ======================= Iteration:        23 =============================

     Lanczos converged:  T threshold:   0.100E-02
     Est. extremal eigenvalues:    0.465E+01   0.134E+00
     Est. condition number :    0.347E+02

 Order=           3
     NS sqrt iter    1 1.00000000   0.119E+01       0.021     2670.170
     NS sqrt iter    2 1.00000000   0.608E+00       0.034     3328.816
     NS sqrt iter    3 1.00000000   0.192E+00       0.034     3286.445
     NS sqrt iter    4 1.00000000   0.228E-01       0.035     3280.900
     NS sqrt iter    5 1.00000000   0.814E-04       0.034     3332.828
     NS sqrt iter    6 1.00000000   0.104E-10       0.016     2098.656
     Symmetrizing Results
     Final NS sqrt iter    6 1.00000000   0.170E-11

     Est. extremal eigenvalues     -0.83214     2.57932  converged:  T
     TRS4 it   1 1.00000000   0.285E+02       0.007     2099.160   0.100E-11
     TRS4 it   2 1.00000000   0.234E+02       0.013     2145.529   0.100E-11
     TRS4 it   3 1.00000000   0.154E+02       0.013     2176.816   0.100E-11
     TRS4 it   4 1.00000000   0.893E+01       0.013     2161.853   0.100E-11
     TRS4 it   5 1.00000000   0.367E+01       0.013     2189.313   0.100E-11
     TRS4 it   6 1.00000000   0.912E+00       0.013     2187.097   0.100E-11
     TRS4 it   7 1.00000000   0.103E+00       0.013     2176.267   0.100E-11
     TRS4 it   8 1.00000000   0.188E-02       0.013     2179.620   0.100E-11
     TRS4 it   9 1.00000000   0.701E-06       0.013     2191.679   0.100E-11
     TRS4 it  10 1.00000000   0.192E-12       0.013     2187.143   0.100E-11
     Final TRS4 iteration   10 1.00000000   0.192E-12
     Chemical potential (mu):       0.05383
 
 PAO| energy:  -191.11371245858314      penalty:   4.7731360269211658E-004
 PAO|CG| trace_G_new    1.6695523547631513E-002
 PAO|CG| trace_G_prev    2.0845977029044681E-002
 PAO|CG| trace_G_mix    1.0607153849322989E-004
 PAO|CG| trace_D    2.7495472523411037E-002
 PAO|CG| trace_D_Gnew  -4.2584893129054082E-005
 PAO|CG| beta:   0.79581072098583894     
 PAO| norm of gradient:  0.12921115875817968     
 PAO| energy improvement:  -6.0361456718567297E-003
 PAO| step     23                 -191.113712459  0.252E-03  0.575E+00     1.957
 PAO|LS| adapt:  T F F
 PAO|LS| adapt: scan_steps:    0.0000000000000000        0.0000000000000000        0.0000000000000000     
 PAO|LS| adapt: energies:   -191.11371245858314        0.0000000000000000        0.0000000000000000     
 PAO| ======================= Iteration:        24 =============================

     Lanczos converged:  T threshold:   0.100E-02
     Est. extremal eigenvalues:    0.463E+01   0.133E+00
     Est. condition number :    0.347E+02

 Order=           3
     NS sqrt iter    1 1.00000000   0.119E+01       0.021     2706.187
     NS sqrt iter    2 1.00000000   0.606E+00       0.034     3343.820
     NS sqrt iter    3 1.00000000   0.192E+00       0.034     3362.432
     NS sqrt iter    4 1.00000000   0.228E-01       0.034     3334.563
     NS sqrt iter    5 1.00000000   0.815E-04       0.034     3365.175
     NS sqrt iter    6 1.00000000   0.104E-10       0.015     2122.049
     Symmetrizing Results
     Final NS sqrt iter    6 1.00000000   0.168E-11

     Est. extremal eigenvalues     -0.83215     2.57572  converged:  T
     TRS4 it   1 1.00000000   0.285E+02       0.007     2108.257   0.100E-11
     TRS4 it   2 1.00000000   0.234E+02       0.013     2158.646   0.100E-11
     TRS4 it   3 1.00000000   0.154E+02       0.013     2166.979   0.100E-11
     TRS4 it   4 1.00000000   0.890E+01       0.013     2182.391   0.100E-11
     TRS4 it   5 1.00000000   0.365E+01       0.013     2193.537   0.100E-11
     TRS4 it   6 1.00000000   0.901E+00       0.013     2186.798   0.100E-11
     TRS4 it   7 1.00000000   0.101E+00       0.013     2190.862   0.100E-11
     TRS4 it   8 1.00000000   0.180E-02       0.013     2170.294   0.100E-11
     TRS4 it   9 1.00000000   0.647E-06       0.013     2190.771   0.100E-11
     TRS4 it  10 1.00000000   0.165E-12       0.013     2175.916   0.100E-11
     Final TRS4 iteration   10 1.00000000   0.165E-12
     Chemical potential (mu):       0.05433
 
 PAO| energy:  -191.11688676307287      penalty:   4.3877663798005571E-004
 PAO|LS| adapt:  T T F
 PAO|LS| adapt: scan_steps:    0.0000000000000000       0.57494347807276203        0.0000000000000000     
 PAO|LS| adapt: energies:   -191.11371245858314       -191.11688676307287        0.0000000000000000     
 PAO| ======================= Iteration:        25 =============================

     Lanczos converged:  T threshold:   0.100E-02
     Est. extremal eigenvalues:    0.462E+01   0.133E+00
     Est. condition number :    0.347E+02

 Order=           3
     NS sqrt iter    1 1.00000000   0.119E+01       0.021     2665.702
     NS sqrt iter    2 1.00000000   0.605E+00       0.034     3360.295
     NS sqrt iter    3 1.00000000   0.192E+00       0.034     3355.235
     NS sqrt iter    4 1.00000000   0.227E-01       0.034     3349.451
     NS sqrt iter    5 1.00000000   0.817E-04       0.034     3349.841
     NS sqrt iter    6 1.00000000   0.105E-10       0.015     2121.196
     Symmetrizing Results
     Final NS sqrt iter    6 1.00000000   0.169E-11

     Est. extremal eigenvalues     -0.83215     2.57187  converged:  T
     TRS4 it   1 1.00000000   0.285E+02       0.007     2132.285   0.100E-11
     TRS4 it   2 1.00000000   0.234E+02       0.013     2190.574   0.100E-11
     TRS4 it   3 1.00000000   0.154E+02       0.013     2210.125   0.100E-11
     TRS4 it   4 1.00000000   0.887E+01       0.013     2169.928   0.100E-11
     TRS4 it   5 1.00000000   0.362E+01       0.013     2179.270   0.100E-11
     TRS4 it   6 1.00000000   0.891E+00       0.013     2177.859   0.100E-11
     TRS4 it   7 1.00000000   0.991E-01       0.013     2198.651   0.100E-11
     TRS4 it   8 1.00000000   0.173E-02       0.013     2184.095   0.100E-11
     TRS4 it   9 1.00000000   0.598E-06       0.013     2192.562   0.100E-11
     TRS4 it  10 1.00000000   0.103E-12       0.013     2175.192   0.100E-11
     Final TRS4 iteration   10 1.00000000   0.103E-12
     Chemical potential (mu):       0.05483
 
 PAO| energy:  -191.10694456921965      penalty:   4.0451250394727057E-004
 PAO|LS| adapt:  T T T
 PAO|LS| adapt: scan_steps:    0.0000000000000000       0.57494347807276203        1.1498869561455241     
 PAO|LS| adapt: energies:   -191.11371245858314       -191.11688676307287       -191.10694456921965     
 PAO|LS| adapt: suggested step_size:   0.42661296530500409     
 PAO|LS| adapt: predicted energy  -191.11732327750337     
 PAO| ======================= Iteration:        26 =============================

     Lanczos converged:  T threshold:   0.100E-02
     Est. extremal eigenvalues:    0.464E+01   0.133E+00
     Est. condition number :    0.347E+02

 Order=           3
     NS sqrt iter    1 1.00000000   0.119E+01       0.021     2686.112
     NS sqrt iter    2 1.00000000   0.607E+00       0.034     3349.209
     NS sqrt iter    3 1.00000000   0.192E+00       0.034     3373.781
     NS sqrt iter    4 1.00000000   0.228E-01       0.034     3363.537
     NS sqrt iter    5 1.00000000   0.815E-04       0.034     3338.459
     NS sqrt iter    6 1.00000000   0.104E-10       0.015     2125.815
     Symmetrizing Results
     Final NS sqrt iter    6 1.00000000   0.169E-11

     Est. extremal eigenvalues     -0.83215     2.57667  converged:  T
     TRS4 it   1 1.00000000   0.285E+02       0.007     2124.280   0.100E-11
     TRS4 it   2 1.00000000   0.234E+02       0.013     2174.863   0.100E-11
     TRS4 it   3 1.00000000   0.154E+02       0.013     2172.466   0.100E-11
     TRS4 it   4 1.00000000   0.891E+01       0.013     2190.032   0.100E-11
     TRS4 it   5 1.00000000   0.365E+01       0.013     2194.249   0.100E-11
     TRS4 it   6 1.00000000   0.904E+00       0.013     2148.073   0.100E-11
     TRS4 it   7 1.00000000   0.102E+00       0.013     2179.617   0.100E-11
     TRS4 it   8 1.00000000   0.182E-02       0.013     2169.736   0.100E-11
     TRS4 it   9 1.00000000   0.660E-06       0.013     2181.075   0.100E-11
     TRS4 it  10 1.00000000   0.172E-12       0.013     2152.502   0.100E-11
     Final TRS4 iteration   10 1.00000000   0.172E-12
     Chemical potential (mu):       0.05420
 
 PAO| energy:  -191.11730945748005      penalty:   4.4830156472812181E-004
 PAO|CG| trace_G_new    1.3373019855754262E-002
 PAO|CG| trace_G_prev    1.6695523547631513E-002
 PAO|CG| trace_G_mix    2.6429907867790876E-004
 PAO|CG| trace_D    3.4176589609135652E-002
 PAO|CG| trace_D_Gnew  -7.9692275798299910E-005
 PAO|CG| beta:   0.78516380391892560     
 PAO| norm of gradient:  0.11564177383521174     
 PAO| energy improvement:  -3.5969988969100086E-003
 PAO| step     26                 -191.117309457  0.226E-03  0.427E+00     1.512
 PAO|LS| adapt:  T F F
 PAO|LS| adapt: scan_steps:    0.0000000000000000        0.0000000000000000        0.0000000000000000     
 PAO|LS| adapt: energies:   -191.11730945748005        0.0000000000000000        0.0000000000000000     
 PAO| ======================= Iteration:        27 =============================

     Lanczos converged:  T threshold:   0.100E-02
     Est. extremal eigenvalues:    0.462E+01   0.133E+00
     Est. condition number :    0.347E+02

 Order=           3
     NS sqrt iter    1 1.00000000   0.119E+01       0.021     2661.211
     NS sqrt iter    2 1.00000000   0.605E+00       0.034     3368.107
     NS sqrt iter    3 1.00000000   0.191E+00       0.034     3349.462
     NS sqrt iter    4 1.00000000   0.227E-01       0.034     3354.615
     NS sqrt iter    5 1.00000000   0.815E-04       0.034     3347.253
     NS sqrt iter    6 1.00000000   0.105E-10       0.016     2110.389
     Symmetrizing Results
     Final NS sqrt iter    6 1.00000000   0.170E-11

     Est. extremal eigenvalues     -0.83216     2.57427  converged:  T
     TRS4 it   1 1.00000000   0.285E+02       0.007     2108.629   0.100E-11
     TRS4 it   2 1.00000000   0.234E+02       0.013     2209.322   0.100E-11
     TRS4 it   3 1.00000000   0.154E+02       0.013     2195.428   0.100E-11
     TRS4 it   4 1.00000000   0.889E+01       0.013     2185.779   0.100E-11
     TRS4 it   5 1.00000000   0.363E+01       0.013     2188.086   0.100E-11
     TRS4 it   6 1.00000000   0.895E+00       0.013     2185.871   0.100E-11
     TRS4 it   7 1.00000000   0.998E-01       0.013     2195.528   0.100E-11
     TRS4 it   8 1.00000000   0.175E-02       0.013     2191.329   0.100E-11
     TRS4 it   9 1.00000000   0.615E-06       0.013     2175.508   0.100E-11
     TRS4 it  10 1.00000000   0.139E-12       0.013     2177.542   0.100E-11
     Final TRS4 iteration   10 1.00000000   0.139E-12
     Chemical potential (mu):       0.05465
 
 PAO| energy:  -191.11994300012989      penalty:   4.1247623388511494E-004
 PAO|LS| adapt:  T T F
 PAO|LS| adapt: scan_steps:    0.0000000000000000       0.42661296530500409        0.0000000000000000     
 PAO|LS| adapt: energies:   -191.11730945748005       -191.11994300012989        0.0000000000000000     
 PAO| ======================= Iteration:        28 =============================

     Lanczos converged:  T threshold:   0.100E-02
     Est. extremal eigenvalues:    0.461E+01   0.133E+00
     Est. condition number :    0.348E+02

 Order=           3
     NS sqrt iter    1 1.00000000   0.118E+01       0.021     2683.252
     NS sqrt iter    2 1.00000000   0.604E+00       0.033     3383.057
     NS sqrt iter    3 1.00000000   0.191E+00       0.034     3337.887
     NS sqrt iter    4 1.00000000   0.226E-01       0.034     3323.787
     NS sqrt iter    5 1.00000000   0.816E-04       0.034     3335.701
     NS sqrt iter    6 1.00000000   0.107E-10       0.015     2147.802
     Symmetrizing Results
     Final NS sqrt iter    6 1.00000000   0.172E-11

     Est. extremal eigenvalues     -0.83216     2.57168  converged:  T
     TRS4 it   1 1.00000000   0.286E+02       0.007     2116.580   0.100E-11
     TRS4 it   2 1.00000000   0.234E+02       0.013     2214.519   0.100E-11
     TRS4 it   3 1.00000000   0.154E+02       0.013     2171.431   0.100E-11
     TRS4 it   4 1.00000000   0.886E+01       0.013     2185.762   0.100E-11
     TRS4 it   5 1.00000000   0.361E+01       0.013     2178.597   0.100E-11
     TRS4 it   6 1.00000000   0.887E+00       0.013     2182.689   0.100E-11
     TRS4 it   7 1.00000000   0.980E-01       0.013     2170.633   0.100E-11
     TRS4 it   8 1.00000000   0.169E-02       0.013     2181.470   0.100E-11
     TRS4 it   9 1.00000000   0.574E-06       0.013     2180.662   0.100E-11
     TRS4 it  10 1.00000000   0.121E-12       0.013     2173.458   0.100E-11
     Final TRS4 iteration   10 1.00000000   0.121E-12
     Chemical potential (mu):       0.05511
 
 PAO| energy:  -191.11632204871103      penalty:   3.7976434531315030E-004
 PAO|LS| adapt:  T T T
 PAO|LS| adapt: scan_steps:    0.0000000000000000       0.42661296530500409       0.85322593061000818     
 PAO|LS| adapt: energies:   -191.11730945748005       -191.11994300012989       -191.11632204871103     
 PAO|LS| adapt: suggested step_size:   0.39293786878302844     
 PAO|LS| adapt: predicted energy  -191.11996248564037     
 PAO| ======================= Iteration:        29 =============================

     Lanczos converged:  T threshold:   0.100E-02
     Est. extremal eigenvalues:    0.463E+01   0.133E+00
     Est. condition number :    0.347E+02

 Order=           3
     NS sqrt iter    1 1.00000000   0.119E+01       0.021     2674.804
     NS sqrt iter    2 1.00000000   0.605E+00       0.034     3377.209
     NS sqrt iter    3 1.00000000   0.191E+00       0.034     3340.353
     NS sqrt iter    4 1.00000000   0.227E-01       0.034     3365.123
     NS sqrt iter    5 1.00000000   0.815E-04       0.034     3368.432
     NS sqrt iter    6 1.00000000   0.105E-10       0.015     2139.351
     Symmetrizing Results
     Final NS sqrt iter    6 1.00000000   0.170E-11

     Est. extremal eigenvalues     -0.83216     2.57447  converged:  T
     TRS4 it   1 1.00000000   0.285E+02       0.007     2132.656   0.100E-11
     TRS4 it   2 1.00000000   0.234E+02       0.013     2173.043   0.100E-11
     TRS4 it   3 1.00000000   0.154E+02       0.013     2188.113   0.100E-11
     TRS4 it   4 1.00000000   0.889E+01       0.013     2172.404   0.100E-11
     TRS4 it   5 1.00000000   0.363E+01       0.013     2152.952   0.100E-11
     TRS4 it   6 1.00000000   0.896E+00       0.013     2184.975   0.100E-11
     TRS4 it   7 1.00000000   0.100E+00       0.013     2184.847   0.100E-11
     TRS4 it   8 1.00000000   0.176E-02       0.013     2194.103   0.100E-11
     TRS4 it   9 1.00000000   0.619E-06       0.013     2176.849   0.100E-11
[...]
     TRS4 it   1 1.00000000   0.287E+02       0.007     2108.345   0.100E-11
     TRS4 it   2 1.00000000   0.235E+02       0.013     2187.338   0.100E-11
     TRS4 it   3 1.00000000   0.155E+02       0.013     2168.612   0.100E-11
     TRS4 it   4 1.00000000   0.920E+01       0.013     2167.624   0.100E-11
     TRS4 it   5 1.00000000   0.410E+01       0.013     2171.014   0.100E-11
     TRS4 it   6 1.00000000   0.124E+01       0.013     2166.233   0.100E-11
     TRS4 it   7 1.00000000   0.206E+00       0.013     2183.039   0.100E-11
     TRS4 it   8 1.00000000   0.883E-02       0.013     2186.608   0.100E-11
     TRS4 it   9 1.00000000   0.181E-04       0.013     2209.478   0.100E-11
     TRS4 it  10 1.00000000   0.113E-09       0.013     2199.426   0.100E-11
     Final TRS4 iteration   10 1.00000000   0.113E-09
     Chemical potential (mu):       0.02899
 
 PAO| energy:  -190.73561722122869      penalty:   1.7642441478342493E-008
 PAO| Writing restart file.
     Est. extremal eigenvalues     -0.82924     2.55519  converged:  T
     TRS4 it   1 1.00000000   0.287E+02       0.007     2097.771   0.100E-11
     TRS4 it   2 1.00000000   0.235E+02       0.013     2177.904   0.100E-11
     TRS4 it   3 1.00000000   0.155E+02       0.013     2166.750   0.100E-11
     TRS4 it   4 1.00000000   0.920E+01       0.013     2190.410   0.100E-11
     TRS4 it   5 1.00000000   0.410E+01       0.013     2173.848   0.100E-11
     TRS4 it   6 1.00000000   0.124E+01       0.013     2152.190   0.100E-11
     TRS4 it   7 1.00000000   0.206E+00       0.013     2160.048   0.100E-11
     TRS4 it   8 1.00000000   0.883E-02       0.013     2178.671   0.100E-11
     TRS4 it   9 1.00000000   0.181E-04       0.013     2165.284   0.100E-11
     TRS4 it  10 1.00000000   0.113E-09       0.013     2178.479   0.100E-11
     Final TRS4 iteration   10 1.00000000   0.113E-09
     Chemical potential (mu):       0.02899

 SCF     1     -1103.068551235     -1103.068551235    1.750785

*********************************************************
 Using MIXING_FRACTION=0.450 to mix KS matrix:  iscf=  2
 KS_nw=0.450*KS + 0.550*KS_old
*********************************************************
     Est. extremal eigenvalues     -0.82924     2.55519  converged:  T
     TRS4 it   1 1.00000000   0.287E+02       0.007     2072.966   0.100E-11
     TRS4 it   2 1.00000000   0.235E+02       0.013     2182.733   0.100E-11
     TRS4 it   3 1.00000000   0.155E+02       0.013     2185.520   0.100E-11
     TRS4 it   4 1.00000000   0.920E+01       0.013     2192.856   0.100E-11
     TRS4 it   5 1.00000000   0.410E+01       0.013     2159.145   0.100E-11
     TRS4 it   6 1.00000000   0.124E+01       0.013     2173.050   0.100E-11
     TRS4 it   7 1.00000000   0.206E+00       0.013     2188.800   0.100E-11
     TRS4 it   8 1.00000000   0.883E-02       0.013     2174.923   0.100E-11
     TRS4 it   9 1.00000000   0.181E-04       0.013     2158.643   0.100E-11
     TRS4 it  10 1.00000000   0.113E-09       0.013     2189.798   0.100E-11
     Final TRS4 iteration   10 1.00000000   0.113E-09
     Chemical potential (mu):       0.02899

 SCF     2     -1103.068551236        -0.000000000    1.756850


 SCF run converged in     2 steps.

 PAO| Storing density matrix for ASPC guess in slot:           1

 ENERGY| Total FORCE_EVAL ( QS ) energy [a.u.]:            -1103.068551235507357

 -------------------------------------------------------------------------------
 -                                                                             -
 -                                DBCSR STATISTICS                             -
 -                                                                             -
 -------------------------------------------------------------------------------
 COUNTER                                    TOTAL       BLAS       SMM       ACC
 flops     5 x     5 x     4             26419200       0.0%    100.0%      0.0%     
 flops    13 x     5 x     4             34078720       0.0%    100.0%      0.0%     
 flops     5 x    13 x     4             34078720       0.0%    100.0%      0.0%     
 flops    13 x    13 x     4             44994560       0.0%    100.0%      0.0%     
 flops     4 x     4 x     5           6362234880       0.0%    100.0%      0.0%     
 flops     5 x     4 x     5           7847936000       0.0%    100.0%      0.0%     
 flops     4 x     4 x    13           8270905344       0.0%    100.0%      0.0%     
 flops    13 x     4 x     5          10202316800       0.0%    100.0%      0.0%     
 flops     5 x     4 x    13          10202316800       0.0%    100.0%      0.0%     
 flops    13 x     4 x    13          13263011840       0.0%    100.0%      0.0%     
 flops     5 x     4 x     4         402255997920       0.0%    100.0%      0.0%     
 flops    13 x     4 x     4         545575207840       0.0%    100.0%      0.0%     
 flops     4 x     4 x     4       28358512055168       0.0%    100.0%      0.0%     
 flops inhomo. stacks                           0       0.0%      0.0%      0.0%
 flops total                        29.362632E+12       0.0%    100.0%      0.0%
 flops max/rank                    926.746538E+09       0.0%    100.0%      0.0%
 matmuls inhomo. stacks                         0       0.0%      0.0%      0.0%
 matmuls total                       225524685963       0.0%    100.0%      0.0%
 number of processed stacks             230393558       0.0%    100.0%      0.0%
 average stack size                                     0.0     978.9       0.0
 marketing flops                    51.170895E+12
 -------------------------------------------------------------------------------
 # multiplications                          47824
 max memory usage/rank             618.979328E+06
 # max total images/rank                        2
 # max 3D layers                                1
 # MPI messages exchanged                19894784
 MPI messages size (bytes):
  total size                         2.344968E+12
  min size                           0.000000E+00
  max size                         541.696000E+03
  average size                     117.868492E+03
 MPI breakdown and total messages size (bytes):
             size <=      128              873048                        0
       128 < size <=     8192              306378               1172559104
      8192 < size <=    32768              164389               3545723520
     32768 < size <=   131072             8432025             614939951616
    131072 < size <=  4194304            10118944            1725699312640
   4194304 < size <= 16777216                   0                        0
  16777216 < size                               0                        0
 -------------------------------------------------------------------------------

 *** WARNING in dbcsr_mm.F:301 :: Using a non-square number of MPI ranks ***
 *** might lead to poor performance. Used ranks: 32 Suggested: 36 64     ***

 -------------------------------------------------------------------------------
 -                                                                             -
 -                      DBCSR MESSAGE PASSING PERFORMANCE                      -
 -                                                                             -
 -------------------------------------------------------------------------------
 ROUTINE             CALLS      AVE VOLUME [Bytes]
 MP_Bcast               14                     12.
 MP_Allreduce       286006                     37.
 MP_Alltoall        124183                  14854.
 MP_ISend          1597358                  54902.
 MP_IRecv          1563862                  56144.
 -------------------------------------------------------------------------------

 -------------------------------------------------------------------------------
 -                                                                             -
 -                                DBM STATISTICS                               -
 -                                                                             -
 -------------------------------------------------------------------------------
    M  x    N  x    K                                          COUNT     PERCENT
 -------------------------------------------------------------------------------

 -------------------------------------------------------------------------------
 -                                                                             -
 -                                GRID STATISTICS                              -
 -                                                                             -
 -------------------------------------------------------------------------------
 LP    KERNEL             BACKEND                              COUNT     PERCENT
 2     collocate ortho    CPU                               13113520      28.83%
 2     integrate ortho    CPU                               13113520      28.83%
 3     collocate ortho    CPU                                8429728      18.53%
 3     integrate ortho    CPU                                8429728      18.53%
 4     collocate ortho    CPU                                1196544       2.63%
 4     integrate ortho    CPU                                1196544       2.63%
 0     collocate general  CPU                                   6144       0.01%
 -------------------------------------------------------------------------------

 MEMORY| Estimated peak process memory [MiB]                                 591

 -------------------------------------------------------------------------------
 -                                                                             -
 -                         MESSAGE PASSING PERFORMANCE                         -
 -                                                                             -
 -------------------------------------------------------------------------------

 ROUTINE             CALLS      AVE VOLUME [Bytes]
 MP_Group                5
 MP_Bcast           391361                   1882.
 MP_Allreduce       972517                    514.
 MP_Sync                 5
 MP_Alltoall           419
 MP_SendRecv          1488                  18832.
 MP_ISendRecv         1488                  18832.
 MP_Wait              4218
 MP_ISend             2470                 108139.
 MP_IRecv             2470                 108153.
 -------------------------------------------------------------------------------


 -------------------------------------------------------------------------------
 -                                                                             -
 -                           R E F E R E N C E S                               -
 -                                                                             -
 -------------------------------------------------------------------------------
 
 CP2K version 2024.3 (Development Version), the CP2K developers group (2024).
 CP2K is freely available from https://www.cp2k.org/ .
 
 T. D. Kuehne, M. Iannuzzi, M. Del Ben, V. V. Rybkin, P. Seewald, F. Stein, T. 
 Laino, R. Z. Khaliullin, O. Schuett, F. Schiffmann, D. Golze, J. Wilhelm, S. 
 Chulkov, M. H. Bani-Hashemian, V. Weber, U. Borstnik, M. Taillefumier, A. S. 
 Jakobovits, A. Lazzaro, H. Pabst, T. Mueller, R. Schade, M. Guidon, S. 
 Andermatt, N. Holmberg, G. K. Schenter, A. Hehn, A. Bussy, F. Belleflamme, G. 
 Tabacchi, A. Gloess, M. Lass, I. Bethune, C. J. Mundy, C. Plessl, M. Watkins, 
 J. VandeVondele, M. Krack, J. Hutter.
 J. Chem. Phys. 152, 194103 (2020).
 CP2K: An electronic structure and molecular dynamics software package - 
 Quickstep: Efficient and accurate electronic structure calculations.
 https://doi.org/10.1063/5.0007045

 O. Schuett, J. VandeVondele.
 J. Chem. Theory Comput. 14, 4168-4175 (2018).
 Machine Learning Adaptive Basis Sets for Efficient Large Scale Density 
 Functional Theory Simulation.
 https://doi.org/10.1021/acs.jctc.8b00378

 O. Schuett, P. Messmer, J. Hutter, J. VandeVondele.
 Electronic Structure Calculations on Graphics Processing Units, 173-190 (2016).
 GPU-Accelerated Sparse Matrix-Matrix Multiplication for Linear Scaling Density 
 Functional Theory.
 https://doi.org/10.1002/9781118670712.ch8

 A. Heinecke, G. Henry, M. Hutchinson, H. Pabst.
 Proceedings of Intl. Supercomputing Conference, 981-991 (2016).
 LIBXSMM: Accelerating Small Matrix Multiplications by Runtime Code Generation.
 https://doi.org/10.1109/SC.2016.83

 J. Hutter, M. Iannuzzi, F. Schiffmann, J. VandeVondele.
 WIREs Comput Mol Sci. 4, 15-25 (2014).
 CP2K: atomistic simulations of condensed matter systems.
 https://doi.org/10.1002/wcms.1159

 U. Borstnik, J. VandeVondele, V. Weber, J. Hutter.
 Parallel Comput. 40, 47-58 (2014).
 Sparse matrix multiplication: The distributed block-compressed sparse row 
 library.
 https://doi.org/10.1016/j.parco.2014.03.012

 A. Marek, V. Blum, R. Johanni, V. Havu, B. Lang, T. Auckenthaler, A. Heinecke, 
 H. Bungartz, H. Lederer.
 J. Phys. Condens. Matter 26, 213201 (2014).
 The ELPA library: scalable parallel eigenvalue solutions for electronic 
 structure theory and computational science.
 https://doi.org/10.1088/0953-8984/26/21/213201

 J. VandeVondele, U. Borstnik, J. Hutter.
 J. Chem. Theory Comput. 8, 3565-3573 (2012).
 Linear Scaling Self-Consistent Field Calculations with Millions of Atoms in the 
 Condensed Phase.
 https://doi.org/10.1021/ct200897x

 J. VandeVondele, J. Hutter.
 J. Chem. Phys. 127, 114105 (2007).
 Gaussian basis sets for accurate calculations on molecular systems in gas and 
 condensed phases.
 https://doi.org/10.1063/1.2770708

 J. VandeVondele, M. Krack, F. Mohamed, M. Parrinello, T. Chassaing, J. Hutter.
 Comput. Phys. Commun. 167, 103-128 (2005).
 QUICKSTEP: Fast and accurate density functional calculations using a mixed 
 Gaussian and plane waves approach.
 https://doi.org/10.1016/j.cpc.2004.12.014

 M. Krack.
 Theor. Chem. Acc. 114, 145-152 (2005).
 Pseudopotentials for H to Kr optimized for gradient-corrected 
 exchange-correlation functionals.
 https://doi.org/10.1007/s00214-005-0655-y

 M. Frigo, S. G. Johnson.
 Proc. IEEE 93, 216-231 (2005).
 The design and implementation of FFTW3.
 https://doi.org/10.1109/JPROC.2004.840301

 A. M. N. Niklasson, C. J. Tymczak, M. Challacombe.
 J. Chem. Phys. 118, 8611-8620 (2003).
 Trace resetting density matrix purification in O(N) self-consistent-field 
 theory.
 https://doi.org/10.1063/1.1559913

 C. Hartwigsen, S. Goedecker, J. Hutter.
 Phys. Rev. B 58, 3641-3662 (1998).
 Relativistic separable dual-space Gaussian pseudopotentials from H to Rn.
 https://doi.org/10.1103/PhysRevB.58.3641

 G. Lippert, J. Hutter, M. Parrinello.
 Mol. Phys. 92, 477-487 (1997).
 A hybrid Gaussian and plane wave density functional scheme.
 https://doi.org/10.1080/002689797170220

 S. Goedecker, M. Teter, J. Hutter.
 Phys. Rev. B 54, 1703-1710 (1996).
 Separable dual-space Gaussian pseudopotentials.
 https://doi.org/10.1103/PhysRevB.54.1703

 J. P. Perdew, K. Burke, M. Ernzerhof.
 Phys. Rev. Lett. 77, 3865-3868 (1996).
 Generalized gradient approximation made simple.
 https://doi.org/10.1103/PhysRevLett.77.3865


 -------------------------------------------------------------------------------
 -                                                                             -
 -                                T I M I N G                                  -
 -                                                                             -
 -------------------------------------------------------------------------------
 SUBROUTINE                       CALLS  ASD         SELF TIME        TOTAL TIME
                                MAXIMUM       AVERAGE  MAXIMUM  AVERAGE  MAXIMUM
 CP2K                                 1  1.0    0.012    0.015  438.320  438.321
 qs_energies                          1  2.0    0.000    0.000  438.167  438.168
 ls_scf                               1  3.0    0.000    0.000  437.065  437.066
 pao_update                           7  4.0    0.006    0.027  406.151  406.154
 pao_calc_energy                    798  5.0    0.003    0.019  363.517  363.519
 dbcsr_multiply_generic           47824  8.4    1.325    1.449  334.243  334.627
 multiply_cannon                  47824  9.4    2.484    2.825  269.000  273.053
 multiply_cannon_loop             47824 10.4    1.790    2.085  258.862  263.760
 ls_scf_init_matrix_S               805  7.0    0.008    0.009  201.408  201.498
 pao_rebuild_S                      798  6.0    0.002    0.003  199.611  199.689
 matrix_sqrt_Newton_Schulz          805  8.0    0.161    0.288  186.262  186.302
 multiply_cannon_multrec         382592 11.4  168.295  170.198  169.087  170.974
 pao_dm_trs4                        798  6.0    0.006    0.006  163.504  163.531
 density_matrix_trs4                813  7.0    0.194    0.352  157.620  157.697
 mp_waitall_1                   3062484 12.6   86.909   93.735   86.909   93.735
 multiply_cannon_metrocomm3      382592 11.4    0.666    0.728   69.602   74.465
 arnoldi_extremal                  1618  8.5    0.013    0.015   65.014   65.058
 arnoldi_normal_ev                 1618  9.5    0.037    0.064   64.999   65.041
 build_subspace                    6322 10.5    0.384    0.412   57.087   57.130
 dbcsr_matrix_vector_mult        192896 11.5    0.822    1.244   53.485   54.219
 make_m2s                         95648  9.4    0.525    0.729   49.087   49.876
 make_images                      95648 10.4    6.967    7.231   47.782   48.613
 dbcsr_matrix_vector_mult_local  192896 12.5   45.420   46.034   45.635   46.253
 pao_calc_AB                       1058  5.8    0.002    0.002   42.182   42.185
 pao_calc_AB_equi                  1058  6.8    0.039    0.097   42.180   42.183
 pao_calc_grad_lnv_wrt_AB           259  7.0    0.019    0.025   41.758   41.810
 ls_scf_main                          7  4.0    0.000    0.001   27.415   27.416
 ls_scf_dm_to_ks                     15  5.0    0.000    0.000   24.528   24.532
 make_images_data                 95648 11.4    0.826    0.997   21.046   23.006
 hybrid_alltoall_any              97253 12.4    0.868    1.743   16.515   19.425
 matrix_qs_to_ls                   1618  7.5    0.016    0.024   17.138   17.236
 mp_sum_l                        194924  9.5    8.968   14.917    8.968   14.917
 qs_ks_update_qs_env                 16  6.0    0.000    0.000   14.466   14.470
 rebuild_ks_matrix                   16  7.0    0.000    0.000   14.455   14.458
 qs_ks_build_kohn_sham_matrix        16  8.0    0.003    0.003   14.455   14.458
 calculate_norms                 712896 11.4   10.988   11.820   10.988   11.820
 qs_rho_update_rho_low               16  6.0    0.000    0.000   11.521   11.524
 calculate_rho_elec                  16  7.0    0.005    0.006   11.521   11.524
 sum_up_and_integrate                16  9.0    0.000    0.000   11.081   11.085
 integrate_v_rspace                  16 10.0    0.000    0.001   11.065   11.070
 make_images_pack                 95648 11.4   10.462   10.857   10.592   10.989
 dbcsr_multiply_generic_mpsum_f   34773  9.5    0.025    0.034    5.572   10.585
 grid_collocate_task_list            16  8.0    9.751   10.375    9.751   10.375
 grid_integrate_task_list            16 11.0    9.309    9.874    9.309    9.874
 -------------------------------------------------------------------------------

 The number of warnings for this run is : 1
 
 -------------------------------------------------------------------------------
  **** **** ******  **  PROGRAM ENDED AT                 2024-09-24 00:22:57.826
 ***** ** ***  *** **   PROGRAM RAN ON                                    moritz
 **    ****   ******    PROGRAM RAN BY                                       ole
 ***** **    ** ** **   PROGRAM PROCESS ID                                165085
  **** **  *******  **  PROGRAM STOPPED IN /home/ole/git/pao_ml_equivar/64H2O_MD
                                           /Frame1600
