 DBCSR| CPU Multiplication driver                                           XSMM (U)
 DBCSR| Multrec recursion limit                                              512 (U)
 DBCSR| Multiplication stack size                                           1000 (D)
 DBCSR| Maximum elements for images                                    UNLIMITED (U)
 DBCSR| Multiplicative factor virtual images                                   1 (U)
 DBCSR| Use multiplication densification                                       T (D)
 DBCSR| Multiplication size stacks                                             3 (U)
 DBCSR| Use memory pool for CPU allocation                                     F (U)
 DBCSR| Number of 3D layers                                               SINGLE (U)
 DBCSR| Use MPI memory allocation                                              F (U)
 DBCSR| Use RMA algorithm                                                      F (U)
 DBCSR| Use Communication thread                                               T (U)
 DBCSR| Communication thread load                                             87 (D)
 DBCSR| MPI: My process id                                                     0
 DBCSR| MPI: Number of processes                                              32
 DBCSR| OMP: Current number of threads                                         1
 DBCSR| OMP: Max number of threads                                             1
 DBCSR| Split modifier for TAS multiplication algorithm                  1.0E+00 (U)


  **** **** ******  **  PROGRAM STARTED AT               2024-09-23 17:42:12.262
 ***** ** ***  *** **   PROGRAM STARTED ON                                moritz
 **    ****   ******    PROGRAM STARTED BY                                   ole
 ***** **    ** ** **   PROGRAM PROCESS ID                                158221
  **** **  *******  **  PROGRAM STARTED IN /home/ole/git/pao_ml_equivar/64H2O_MD
                                           /Frame3600

 CP2K| version string:                 CP2K version 2024.3 (Development Version)
 CP2K| source code revision number:                                  git:3f890bb
 CP2K| cp2kflags: omp libint fftw3 libxc libgrpp pexsi elpa parallel scalapack c
 CP2K|            osma quip deepmd xsmm plumed2 spglib libdftd4 sirius libvori l
 CP2K|            libbqb libvdwxc hdf5
 CP2K| is freely available from                            https://www.cp2k.org/
 CP2K| Program compiled at                          Mo 23 Sep 2024 17:17:04 CEST
 CP2K| Program compiled on                                                moritz
 CP2K| Program compiled for                                                local
 CP2K| Data directory path                               /home/ole/git/cp2k/data
 CP2K| Input file name                                             64H2O_ref.inp

 GLOBAL| Force Environment number                                              1
 GLOBAL| Basis set file name                                        BASIS_MOLOPT
 GLOBAL| Potential file name                                      GTH_POTENTIALS
 GLOBAL| MM Potential file name                                     MM_POTENTIAL
 GLOBAL| Coordinate file name                                         coords.xyz
 GLOBAL| Method name                                                        CP2K
 GLOBAL| Project name                                                  64H2O_ref
 GLOBAL| Run type                                                         ENERGY
 GLOBAL| FFT library                                                       FFTW3
 GLOBAL| Diagonalization library                                            ELPA
 GLOBAL| DGEMM library                                                      BLAS
 GLOBAL| Minimum number of eigenvectors for ELPA usage                        16
 GLOBAL| Orthonormality check for eigenvectors                          DISABLED
 GLOBAL| Matrix multiplication library                                     COSMA
 GLOBAL| All-to-all communication in single precision                          F
 GLOBAL| FFTs using library dependent lengths                                  F
 GLOBAL| Grid backend                                                       AUTO
 GLOBAL| Global print level                                                  LOW
 GLOBAL| MPI I/O enabled                                                       T
 GLOBAL| Total number of message passing processes                            32
 GLOBAL| Number of threads for this process                                    1
 GLOBAL| This output is from process                                           0
 GLOBAL| Stack size for threads created by OpenMP (OMP_STACKSIZE)        default
 GLOBAL| CPU model name           AMD Ryzen Threadripper 3970X 32-Core Processor
 GLOBAL| CPUID                                                              1002

 MEMORY| system memory details [Kb]
 MEMORY|                        rank 0           min           max       average
 MEMORY| MemTotal            131752136     131752136     131752136     131752136
 MEMORY| MemFree             118218196     118218196     118218196     118218196
 MEMORY| Buffers                260188        260188        260188        260188
 MEMORY| Cached                7321700       7321700       7321700       7321700
 MEMORY| Slab                   714612        714612        714612        714612
 MEMORY| SReclaimable           277204        277204        277204        277204
 MEMORY| MemLikelyFree       126077288     126077288     126077288     126077288


 GENERATE|  Preliminary Number of Bonds generated:                             0
 GENERATE|  Achieved consistency in connectivity generation.

 *******************************************************************************
 *******************************************************************************
 **                                                                           **
 **     #####                         ##              ##                      **
 **    ##   ##            ##          ##              ##                      **
 **   ##     ##                       ##            ######                    **
 **   ##     ##  ##   ##  ##   #####  ##  ##   ####   ##    #####    #####    **
 **   ##     ##  ##   ##  ##  ##      ## ##   ##      ##   ##   ##  ##   ##   **
 **   ##  ## ##  ##   ##  ##  ##      ####     ###    ##   ######   ######    **
 **    ##  ###   ##   ##  ##  ##      ## ##      ##   ##   ##       ##        **
 **     #######   #####   ##   #####  ##  ##  ####    ##    #####   ##        **
 **           ##                                                    ##        **
 **                                                                           **
 **                                                ... make the atoms dance   **
 **                                                                           **
 **            Copyright (C) by CP2K developers group (2000-2024)             **
 **                      J. Chem. Phys. 152, 194103 (2020)                    **
 **                                                                           **
 *******************************************************************************


 TOTAL NUMBERS AND MAXIMUM NUMBERS

  Total number of            - Atomic kinds:                                   2
                             - Atoms:                                        192
                             - Shell sets:                                   192
                             - Shells:                                       704
                             - Primitive Cartesian functions:               1344
                             - Cartesian basis functions:                   1536
                             - Spherical basis functions:                   1472

  Maximum angular momentum of- Orbital basis functions:                        2
                             - Local part of the GTH pseudopotential:          2
                             - Non-local part of the GTH pseudopotential:      0

 ------------------------------ Linear scaling SCF -----------------------------
 eps_scf:                                                              0.100E-07
 eps_filter:                                                           0.100E-11
 mixing_fraction:                                                      0.450E+00
 max_scf:                                                                     25
 fixed chemical potential (mu)                                                 F
 has unit metric:                                                              F
 Computing inv(S):                                                             T
 Computing sqrt(S):                                                            T
 Computing S preconditioner                                                    F
 S sqrt method:                                                     NEWTONSCHULZ
 S sqrt order:                                                                 3
 Extrapolation order:                                                          1
 S preconditioner type                                                      NONE
 Polarized Atomic Orbitals (PAO)                                               F
 Purification method                                   Trace resetting 4th order
 Cluster type                                                             ATOMIC
 Computing Chebyshev                                                       FALSE
 Using PAO                                                                     F
 -------------------------------------------------------------------------------


     Lanczos converged:  F threshold:   0.100E-02
     Est. extremal eigenvalues:    0.882E+01   0.573E-02
     Est. condition number :    0.154E+04

 Order=           3
     NS sqrt iter    1 1.00000000   0.227E+01       0.064     6242.620
     NS sqrt iter    2 1.00000000   0.119E+01       0.099     8038.414
     NS sqrt iter    3 1.00000000   0.588E+00       0.099     8047.685
     NS sqrt iter    4 1.00000000   0.338E+00       0.100     7987.192
     NS sqrt iter    5 1.00000000   0.228E+00       0.099     8019.342
     NS sqrt iter    6 1.00000000   0.108E+00       0.098     8101.346
     NS sqrt iter    7 1.00000000   0.140E-01       0.099     8047.152
     NS sqrt iter    8 1.00000000   0.713E-04       0.099     8035.550
     NS sqrt iter    9 1.00000000   0.405E-10       0.067     5857.794
     Symmetrizing Results
     Final NS sqrt iter    9 1.00000000   0.732E-11



 Guess for atomic kind: O

 Electronic structure
    Total number of core electrons                                          2.00
    Total number of valence electrons                                       6.00
    Total number of electrons                                               8.00
    Multiplicity                                                   not specified
    S   [  2.00] 2.00
    P      4.00


 *******************************************************************************
                  Iteration          Convergence                     Energy [au]
 *******************************************************************************
                          1        0.708315                     -15.576645311500
                          2        0.608879                     -15.587933561584
                          3        0.102828E-01                 -15.656849565404
                          4        0.113889E-02                 -15.656866888140
                          5        0.434197E-03                 -15.656867072159
                          6        0.263771E-03                 -15.656867091904
                          7        0.478536E-06                 -15.656867103452

 Energy components [Hartree]           Total Energy ::          -15.656867103452
                                        Band Energy ::           -3.000198112285
                                     Kinetic Energy ::           11.759971203220
                                   Potential Energy ::          -27.416838306672
                                      Virial (-V/T) ::            2.331369510426
                                        Core Energy ::          -26.140716385623
                                          XC Energy ::           -3.154051012914
                                     Coulomb Energy ::           13.637900295084
                       Total Pseudopotential Energy ::          -37.935781716540
                       Local Pseudopotential Energy ::          -39.218907440693
                    Nonlocal Pseudopotential Energy ::            1.283125724153
                                        Confinement ::            0.350941276976

 Orbital energies  State     L     Occupation   Energy[a.u.]          Energy[eV]

                       1     0          2.000      -0.864471          -23.523463

                       1     1          4.000      -0.317814           -8.648154


 Total Electron Density at R=0:                                         0.000068

 Guess for atomic kind: H

 Electronic structure
    Total number of core electrons                                          0.00
    Total number of valence electrons                                       1.00
    Total number of electrons                                               1.00
    Multiplicity                                                   not specified
    S      1.00


 *******************************************************************************
                  Iteration          Convergence                     Energy [au]
 *******************************************************************************
                          1        0.437545E-02                  -0.424159432110
                          2        0.531356E-03                  -0.424178438213
                          3        0.259176E-06                  -0.424178722480

 Energy components [Hartree]           Total Energy ::           -0.424178722480
                                        Band Energy ::           -0.199015229016
                                     Kinetic Energy ::            0.464007633961
                                   Potential Energy ::           -0.888186356441
                                      Virial (-V/T) ::            1.914163240935
                                        Core Energy ::           -0.479160803564
                                          XC Energy ::           -0.244352904054
                                     Coulomb Energy ::            0.299334985138
                       Total Pseudopotential Energy ::           -0.962295316385
                       Local Pseudopotential Energy ::           -0.962295316385
                    Nonlocal Pseudopotential Energy ::            0.000000000000
                                        Confinement ::            0.191268788606

 Orbital energies  State     L     Occupation   Energy[a.u.]          Energy[eV]

                       1     0          1.000      -0.199015           -5.415480


 Total Electron Density at R=0:                                         0.242907
 Re-scaling the density matrix to get the right number of electrons
                  # Electrons              Trace(P)               Scaling factor
                          512               512.001                        1.000
 Energy with the initial guess:     -1095.960440077

     Est. extremal eigenvalues     -0.94190     5.23749  converged:  F
     TRS4 it   1 1.00000000   0.565E+02       0.018     5425.700   0.100E-11
     TRS4 it   2 1.00000000   0.538E+02       0.019     5319.021   0.100E-11
     TRS4 it   3 1.00000000   0.337E+02       0.036     5503.322   0.100E-11
     TRS4 it   4 1.00000000   0.176E+02       0.036     5546.699   0.100E-11
     TRS4 it   5 1.00000000   0.106E+02       0.036     5625.308   0.100E-11
     TRS4 it   6 1.00000000   0.479E+01       0.037     5449.516   0.100E-11
     TRS4 it   7 1.00000000   0.141E+01       0.036     5614.513   0.100E-11
     TRS4 it   8 1.00000000   0.210E+00       0.036     5548.892   0.100E-11
     TRS4 it   9 1.00000000   0.870E-02       0.036     5556.472   0.100E-11
     TRS4 it  10 1.00000000   0.220E-04       0.036     5510.990   0.100E-11
     TRS4 it  11 1.00000000   0.474E-10       0.036     5608.912   0.100E-11
     Final TRS4 iteration   11 1.00000000   0.474E-10
     Chemical potential (mu):      -0.10626

 SCF     1     -1097.964119685     -1097.964119685    2.058736

*********************************************************
 Using MIXING_FRACTION=0.450 to mix KS matrix:  iscf=  2
 KS_nw=0.450*KS + 0.550*KS_old
*********************************************************
     Est. extremal eigenvalues     -0.83591     5.32081  converged:  T
     TRS4 it   1 1.00000000   0.558E+02       0.019     5350.936   0.100E-11
     TRS4 it   2 1.00000000   0.541E+02       0.019     5391.186   0.100E-11
     TRS4 it   3 1.00000000   0.349E+02       0.037     5484.591   0.100E-11
     TRS4 it   4 1.00000000   0.184E+02       0.036     5579.500   0.100E-11
     TRS4 it   5 1.00000000   0.119E+02       0.036     5524.094   0.100E-11
     TRS4 it   6 1.00000000   0.619E+01       0.035     5662.837   0.100E-11
     TRS4 it   7 1.00000000   0.247E+01       0.036     5531.305   0.100E-11
     TRS4 it   8 1.00000000   0.677E+00       0.036     5573.938   0.100E-11
     TRS4 it   9 1.00000000   0.101E+00       0.036     5559.993   0.100E-11
     TRS4 it  10 1.00000000   0.533E-02       0.036     5499.894   0.100E-11
     TRS4 it  11 1.00000000   0.846E-05       0.036     5538.469   0.100E-11
     TRS4 it  12 1.00000000   0.139E-10       0.036     5615.139   0.100E-11
     Final TRS4 iteration   12 1.00000000   0.139E-10
     Chemical potential (mu):      -0.01710

 SCF     2     -1102.963449555        -4.999329871    2.080121

*********************************************************
 Using MIXING_FRACTION=0.450 to mix KS matrix:  iscf=  3
 KS_nw=0.450*KS + 0.550*KS_old
*********************************************************
     Est. extremal eigenvalues     -0.84161     5.31243  converged:  T
     TRS4 it   1 1.00000000   0.559E+02       0.019     5354.449   0.100E-11
     TRS4 it   2 1.00000000   0.540E+02       0.019     5345.211   0.100E-11
     TRS4 it   3 1.00000000   0.348E+02       0.037     5428.320   0.100E-11
     TRS4 it   4 1.00000000   0.183E+02       0.036     5601.729   0.100E-11
     TRS4 it   5 1.00000000   0.116E+02       0.036     5614.469   0.100E-11
     TRS4 it   6 1.00000000   0.595E+01       0.036     5621.217   0.100E-11
     TRS4 it   7 1.00000000   0.228E+01       0.036     5609.999   0.100E-11
     TRS4 it   8 1.00000000   0.585E+00       0.036     5541.274   0.100E-11
     TRS4 it   9 1.00000000   0.768E-01       0.036     5542.107   0.100E-11
     TRS4 it  10 1.00000000   0.300E-02       0.036     5524.041   0.100E-11
     TRS4 it  11 1.00000000   0.287E-05       0.036     5632.882   0.100E-11
     TRS4 it  12 1.00000000   0.339E-11       0.036     5579.709   0.100E-11
     Final TRS4 iteration   12 1.00000000   0.339E-11
     Chemical potential (mu):      -0.02527

 SCF     3     -1103.117264168        -0.153814613    2.081143

*********************************************************
 Using MIXING_FRACTION=0.450 to mix KS matrix:  iscf=  4
 KS_nw=0.450*KS + 0.550*KS_old
*********************************************************
     Est. extremal eigenvalues     -0.83771     5.31731  converged:  T
     TRS4 it   1 1.00000000   0.559E+02       0.019     5394.891   0.100E-11
     TRS4 it   2 1.00000000   0.540E+02       0.019     5214.075   0.100E-11
     TRS4 it   3 1.00000000   0.348E+02       0.036     5544.662   0.100E-11
     TRS4 it   4 1.00000000   0.183E+02       0.036     5563.484   0.100E-11
     TRS4 it   5 1.00000000   0.117E+02       0.036     5534.265   0.100E-11
     TRS4 it   6 1.00000000   0.603E+01       0.036     5497.262   0.100E-11
     TRS4 it   7 1.00000000   0.235E+01       0.036     5535.001   0.100E-11
     TRS4 it   8 1.00000000   0.621E+00       0.036     5518.841   0.100E-11
     TRS4 it   9 1.00000000   0.872E-01       0.036     5600.986   0.100E-11
     TRS4 it  10 1.00000000   0.405E-02       0.036     5584.673   0.100E-11
     TRS4 it  11 1.00000000   0.604E-05       0.037     5452.569   0.100E-11
     TRS4 it  12 1.00000000   0.145E-10       0.036     5635.260   0.100E-11
     Final TRS4 iteration   12 1.00000000   0.145E-10
     Chemical potential (mu):      -0.01912

 SCF     4     -1103.124873983        -0.007609815    2.088340

*********************************************************
 Using MIXING_FRACTION=0.450 to mix KS matrix:  iscf=  5
 KS_nw=0.450*KS + 0.550*KS_old
*********************************************************
     Est. extremal eigenvalues     -0.83610     5.31802  converged:  T
     TRS4 it   1 1.00000000   0.559E+02       0.019     5399.656   0.100E-11
     TRS4 it   2 1.00000000   0.540E+02       0.019     5390.473   0.100E-11
     TRS4 it   3 1.00000000   0.348E+02       0.036     5614.382   0.100E-11
     TRS4 it   4 1.00000000   0.183E+02       0.036     5585.962   0.100E-11
     TRS4 it   5 1.00000000   0.117E+02       0.036     5605.383   0.100E-11
     TRS4 it   6 1.00000000   0.602E+01       0.035     5670.743   0.100E-11
     TRS4 it   7 1.00000000   0.234E+01       0.036     5500.867   0.100E-11
     TRS4 it   8 1.00000000   0.620E+00       0.036     5618.901   0.100E-11
     TRS4 it   9 1.00000000   0.871E-01       0.036     5611.722   0.100E-11
     TRS4 it  10 1.00000000   0.408E-02       0.035     5652.417   0.100E-11
     TRS4 it  11 1.00000000   0.645E-05       0.036     5538.351   0.100E-11
     TRS4 it  12 1.00000000   0.193E-10       0.036     5587.713   0.100E-11
     Final TRS4 iteration   12 1.00000000   0.193E-10
     Chemical potential (mu):      -0.01808

 SCF     5     -1103.125488036        -0.000614052    2.077910

*********************************************************
 Using MIXING_FRACTION=0.450 to mix KS matrix:  iscf=  6
 KS_nw=0.450*KS + 0.550*KS_old
*********************************************************
     Est. extremal eigenvalues     -0.83546     5.31872  converged:  T
     TRS4 it   1 1.00000000   0.559E+02       0.019     5190.757   0.100E-11
     TRS4 it   2 1.00000000   0.540E+02       0.019     5402.811   0.100E-11
     TRS4 it   3 1.00000000   0.348E+02       0.036     5537.295   0.100E-11
     TRS4 it   4 1.00000000   0.183E+02       0.036     5543.762   0.100E-11
     TRS4 it   5 1.00000000   0.117E+02       0.036     5599.067   0.100E-11
     TRS4 it   6 1.00000000   0.603E+01       0.036     5578.158   0.100E-11
     TRS4 it   7 1.00000000   0.235E+01       0.036     5554.309   0.100E-11
     TRS4 it   8 1.00000000   0.624E+00       0.036     5537.527   0.100E-11
     TRS4 it   9 1.00000000   0.885E-01       0.036     5575.018   0.100E-11
     TRS4 it  10 1.00000000   0.424E-02       0.037     5487.805   0.100E-11
     TRS4 it  11 1.00000000   0.716E-05       0.036     5567.859   0.100E-11
     TRS4 it  12 1.00000000   0.238E-10       0.036     5589.008   0.100E-11
     Final TRS4 iteration   12 1.00000000   0.238E-10
     Chemical potential (mu):      -0.01709

 SCF     6     -1103.125581966        -0.000093930    2.080860

*********************************************************
 Using MIXING_FRACTION=0.450 to mix KS matrix:  iscf=  7
 KS_nw=0.450*KS + 0.550*KS_old
*********************************************************
     Est. extremal eigenvalues     -0.83498     5.31901  converged:  T
     TRS4 it   1 1.00000000   0.559E+02       0.019     5362.445   0.100E-11
     TRS4 it   2 1.00000000   0.540E+02       0.019     5395.695   0.100E-11
     TRS4 it   3 1.00000000   0.348E+02       0.036     5562.905   0.100E-11
     TRS4 it   4 1.00000000   0.183E+02       0.036     5557.591   0.100E-11
     TRS4 it   5 1.00000000   0.117E+02       0.036     5515.758   0.100E-11
     TRS4 it   6 1.00000000   0.603E+01       0.036     5549.029   0.100E-11
     TRS4 it   7 1.00000000   0.235E+01       0.036     5613.339   0.100E-11
     TRS4 it   8 1.00000000   0.625E+00       0.036     5618.431   0.100E-11
     TRS4 it   9 1.00000000   0.888E-01       0.036     5555.505   0.100E-11
     TRS4 it  10 1.00000000   0.427E-02       0.036     5543.427   0.100E-11
     TRS4 it  11 1.00000000   0.738E-05       0.036     5623.604   0.100E-11
     TRS4 it  12 1.00000000   0.260E-10       0.035     5662.642   0.100E-11
     Final TRS4 iteration   12 1.00000000   0.260E-10
     Chemical potential (mu):      -0.01670

 SCF     7     -1103.125602093        -0.000020126    2.078923

*********************************************************
 Using MIXING_FRACTION=0.450 to mix KS matrix:  iscf=  8
 KS_nw=0.450*KS + 0.550*KS_old
*********************************************************
     Est. extremal eigenvalues     -0.83478     5.31917  converged:  T
     TRS4 it   1 1.00000000   0.559E+02       0.019     5311.451   0.100E-11
     TRS4 it   2 1.00000000   0.540E+02       0.019     5310.410   0.100E-11
     TRS4 it   3 1.00000000   0.348E+02       0.037     5462.843   0.100E-11
     TRS4 it   4 1.00000000   0.183E+02       0.036     5619.298   0.100E-11
     TRS4 it   5 1.00000000   0.117E+02       0.036     5549.990   0.100E-11
     TRS4 it   6 1.00000000   0.603E+01       0.036     5607.893   0.100E-11
     TRS4 it   7 1.00000000   0.235E+01       0.036     5562.537   0.100E-11
     TRS4 it   8 1.00000000   0.626E+00       0.036     5592.347   0.100E-11
     TRS4 it   9 1.00000000   0.890E-01       0.037     5479.694   0.100E-11
     TRS4 it  10 1.00000000   0.430E-02       0.036     5619.017   0.100E-11
     TRS4 it  11 1.00000000   0.754E-05       0.036     5560.582   0.100E-11
     TRS4 it  12 1.00000000   0.272E-10       0.036     5511.588   0.100E-11
     Final TRS4 iteration   12 1.00000000   0.272E-10
     Chemical potential (mu):      -0.01645

 SCF     8     -1103.125606964        -0.000004872    2.081812


 SCF run converged in     8 steps.

 Writing restart DM 64H2O_ref_LS_DM_SPIN_1_RESTART.dm with checksum:       0.62587781E+04

 ENERGY| Total FORCE_EVAL ( QS ) energy [a.u.]:            -1103.125606964486678

 -------------------------------------------------------------------------------
 -                                                                             -
 -                                DBCSR STATISTICS                             -
 -                                                                             -
 -------------------------------------------------------------------------------
 COUNTER                                    TOTAL       BLAS       SMM       ACC
 flops     5 x     5 x     5          79402302000       0.0%    100.0%      0.0%     
 flops    13 x     5 x     5         102824216950       0.0%    100.0%      0.0%     
 flops     5 x    13 x     5         102834418700       0.0%    100.0%      0.0%     
 flops     5 x     5 x    13         103350105300       0.0%    100.0%      0.0%     
 flops    13 x     5 x    13         133825519620       0.0%    100.0%      0.0%     
 flops     5 x    13 x    13         133878078620       0.0%    100.0%      0.0%     
 flops    13 x    13 x     5         135012467460       0.0%    100.0%      0.0%     
 flops    13 x    13 x    13         175752846568       0.0%    100.0%      0.0%     
 flops inhomo. stacks                           0       0.0%      0.0%      0.0%
 flops total                       966.879955E+09       0.0%    100.0%      0.0%
 flops max/rank                     31.038422E+09       0.0%    100.0%      0.0%
 matmuls inhomo. stacks                         0       0.0%      0.0%      0.0%
 matmuls total                         1071299173       0.0%    100.0%      0.0%
 number of processed stacks               1516164       0.0%    100.0%      0.0%
 average stack size                                     0.0     706.6       0.0
 marketing flops                     1.569237E+12
 -------------------------------------------------------------------------------
 # multiplications                            246
 max memory usage/rank             618.749952E+06
 # max total images/rank                        2
 # max 3D layers                                1
 # MPI messages exchanged                  102336
 MPI messages size (bytes):
  total size                        42.371809E+09
  min size                           0.000000E+00
  max size                         541.696000E+03
  average size                     414.045969E+03
 MPI breakdown and total messages size (bytes):
             size <=      128                 312                        0
       128 < size <=     8192                  42                   279312
      8192 < size <=    32768                  62                   841968
     32768 < size <=   131072                   0                        0
    131072 < size <=  4194304              101920              42370690400
   4194304 < size <= 16777216                   0                        0
  16777216 < size                               0                        0
 -------------------------------------------------------------------------------

 *** WARNING in dbcsr_mm.F:301 :: Using a non-square number of MPI ranks ***
 *** might lead to poor performance. Used ranks: 32 Suggested: 36 64     ***

 -------------------------------------------------------------------------------
 -                                                                             -
 -                      DBCSR MESSAGE PASSING PERFORMANCE                      -
 -                                                                             -
 -------------------------------------------------------------------------------
 ROUTINE             CALLS      AVE VOLUME [Bytes]
 MP_Bcast                9                     12.
 MP_Allreduce         1762                     34.
 MP_Alltoall           546                  34827.
 MP_ISend             8604                 170832.
 MP_IRecv             8238                 179035.
 -------------------------------------------------------------------------------

 -------------------------------------------------------------------------------
 -                                                                             -
 -                                DBM STATISTICS                               -
 -                                                                             -
 -------------------------------------------------------------------------------
    M  x    N  x    K                                          COUNT     PERCENT
 -------------------------------------------------------------------------------

 -------------------------------------------------------------------------------
 -                                                                             -
 -                                GRID STATISTICS                              -
 -                                                                             -
 -------------------------------------------------------------------------------
 LP    KERNEL             BACKEND                              COUNT     PERCENT
 2     collocate ortho    CPU                                7377165      28.83%
 2     integrate ortho    CPU                                7377165      28.83%
 3     collocate ortho    CPU                                4739481      18.52%
 3     integrate ortho    CPU                                4739481      18.52%
 4     collocate ortho    CPU                                 672885       2.63%
 4     integrate ortho    CPU                                 672885       2.63%
 0     collocate general  CPU                                   6144       0.02%
 -------------------------------------------------------------------------------

 MEMORY| Estimated peak process memory [MiB]                                 591

 -------------------------------------------------------------------------------
 -                                                                             -
 -                         MESSAGE PASSING PERFORMANCE                         -
 -                                                                             -
 -------------------------------------------------------------------------------

 ROUTINE             CALLS      AVE VOLUME [Bytes]
 MP_Group                5
 MP_Bcast             2418                 161261.
 MP_Allreduce         6482                    940.
 MP_Sync                 5
 MP_Alltoall           244                5162976.
 MP_SendRecv           837                  18832.
 MP_ISendRecv          837                  18832.
 MP_Wait              2391
 MP_ISend             1406                 108579.
 MP_IRecv             1406                 108603.
 -------------------------------------------------------------------------------


 -------------------------------------------------------------------------------
 -                                                                             -
 -                           R E F E R E N C E S                               -
 -                                                                             -
 -------------------------------------------------------------------------------
 
 CP2K version 2024.3 (Development Version), the CP2K developers group (2024).
 CP2K is freely available from https://www.cp2k.org/ .
 
 T. D. Kuehne, M. Iannuzzi, M. Del Ben, V. V. Rybkin, P. Seewald, F. Stein, T. 
 Laino, R. Z. Khaliullin, O. Schuett, F. Schiffmann, D. Golze, J. Wilhelm, S. 
 Chulkov, M. H. Bani-Hashemian, V. Weber, U. Borstnik, M. Taillefumier, A. S. 
 Jakobovits, A. Lazzaro, H. Pabst, T. Mueller, R. Schade, M. Guidon, S. 
 Andermatt, N. Holmberg, G. K. Schenter, A. Hehn, A. Bussy, F. Belleflamme, G. 
 Tabacchi, A. Gloess, M. Lass, I. Bethune, C. J. Mundy, C. Plessl, M. Watkins, 
 J. VandeVondele, M. Krack, J. Hutter.
 J. Chem. Phys. 152, 194103 (2020).
 CP2K: An electronic structure and molecular dynamics software package - 
 Quickstep: Efficient and accurate electronic structure calculations.
 https://doi.org/10.1063/5.0007045

 O. Schuett, P. Messmer, J. Hutter, J. VandeVondele.
 Electronic Structure Calculations on Graphics Processing Units, 173-190 (2016).
 GPU-Accelerated Sparse Matrix-Matrix Multiplication for Linear Scaling Density 
 Functional Theory.
 https://doi.org/10.1002/9781118670712.ch8

 A. Heinecke, G. Henry, M. Hutchinson, H. Pabst.
 Proceedings of Intl. Supercomputing Conference, 981-991 (2016).
 LIBXSMM: Accelerating Small Matrix Multiplications by Runtime Code Generation.
 https://doi.org/10.1109/SC.2016.83

 J. Hutter, M. Iannuzzi, F. Schiffmann, J. VandeVondele.
 WIREs Comput Mol Sci. 4, 15-25 (2014).
 CP2K: atomistic simulations of condensed matter systems.
 https://doi.org/10.1002/wcms.1159

 U. Borstnik, J. VandeVondele, V. Weber, J. Hutter.
 Parallel Comput. 40, 47-58 (2014).
 Sparse matrix multiplication: The distributed block-compressed sparse row 
 library.
 https://doi.org/10.1016/j.parco.2014.03.012

 A. Marek, V. Blum, R. Johanni, V. Havu, B. Lang, T. Auckenthaler, A. Heinecke, 
 H. Bungartz, H. Lederer.
 J. Phys. Condens. Matter 26, 213201 (2014).
 The ELPA library: scalable parallel eigenvalue solutions for electronic 
 structure theory and computational science.
 https://doi.org/10.1088/0953-8984/26/21/213201

 J. VandeVondele, U. Borstnik, J. Hutter.
 J. Chem. Theory Comput. 8, 3565-3573 (2012).
 Linear Scaling Self-Consistent Field Calculations with Millions of Atoms in the 
 Condensed Phase.
 https://doi.org/10.1021/ct200897x

 J. VandeVondele, J. Hutter.
 J. Chem. Phys. 127, 114105 (2007).
 Gaussian basis sets for accurate calculations on molecular systems in gas and 
 condensed phases.
 https://doi.org/10.1063/1.2770708

 J. VandeVondele, M. Krack, F. Mohamed, M. Parrinello, T. Chassaing, J. Hutter.
 Comput. Phys. Commun. 167, 103-128 (2005).
 QUICKSTEP: Fast and accurate density functional calculations using a mixed 
 Gaussian and plane waves approach.
 https://doi.org/10.1016/j.cpc.2004.12.014

 M. Krack.
 Theor. Chem. Acc. 114, 145-152 (2005).
 Pseudopotentials for H to Kr optimized for gradient-corrected 
 exchange-correlation functionals.
 https://doi.org/10.1007/s00214-005-0655-y

 M. Frigo, S. G. Johnson.
 Proc. IEEE 93, 216-231 (2005).
 The design and implementation of FFTW3.
 https://doi.org/10.1109/JPROC.2004.840301

 A. M. N. Niklasson, C. J. Tymczak, M. Challacombe.
 J. Chem. Phys. 118, 8611-8620 (2003).
 Trace resetting density matrix purification in O(N) self-consistent-field 
 theory.
 https://doi.org/10.1063/1.1559913

 C. Hartwigsen, S. Goedecker, J. Hutter.
 Phys. Rev. B 58, 3641-3662 (1998).
 Relativistic separable dual-space Gaussian pseudopotentials from H to Rn.
 https://doi.org/10.1103/PhysRevB.58.3641

 G. Lippert, J. Hutter, M. Parrinello.
 Mol. Phys. 92, 477-487 (1997).
 A hybrid Gaussian and plane wave density functional scheme.
 https://doi.org/10.1080/002689797170220

 S. Goedecker, M. Teter, J. Hutter.
 Phys. Rev. B 54, 1703-1710 (1996).
 Separable dual-space Gaussian pseudopotentials.
 https://doi.org/10.1103/PhysRevB.54.1703

 J. P. Perdew, K. Burke, M. Ernzerhof.
 Phys. Rev. Lett. 77, 3865-3868 (1996).
 Generalized gradient approximation made simple.
 https://doi.org/10.1103/PhysRevLett.77.3865


 -------------------------------------------------------------------------------
 -                                                                             -
 -                                T I M I N G                                  -
 -                                                                             -
 -------------------------------------------------------------------------------
 SUBROUTINE                       CALLS  ASD         SELF TIME        TOTAL TIME
                                MAXIMUM       AVERAGE  MAXIMUM  AVERAGE  MAXIMUM
 CP2K                                 1  1.0    0.013    0.017   20.426   20.426
 qs_energies                          1  2.0    0.000    0.000   20.259   20.260
 ls_scf                               1  3.0    0.000    0.000   19.174   19.174
 ls_scf_main                          1  4.0    0.000    0.000   16.628   16.628
 ls_scf_dm_to_ks                      8  5.0    0.000    0.000   12.365   12.369
 qs_ks_update_qs_env                  9  6.1    0.000    0.000    7.792    7.793
 rebuild_ks_matrix                    9  7.1    0.000    0.000    7.785    7.786
 qs_ks_build_kohn_sham_matrix         9  8.1    0.002    0.002    7.785    7.786
 qs_rho_update_rho_low                9  6.1    0.000    0.000    6.122    6.126
 calculate_rho_elec                   9  7.1    0.003    0.003    6.122    6.125
 sum_up_and_integrate                 9  9.1    0.000    0.000    5.885    5.886
 integrate_v_rspace                   9 10.1    0.000    0.000    5.877    5.878
 grid_collocate_task_list             9  8.1    5.441    5.522    5.441    5.522
 grid_integrate_task_list             9 11.1    5.205    5.265    5.205    5.265
 dbcsr_multiply_generic             246  6.2    0.012    0.012    4.647    4.652
 density_matrix_trs4                  8  5.0    0.004    0.006    4.258    4.262
 multiply_cannon                    246  7.2    0.018    0.022    3.771    3.878
 multiply_cannon_loop               246  8.2    0.019    0.022    3.696    3.758
 ls_scf_init_scf                      1  4.0    0.000    0.000    2.482    2.483
 multiply_cannon_multrec           1968  9.2    2.100    2.143    2.106    2.149
 mp_waitall_1                     16729 10.5    1.725    1.858    1.725    1.858
 fft_wrap_pw1pw2                    172 11.3    0.003    0.003    1.761    1.793
 fft_wrap_pw1pw2_200                100 12.8    0.103    0.108    1.689    1.747
 qs_vxc_create                        9  9.1    0.000    0.000    1.551    1.579
 xc_vxc_pw_create                     9 10.1    0.013    0.019    1.551    1.579
 ls_scf_initial_guess                 1  5.0    0.000    0.000    1.552    1.553
 ls_scf_qs_atomic_guess               1  6.0    0.000    0.000    1.552    1.553
 multiply_cannon_metrocomm3        1968  9.2    0.005    0.006    1.353    1.465
 fft3d_ps                           172 13.3    0.718    0.807    1.325    1.358
 xc_pw_derive                        54 12.1    0.001    0.001    1.100    1.184
 qs_energies_init_hamiltonians        1  3.0    0.000    0.000    1.085    1.085
 ls_scf_init_matrix_S                 1  5.0    0.000    0.000    0.930    0.931
 matrix_sqrt_Newton_Schulz            1  6.0    0.001    0.001    0.906    0.907
 build_core_hamiltonian_matrix        1  4.0    0.000    0.000    0.727    0.895
 xc_rho_set_and_dset_create           9 11.1    0.019    0.026    0.782    0.804
 xc_pw_divergence                     9 11.1    0.000    0.000    0.737    0.778
 density_rs2pw                        9  8.1    0.000    0.000    0.647    0.749
 make_m2s                           492  7.2    0.005    0.007    0.673    0.684
 make_images                        492  8.2    0.039    0.041    0.663    0.675
 mp_waitany                        1406 12.5    0.514    0.667    0.514    0.667
 mp_alltoall_z22v                   172 15.3    0.432    0.625    0.432    0.625
 build_core_ppl                       1  5.0    0.494    0.604    0.494    0.604
 transfer_rs2pw                      46  9.0    0.001    0.001    0.451    0.603
 potential_pw2rs                      9 11.1    0.001    0.001    0.597    0.599
 transfer_rs2pw_200                  10  9.8    0.034    0.044    0.348    0.497
 arnoldi_extremal                     9  6.1    0.000    0.000    0.430    0.431
 arnoldi_normal_ev                    9  7.1    0.000    0.001    0.429    0.430
 qs_env_update_s_mstruct              1  4.0    0.000    0.000    0.338    0.411
 yz_to_x                             64 14.2    0.059    0.081    0.282    0.409
 -------------------------------------------------------------------------------

 The number of warnings for this run is : 1
 
 -------------------------------------------------------------------------------
  **** **** ******  **  PROGRAM ENDED AT                 2024-09-23 17:42:33.306
 ***** ** ***  *** **   PROGRAM RAN ON                                    moritz
 **    ****   ******    PROGRAM RAN BY                                       ole
 ***** **    ** ** **   PROGRAM PROCESS ID                                158221
  **** **  *******  **  PROGRAM STOPPED IN /home/ole/git/pao_ml_equivar/64H2O_MD
                                           /Frame3600
