     192
 i =     3600, time =     5400.000, E =     -1100.0612590295
  O         6.6746226669       -3.2462811133        3.5623064298
  H         7.3167392312       -3.9688158415        3.8466509628
  H         6.7714337187       -2.5642191038        4.1937410851
  O        -3.4756889481        2.3165384942        4.6999231575
  H        -3.8022187022        1.4468884451        4.4860323365
  H        -3.4389240758        2.2828708318        5.6550657018
  O         6.8090822789        3.8141265805        4.4540824313
  H         6.7055685324        4.6620151369        3.9789333814
  H         7.6152158297        3.3171090184        4.4549831985
  O        -2.9948518793       -0.2148955195       -3.1254382432
  H        -2.7726732296        0.3581457678       -2.3119681601
  H        -2.1485102199       -0.6176956892       -3.3232671633
  O        -3.8196440916        6.5184874016        6.3101172283
  H        -4.2618843670        5.7175801847        6.6330356200
  H        -4.1035112431        6.6867279394        5.3779255150
  O         8.0224905714       -0.1854077804        4.0717425185
  H         7.6974387286       -0.5575401307        4.9064731497
  H         7.2146775979        0.0054228003        3.5876856258
  O         4.1586674380       -5.3994425836        0.1748488629
  H         3.6874079249       -4.8241103983        0.8405403977
  H         3.4641398048       -5.9022843555       -0.3140984844
  O        -0.6109202714       -3.4311282809       -0.8747188617
  H        -1.4350490394       -3.6883251935       -1.3547211072
  H        -0.8530361417       -2.5518137424       -0.5731247480
  O         3.7867612139       -2.3009622511        5.2467151673
  H         4.7314623351       -2.1937620009        5.3766783623
  H         3.4804815561       -3.1787237190        5.4930688911
  O         4.3938764996        2.4943809014        5.3734493321
  H         3.7313975833        1.7985608974        5.2332931978
  H         4.0611712552        3.1301635312        6.1262129093
  O         5.9511900895       -4.9782446546       -2.0939431438
  H         5.3500945416       -5.0315896912       -1.2649954207
  H         6.2629418551       -4.0983475992       -2.2498441177
  O         2.7996369322       -4.1178701335        1.8771367641
  H         1.9160646567       -4.1499877613        1.4748226390
  H         3.1204986905       -3.2116750896        1.8622617224
  O         1.4085211652       -5.9434086813       -5.0212852067
  H         1.9685417416       -6.6793175413       -4.8217258909
  H         1.6676391299       -5.5694846710       -5.8955749689
  O         4.4788398753        5.1445428419       -3.0647791365
  H         5.0743449471        4.4492359445       -2.6661397092
  H         4.8172092945        6.0794163347       -2.8976598890
  O         2.8632916921        0.2847417508        5.1452759028
  H         3.2208859806       -0.5862791403        5.4567881392
  H         2.3703277611        0.0445156250        4.3325387141
  O        -1.1479526141        2.9787063183        7.5382109933
  H        -0.7136215112        2.2351720800        7.0723954482
  H        -1.9499462183        2.5328795815        7.7764771529
  O        -1.3451139195       -3.8680787075        2.9555796533
  H        -0.7707019194       -4.2859343646        2.2563723555
  H        -0.8829955248       -4.1515229339        3.8018763010
  O        -1.4993695402        3.3170331724        2.9511061250
  H        -1.0801397022        2.5273902164        2.5656648276
  H        -2.0776594283        2.8237023996        3.5585482769
  O         0.6295057856        0.8910310681       -5.4949841980
  H         1.2640054852        0.6313162435       -6.2225634247
  H         1.2855628391        1.0734039631       -4.7605478946
  O        -1.1352901332       -0.9810687275        0.0786669419
  H        -1.6379219970       -1.0524392178        0.9134891589
  H        -0.1951778192       -0.7555389427        0.2442538196
  O        -3.7550004903        3.8387274756       -2.6936027764
  H        -3.8432298280        4.8383156044       -2.7535778012
  H        -3.0387987184        3.6009115168       -2.0817040522
  O         5.7711840938        5.7146224917        1.6127829385
  H         5.1503944181        6.1097844100        0.9678043634
  H         5.1567694551        5.3327337470        2.2373718840
  O         5.3346191499        0.3580311519       -3.3070937164
  H         5.4674754349        0.5814780579       -4.2184973886
  H         5.7904734422       -0.5441635977       -3.2485084932
  O        -3.9864970342        6.5235630076       -2.9897246412
  H        -3.6848958020        7.2473057839       -2.3669068212
  H        -4.9607151297        6.6389413049       -2.9791844526
  O         5.0916491556        1.4152188337        0.2896168275
  H         5.1277577521        1.1632327884        1.2491740554
  H         5.7533849611        2.1166121954        0.3522054530
  O         1.4241362793       -0.5593353557        0.2857945961
  H         1.8055344294        0.1959565469       -0.3091557427
  H         1.9542908157       -1.3683828150       -0.0333993774
  O        -4.8080176297       -4.5062124741        0.6403493736
  H        -4.6533438802       -4.1789276278        1.5244435674
  H        -5.5067657758       -5.1103446242        0.8116527415
  O        -3.3056730908        5.0770331950        1.9856336487
  H        -3.9175315554        4.4644308155        1.5647680700
  H        -2.5654689515        4.4858538670        2.2250133078
  O         6.2660152499        1.0705961585       -5.6969563406
  H         7.1465416098        1.4542903675       -5.4478882334
  H         5.7943167237        1.7690804993       -6.2088179939
  O         2.9066523523       -2.3767775757       -0.8713500708
  H         3.8079495812       -2.0311970112       -1.0902921336
  H         2.6146949001       -2.9904946822       -1.5641394295
  O         2.4428843907        1.8590788467       -0.9590018313
  H         3.4089024624        1.8127945434       -0.7799512767
  H         2.1772226377        2.5546039568       -0.3450544754
  O        -2.0576903572       -1.3595157008        2.8055390762
  H        -1.9513855821       -2.3419377795        2.8995131113
  H        -2.9225503342       -1.1315340975        3.1829823049
  O         2.6830486515       -8.9367308172        1.5874695805
  H         3.0526921076       -8.3858583881        0.8517294786
  H         3.3822330449       -8.7901975675        2.3148837196
  O         1.3133050336       -3.5529669880       -2.9794873380
  H         0.6498363668       -3.8600796907       -2.3906535776
  H         1.4873121456       -4.2352085350       -3.6191068797
  O        -5.3301926104        3.5659764680        0.5589182243
  H        -5.2087957112        3.3676195281       -0.3437235573
  H        -5.9989324106        4.3008748428        0.6637545371
  O         2.5227999727       -5.4011786620       -8.1414349799
  H         1.7150063511       -4.8555284540       -7.9421738264
  H         2.8537161415       -4.9521681579       -8.9567751387
  O         0.1212049897        3.0723372544       -2.3622074473
  H        -0.0185078707        2.9586384036       -3.3212294353
  H         0.2410780685        4.0319642550       -2.3068579964
  O        -3.8037552748       -5.1410033202        3.6984340876
  H        -2.9822046473       -4.6704934164        3.5076385229
  H        -3.6821137176       -5.9228619958        3.1428113401
  O         4.1195570735        4.6766030488        3.6647919533
  H         3.3543700703        5.1970283513        3.9438328828
  H         4.2521833926        4.0389599347        4.3632402287
  O        -3.7279418049        1.7399122469       -4.9224822714
  H        -3.6000127024        0.9835027030       -4.3037068002
  H        -3.7409708199        2.4552428677       -4.2816022734
  O         2.3492527382        0.8778669657        2.2924951692
  H         2.3979056467        1.7830226448        1.9158369556
  H         2.0895022297        0.3396026780        1.4532592255
  O        -6.8910481726        0.1785891033        2.8937766334
  H        -7.7512868352        0.4088557048        3.3790246205
  H        -7.2479910454       -0.6475206870        2.4757808103
  O        -0.5870113772        1.0366399733        2.2194222479
  H         0.3764825031        0.9195951772        2.3838689013
  H        -1.0297798614        0.2085297422        2.4091149506
  O        -1.8411511028        4.6272924399       -0.7822896133
  H        -1.1018980671        4.1505597465       -0.3582503210
  H        -2.3615670013        4.9563719173        0.0069569352
  O        -0.4687100792       -1.1529989013       -4.3203278487
  H         0.1808515714       -1.5361684841       -3.8075519405
  H        -0.0512701346       -0.4529364372       -4.8585176526
  O        -6.3834164720        3.2182483875       -2.4424344776
  H        -5.4256275287        3.3569944871       -2.3652681893
  H        -6.4465758519        2.2919748111       -2.6373592802
  O         5.3930245500       -1.2029530328       -0.7789506851
  H         6.1396711239       -1.3883881587       -1.3305636662
  H         5.5226490274       -0.3536645433       -0.3598675430
  O        -1.7371577365        1.4811795768       -1.0812433717
  H        -0.9142823369        1.9689031938       -1.3756157016
  H        -1.4485825576        0.7270622258       -0.5783449228
  O         0.2624639855        5.7409641805       -2.0309992078
  H        -0.0823285366        6.2850297043       -2.8244409030
  H        -0.5469307054        5.6487984287       -1.4961408573
  O         6.5305644321       -1.6467848956        5.9112630636
  H         7.0834249779       -2.2266905021        6.3937138080
  H         6.3630224535       -0.8239338819        6.4979037530
  O        -1.3140885865       -5.2468579362       -4.1007609122
  H        -0.8002489529       -5.8729949956       -4.6203437864
  H        -2.1543433660       -5.5972220812       -3.8520911357
  O        -5.1559478689       -2.2702792855       -3.0321204105
  H        -4.9702895666       -2.7799822363       -3.9265619408
  H        -4.5549632371       -1.5138213738       -3.1523788139
  O         2.7516388573        4.9844735337       -0.8504943756
  H         1.8407877102        5.0526066645       -1.2550759088
  H         3.3384149594        5.0373138886       -1.6383133899
  O        -4.3601520843       -3.3764443928       -5.3406600739
  H        -3.3993443336       -3.1902055936       -5.4158659272
  H        -4.3598734638       -4.3450371121       -5.5512544277
  O         0.2853261540        4.9180068215        1.3398897987
  H        -0.5241311164        4.6298906101        1.7886997860
  H         1.0622592532        4.4339937235        1.4608658015
  O        -1.8764965064       -3.1412580323       -5.7161183415
  H        -1.6976367549       -3.9035637621       -5.1048648662
  H        -1.5690914218       -2.3312034091       -5.3207626202
  O        -7.6896155918       -2.1729070393        1.9092853108
  H        -7.4112983419       -2.1142636590        0.9437801120
  H        -7.0613233889       -2.7278722253        2.3697101467
  O         2.9434299710        4.0104815030       -5.1662580524
  H         3.4693113186        4.4974123425       -4.4586524697
  H         2.6643980312        3.2906902825       -4.5637131426
  O         2.6089706896        1.5986279283       -3.5920586734
  H         2.2990370050        1.7269838441       -2.6972702896
  H         3.2284075638        0.8354252493       -3.6064444802
  O        -1.2382151567        5.3530765579        6.0117616058
  H        -1.1519343737        4.5051236956        6.4197631291
  H        -2.1203797845        5.6898863648        6.1879610114
  O         0.4262281018       -5.0027527781        1.1495940373
  H         0.4025144617       -6.0009718898        0.9771722059
  H         0.0810596254       -4.5296641195        0.3459211256
  O         7.3807922372        4.3068376544        7.0412136938
  H         6.9668052090        4.0235821729        7.8495263579
  H         6.8023018204        4.2150580155        6.2162873281
  O        -0.1351374993       -4.6620967699        5.1108081812
  H        -0.2445276595       -5.5967637368        5.3617049995
  H        -0.7621054013       -4.2073549931        5.7371157000
  O        -3.2506106876       -3.9703178528       -1.3670671898
  H        -3.7172732085       -4.1868363993       -0.5099272399
  H        -3.8301551529       -3.2705714585       -1.7846538152
