 DBCSR| CPU Multiplication driver                                           XSMM (U)
 DBCSR| Multrec recursion limit                                              512 (U)
 DBCSR| Multiplication stack size                                           1000 (D)
 DBCSR| Maximum elements for images                                    UNLIMITED (U)
 DBCSR| Multiplicative factor virtual images                                   1 (U)
 DBCSR| Use multiplication densification                                       T (D)
 DBCSR| Multiplication size stacks                                             3 (U)
 DBCSR| Use memory pool for CPU allocation                                     F (U)
 DBCSR| OMP: Current number of threads                                         1
 DBCSR| OMP: Max number of threads                                             1
 DBCSR| Split modifier for TAS multiplication algorithm                  1.0E+00 (U)


  **** **** ******  **  PROGRAM STARTED AT               2023-02-01 10:43:54.941
 ***** ** ***  *** **   PROGRAM STARTED ON                                moritz
 **    ****   ******    PROGRAM STARTED BY                                   ole
 ***** **    ** ** **   PROGRAM PROCESS ID                                148498
  **** **  *******  **  PROGRAM STARTED IN /home/ole/git/pao_ml_equivar/2H2O_rot
                                           ations/rand_05

 CP2K| version string:                 CP2K version 2023.1 (Development Version)
 CP2K| source code revision number:                                  git:03b4147
 CP2K| cp2kflags: omp libint fftw3 libxc quip xsmm spglib libvori libbqb libtorc
 CP2K|            h
 CP2K| is freely available from                            https://www.cp2k.org/
 CP2K| Program compiled at                           Mi 01 Feb 2023 10:36:52 CET
 CP2K| Program compiled on                                                moritz
 CP2K| Program compiled for                                                local
 CP2K| Data directory path                               /home/ole/git/cp2k/data
 CP2K| Input file name                                            2H2O_pao44.inp

 GLOBAL| Force Environment number                                              1
 GLOBAL| Basis set file name                                        BASIS_MOLOPT
 GLOBAL| Potential file name                                      GTH_POTENTIALS
 GLOBAL| MM Potential file name                                     MM_POTENTIAL
 GLOBAL| Coordinate file name                                         coords.xyz
 GLOBAL| Method name                                                        CP2K
 GLOBAL| Project name                                                 2H2O_pao44
 GLOBAL| Run type                                                         ENERGY
 GLOBAL| FFT library                                                       FFTW3
 GLOBAL| Diagonalization library                                       ScaLAPACK
 GLOBAL| DGEMM library                                                      BLAS
 GLOBAL| Orthonormality check for eigenvectors                          DISABLED
 GLOBAL| Matrix multiplication library                                 ScaLAPACK
 GLOBAL| All-to-all communication in single precision                          F
 GLOBAL| FFTs using library dependent lengths                                  F
 GLOBAL| Grid backend                                                       AUTO
 GLOBAL| Global print level                                                  LOW
 GLOBAL| MPI I/O enabled                                                       T
 GLOBAL| Total number of message passing processes                             1
 GLOBAL| Number of threads for this process                                    1
 GLOBAL| This output is from process                                           0
 GLOBAL| Stack size for threads created by OpenMP (OMP_STACKSIZE)        default
 GLOBAL| CPU model name           AMD Ryzen Threadripper 3970X 32-Core Processor
 GLOBAL| CPUID                                                              1002
 GLOBAL| Compiled for CPUID                                                    0

 *** HINT in environment.F:884 :: The compiler target flags (generic) used ***
 *** to build this binary cannot exploit all extensions of this CPU model  ***
 *** (x86_avx2). Consider compiler target flags as part of FCFLAGS and     ***
 *** CFLAGS (ARCH file).                                                   ***


 MEMORY| system memory details [Kb]
 MEMORY|                        rank 0           min           max       average
 MEMORY| MemTotal            131773860     131773860     131773860     131773860
 MEMORY| MemFree             115419448     115419448     115419448     115419448
 MEMORY| Buffers                301492        301492        301492        301492
 MEMORY| Cached                7000768       7000768       7000768       7000768
 MEMORY| Slab                   776600        776600        776600        776600
 MEMORY| SReclaimable           330700        330700        330700        330700
 MEMORY| MemLikelyFree       123052408     123052408     123052408     123052408


 GENERATE|  Preliminary Number of Bonds generated:                             0
 GENERATE|  Achieved consistency in connectivity generation.

 *******************************************************************************
 *******************************************************************************
 **                                                                           **
 **     #####                         ##              ##                      **
 **    ##   ##            ##          ##              ##                      **
 **   ##     ##                       ##            ######                    **
 **   ##     ##  ##   ##  ##   #####  ##  ##   ####   ##    #####    #####    **
 **   ##     ##  ##   ##  ##  ##      ## ##   ##      ##   ##   ##  ##   ##   **
 **   ##  ## ##  ##   ##  ##  ##      ####     ###    ##   ######   ######    **
 **    ##  ###   ##   ##  ##  ##      ## ##      ##   ##   ##       ##        **
 **     #######   #####   ##   #####  ##  ##  ####    ##    #####   ##        **
 **           ##                                                    ##        **
 **                                                                           **
 **                                                ... make the atoms dance   **
 **                                                                           **
 **            Copyright (C) by CP2K developers group (2000-2023)             **
 **                      J. Chem. Phys. 152, 194103 (2020)                    **
 **                                                                           **
 *******************************************************************************


 TOTAL NUMBERS AND MAXIMUM NUMBERS

  Total number of            - Atomic kinds:                                   2
                             - Atoms:                                          6
                             - Shell sets:                                     6
                             - Shells:                                        22
                             - Primitive Cartesian functions:                 42
                             - Cartesian basis functions:                     48
                             - Spherical basis functions:                     46

  Maximum angular momentum of- Orbital basis functions:                        2
                             - Local part of the GTH pseudopotential:          2
                             - Non-local part of the GTH pseudopotential:      0

 ------------------------------ Linear scaling SCF -----------------------------
 eps_scf:                                                              0.100E-07
 eps_filter:                                                           0.100E-07
 mixing_fraction:                                                      0.450E+00
 max_scf:                                                                     25
 fixed chemical potential (mu)                                                 F
 has unit metric:                                                              F
 Computing inv(S):                                                             T
 Computing sqrt(S):                                                            T
 Computing S preconditioner                                                    F
 S sqrt method:                                                     NEWTONSCHULZ
 S sqrt order:                                                                 3
 Extrapolation order:                                                          1
 Use single precision matrices                                                 F
 S preconditioner type                                                      NONE
 Polarized Atomic Orbitals (PAO)                                               T
 Purification method                                   Trace resetting 4th order
 Cluster type                                                             ATOMIC
 Computing Chebyshev                                                       FALSE
 Using PAO                                                                     T
 -------------------------------------------------------------------------------

 
 PAO|                                  EPS_PAO                           0.1E-04
 PAO|                                  MIXING                            0.5E+00
 PAO|                                  MAX_PAO                              1000
 PAO|                                  MAX_CYCLES                           1000
 PAO|                                  PARAMETERIZATION              EQUIVARIANT
 PAO|                                  PRECONDITION                            F
 PAO|                                  REGULARIZATION                    0.0E+00
 PAO|                                  EPS_PGF                           0.1E-09
 PAO|                                  PENALTY_DISTANCE                  0.1E+00
 PAO|                                  PENALTY_STRENGTH                  0.5E-02
 PAO|                                  LINPOT_PRECONDITION_DELTA         0.0E+00
 PAO|                                  LINPOT_INITGUESS_DELT             0.0E+00
 PAO|                                  LINPOT_REGULARIZATION_DELTA       0.0E+00
 PAO|                                  LINPOT_REGULARIZATION_STRENGTH    0.0E+00
 PAO|                                  OPTIMIZER                              CG
 PAO|                                  CG_INIT_STEPS                           2
 PAO|                                  CG_RESET_LIMIT                    0.1E+00
 PAO|                                  CHECK_UNITARY_TOL                -0.1E+01
 PAO|                                  CHECK_GRADIENT_TOL               -0.1E+01
 PAO|                                  NUM_GRADIENT_ORDER                      2
 PAO|                                  NUM_GRADIENT_EPS                  0.1E-07
 PAO|                                  PRINT%RESTART%WRITE_CYCLES            100
 PAO|                                  RESTART_FILE 
 PAO|                                  PREOPT_DM_FILE 2H2O_ref_LS_DM_SPIN_1_RESTART.dm
 PAO|                                  MACHINE_LEARNING%METHOD       GAUSSIAN_PR
 PAO|                                  MACHINE_LEARNING%PRIOR               ZERO
 PAO|                                  MACHINE_LEARNING%DESCRIPTOR     POTENTIAL
 PAO|                                  MACHINE_LEARNING%TOLERANCE        0.1E-01
 PAO|                                  MACHINE_LEARNING%GP_NOISE_VAR     0.1E+00
 PAO|                                  MACHINE_LEARNING%GP_SCALE         0.5E-01
 

 Calculating atomic Fock matrix for atomic kind: O

 Electronic structure
    Total number of core electrons                                          2.00
    Total number of valence electrons                                       6.00
    Total number of electrons                                               8.00
    Multiplicity                                                   not specified
    S   [  2.00] 2.00
    P      4.00


 *******************************************************************************
                  Iteration          Convergence                     Energy [au]
 *******************************************************************************
                          1        0.708315                     -15.576645311500
                          2        0.608879                     -15.587933561584
                          3        0.102828E-01                 -15.656849565404
                          4        0.113889E-02                 -15.656866888140
                          5        0.434197E-03                 -15.656867072159
                          6        0.263771E-03                 -15.656867091904
                          7        0.478536E-06                 -15.656867103452

 Energy components [Hartree]           Total Energy ::          -15.656867103452
                                        Band Energy ::           -3.000198112285
                                     Kinetic Energy ::           11.759971203220
                                   Potential Energy ::          -27.416838306672
                                      Virial (-V/T) ::            2.331369510426
                                        Core Energy ::          -26.140716385623
                                          XC Energy ::           -3.154051012914
                                     Coulomb Energy ::           13.637900295084
                       Total Pseudopotential Energy ::          -37.935781716540
                       Local Pseudopotential Energy ::          -39.218907440693
                    Nonlocal Pseudopotential Energy ::            1.283125724153
                                        Confinement ::            0.350941276976

 Orbital energies  State     L     Occupation   Energy[a.u.]          Energy[eV]

                       1     0          2.000      -0.864471          -23.523463

                       1     1          4.000      -0.317814           -8.648154


 Total Electron Density at R=0:                                         0.000068

 Calculating atomic Fock matrix for atomic kind: H

 Electronic structure
    Total number of core electrons                                          0.00
    Total number of valence electrons                                       1.00
    Total number of electrons                                               1.00
    Multiplicity                                                   not specified
    S      1.00


 *******************************************************************************
                  Iteration          Convergence                     Energy [au]
 *******************************************************************************
                          1        0.437545E-02                  -0.424159432110
                          2        0.531356E-03                  -0.424178438213
                          3        0.259176E-06                  -0.424178722480

 Energy components [Hartree]           Total Energy ::           -0.424178722480
                                        Band Energy ::           -0.199015229016
                                     Kinetic Energy ::            0.464007633961
                                   Potential Energy ::           -0.888186356441
                                      Virial (-V/T) ::            1.914163240935
                                        Core Energy ::           -0.479160803564
                                          XC Energy ::           -0.244352904054
                                     Coulomb Energy ::            0.299334985138
                       Total Pseudopotential Energy ::           -0.962295316385
                       Local Pseudopotential Energy ::           -0.962295316385
                    Nonlocal Pseudopotential Energy ::            0.000000000000
                                        Confinement ::            0.191268788606

 Orbital energies  State     L     Occupation   Energy[a.u.]          Energy[eV]

                       1     0          1.000      -0.199015           -5.415480


 Total Electron Density at R=0:                                         0.242907
 PAO| Made initial guess for matrix_X with norm:   4.8989794855663558     

     Lanczos converged:  T threshold:   0.100E-02
     Est. extremal eigenvalues:    0.337E+01   0.115E+00
     Est. condition number :    0.294E+02

 Order=           3
     NS sqrt iter    1 1.00000000   0.823E+00       0.001       56.077
     NS sqrt iter    2 1.00000000   0.440E+00       0.001      103.786
     NS sqrt iter    3 1.00000000   0.170E+00       0.001      104.668
     NS sqrt iter    4 1.00000000   0.207E-01       0.001      105.284
     NS sqrt iter    5 1.00000000   0.543E-04       0.001       87.050
     Symmetrizing Results
     Final NS sqrt iter    5 1.00000000   0.203E-08

 PAO| Read restart DM 2H2O_ref_LS_DM_SPIN_1_RESTART.dm with checksum:    71.206705453214568     
 PAO| Quickstep energy from restart density:  -34.450664536171402     
 PAO| ======================= Iteration:         1 =============================

     Lanczos converged:  T threshold:   0.100E-02
     Est. extremal eigenvalues:    0.337E+01   0.115E+00
     Est. condition number :    0.294E+02

 Order=           3
     NS sqrt iter    1 1.00000000   0.823E+00       0.001       64.512
     NS sqrt iter    2 1.00000000   0.440E+00       0.001      110.592
     NS sqrt iter    3 1.00000000   0.170E+00       0.001      110.592
     NS sqrt iter    4 1.00000000   0.207E-01       0.001      110.592
     NS sqrt iter    5 1.00000000   0.543E-04       0.001       86.728
     Symmetrizing Results
     Final NS sqrt iter    5 1.00000000   0.203E-08

     Est. extremal eigenvalues     -0.91855     1.87240  converged:  T
     TRS4 it   1 1.00000000   0.886E+00       0.000       16.128   0.100E-07
     TRS4 it   2 1.00000000   0.689E+00       0.001       32.256   0.100E-07
     TRS4 it   3 1.00000000   0.497E+00       0.001       32.256   0.100E-07
     TRS4 it   4 1.00000000   0.310E+00       0.001       32.256   0.100E-07
     TRS4 it   5 1.00000000   0.153E+00       0.001       32.256   0.100E-07
     TRS4 it   6 1.00000000   0.477E-01       0.001       32.256   0.100E-07
     TRS4 it   7 1.00000000   0.636E-02       0.001       32.256   0.100E-07
     TRS4 it   8 1.00000000   0.160E-03       0.001       32.256   0.100E-07
     TRS4 it   9 1.00000000   0.114E-06       0.001       32.256   0.100E-07
     TRS4 it  10 1.00000000   0.575E-13       0.001       32.256   0.100E-07
     Final TRS4 iteration   10 1.00000000   0.575E-13
     Chemical potential (mu):      -0.06219
 
 PAO| energy:  -7.5986489321994863      penalty:   3.0198581527991854E-033
 PAO|CG| warming up with steepest descent
 PAO|CG| beta:    0.0000000000000000     
 PAO| norm of gradient:  0.78404559508425531     
 PAO|LS| adapt:  T F F
 PAO|LS| adapt: scan_steps:    0.0000000000000000        0.0000000000000000        0.0000000000000000     
 PAO|LS| adapt: energies:   -7.5986489321994863        0.0000000000000000        0.0000000000000000     
 PAO| ======================= Iteration:         2 =============================

     Lanczos converged:  T threshold:   0.100E-02
     Est. extremal eigenvalues:    0.328E+01   0.128E+00
     Est. condition number :    0.257E+02

 Order=           3
     NS sqrt iter    1 1.00000000   0.806E+00       0.001       59.447
     NS sqrt iter    2 1.00000000   0.425E+00       0.001      100.584
     NS sqrt iter    3 1.00000000   0.153E+00       0.001       99.525
     NS sqrt iter    4 1.00000000   0.143E-01       0.001      100.967
     NS sqrt iter    5 1.00000000   0.171E-04       0.001       76.996
     Symmetrizing Results
     Final NS sqrt iter    5 1.00000000   0.437E-09

     Est. extremal eigenvalues     -0.92223     1.81684  converged:  T
     TRS4 it   1 1.00000000   0.882E+00       0.000       16.128   0.100E-07
     TRS4 it   2 1.00000000   0.670E+00       0.001       32.256   0.100E-07
     TRS4 it   3 1.00000000   0.480E+00       0.001       32.256   0.100E-07
     TRS4 it   4 1.00000000   0.289E+00       0.001       32.256   0.100E-07
     TRS4 it   5 1.00000000   0.134E+00       0.001       32.256   0.100E-07
     TRS4 it   6 1.00000000   0.364E-01       0.001       32.256   0.100E-07
     TRS4 it   7 1.00000000   0.377E-02       0.001       32.256   0.100E-07
     TRS4 it   8 1.00000000   0.566E-04       0.001       32.256   0.100E-07
     TRS4 it   9 1.00000000   0.143E-07       0.001       32.256   0.100E-07
     Final TRS4 iteration    9 1.00000000   0.143E-07
     Chemical potential (mu):      -0.05029
 
 PAO| energy:  -7.6542191222752418      penalty:   2.2573636586439357E-008
 PAO|LS| adapt:  T T F
 PAO|LS| adapt: scan_steps:    0.0000000000000000       0.10000000000000001        0.0000000000000000     
 PAO|LS| adapt: energies:   -7.5986489321994863       -7.6542191222752418        0.0000000000000000     
 PAO| ======================= Iteration:         3 =============================

     Lanczos converged:  T threshold:   0.100E-02
     Est. extremal eigenvalues:    0.319E+01   0.139E+00
     Est. condition number :    0.229E+02

 Order=           3
     NS sqrt iter    1 1.00000000   0.788E+00       0.001       59.515
     NS sqrt iter    2 1.00000000   0.408E+00       0.001       99.570
     NS sqrt iter    3 1.00000000   0.136E+00       0.001      100.402
     NS sqrt iter    4 1.00000000   0.978E-02       0.001      100.105
     NS sqrt iter    5 1.00000000   0.561E-05       0.001       76.514
     Symmetrizing Results
     Final NS sqrt iter    5 1.00000000   0.472E-10

     Est. extremal eigenvalues     -0.92565     1.77243  converged:  T
     TRS4 it   1 1.00000000   0.878E+00       0.000       16.128   0.100E-07
     TRS4 it   2 1.00000000   0.653E+00       0.001       32.256   0.100E-07
     TRS4 it   3 1.00000000   0.464E+00       0.001       32.256   0.100E-07
     TRS4 it   4 1.00000000   0.269E+00       0.001       32.256   0.100E-07
     TRS4 it   5 1.00000000   0.115E+00       0.001       32.256   0.100E-07
     TRS4 it   6 1.00000000   0.269E-01       0.001       32.256   0.100E-07
     TRS4 it   7 1.00000000   0.206E-02       0.001       32.256   0.100E-07
     TRS4 it   8 1.00000000   0.171E-04       0.001       32.256   0.100E-07
     TRS4 it   9 1.00000000   0.130E-08       0.001       32.256   0.100E-07
     Final TRS4 iteration    9 1.00000000   0.130E-08
     Chemical potential (mu):      -0.03743
 
 PAO| energy:  -7.6973232471284767      penalty:   3.6117820041571741E-007
 PAO|LS| adapt:  T T F
 PAO|LS| adapt: scan_steps:    0.0000000000000000       0.20000000000000001        0.0000000000000000     
 PAO|LS| adapt: energies:   -7.5986489321994863       -7.6973232471284767        0.0000000000000000     
 PAO| ======================= Iteration:         4 =============================

     Lanczos converged:  T threshold:   0.100E-02
     Est. extremal eigenvalues:    0.299E+01   0.158E+00
     Est. condition number :    0.189E+02

 Order=           3
     NS sqrt iter    1 1.00000000   0.751E+00       0.001       59.506
     NS sqrt iter    2 1.00000000   0.373E+00       0.001      100.051
     NS sqrt iter    3 1.00000000   0.106E+00       0.001      101.134
     NS sqrt iter    4 1.00000000   0.473E-02       0.001       98.967
     NS sqrt iter    5 1.00000000   0.757E-06       0.001       77.839
     Symmetrizing Results
     Final NS sqrt iter    5 1.00000000   0.953E-12

     Est. extremal eigenvalues     -0.93097     1.70888  converged:  T
     TRS4 it   1 1.00000000   0.874E+00       0.000       16.128   0.100E-07
     TRS4 it   2 1.00000000   0.626E+00       0.001       32.256   0.100E-07
     TRS4 it   3 1.00000000   0.433E+00       0.001       32.256   0.100E-07
     TRS4 it   4 1.00000000   0.231E+00       0.001       32.256   0.100E-07
     TRS4 it   5 1.00000000   0.832E-01       0.001       32.256   0.100E-07
     TRS4 it   6 1.00000000   0.137E-01       0.001       32.256   0.100E-07
     TRS4 it   7 1.00000000   0.511E-03       0.001       32.256   0.100E-07
     TRS4 it   8 1.00000000   0.102E-05       0.001       32.256   0.100E-07
     TRS4 it   9 1.00000000   0.464E-11       0.001       32.256   0.100E-07
     Final TRS4 iteration    9 1.00000000   0.464E-11
     Chemical potential (mu):      -0.00927
 
 PAO| energy:  -7.7445384348478727      penalty:   5.7788513269224524E-006
 PAO|LS| Need extra step
 PAO|LS| adapt:  T T F
 PAO|LS| adapt: scan_steps:    0.0000000000000000       0.40000000000000002        0.0000000000000000     
 PAO|LS| adapt: energies:   -7.5986489321994863       -7.7445384348478727        0.0000000000000000     
 PAO| ======================= Iteration:         5 =============================

     Lanczos converged:  T threshold:   0.100E-02
     Est. extremal eigenvalues:    0.263E+01   0.186E+00
     Est. condition number :    0.142E+02

 Order=           3
     NS sqrt iter    1 1.00000000   0.685E+00       0.001       59.320
     NS sqrt iter    2 1.00000000   0.310E+00       0.001       99.710
     NS sqrt iter    3 1.00000000   0.647E-01       0.001      100.325
     NS sqrt iter    4 1.00000000   0.127E-02       0.001      100.473
     NS sqrt iter    5 1.00000000   0.192E-07       0.001       51.666
     Symmetrizing Results
     Final NS sqrt iter    5 1.00000000   0.218E-08

     Est. extremal eigenvalues     -0.93219     1.64151  converged:  T
     TRS4 it   1 1.00000000   0.870E+00       0.000       16.128   0.100E-07
     TRS4 it   2 1.00000000   0.590E+00       0.001       32.256   0.100E-07
     TRS4 it   3 1.00000000   0.384E+00       0.001       32.256   0.100E-07
     TRS4 it   4 1.00000000   0.174E+00       0.001       32.256   0.100E-07
     TRS4 it   5 1.00000000   0.441E-01       0.001       32.256   0.100E-07
     TRS4 it   6 1.00000000   0.349E-02       0.001       32.256   0.100E-07
     TRS4 it   7 1.00000000   0.284E-04       0.001       32.256   0.100E-07
     TRS4 it   8 1.00000000   0.235E-08       0.001       32.256   0.100E-07
     Final TRS4 iteration    8 1.00000000   0.235E-08
     Chemical potential (mu):       0.03928
 
 PAO| energy:  -7.6896112966432399      penalty:   9.2461622192962429E-005
 PAO|LS| Need extra step
 PAO|LS| adapt:  T T T
 PAO|LS| adapt: scan_steps:    0.0000000000000000       0.40000000000000002       0.80000000000000004     
 PAO|LS| adapt: energies:   -7.5986489321994863       -7.7445384348478727       -7.6896112966432399     
 PAO|LS| adapt: suggested step_size:   0.49059245693720227     
 PAO|LS| adapt: predicted energy  -7.7496887499002334     
 PAO| ======================= Iteration:         6 =============================

     Lanczos converged:  T threshold:   0.100E-02
     Est. extremal eigenvalues:    0.290E+01   0.165E+00
     Est. condition number :    0.176E+02

 Order=           3
     NS sqrt iter    1 1.00000000   0.734E+00       0.001       60.249
     NS sqrt iter    2 1.00000000   0.358E+00       0.001       99.541
     NS sqrt iter    3 1.00000000   0.943E-01       0.001       99.824
     NS sqrt iter    4 1.00000000   0.346E-02       0.001      100.152
     NS sqrt iter    5 1.00000000   0.324E-06       0.001       76.942
     Symmetrizing Results
     Final NS sqrt iter    5 1.00000000   0.159E-09

     Est. extremal eigenvalues     -0.93245     1.68822  converged:  T
     TRS4 it   1 1.00000000   0.872E+00       0.000       16.128   0.100E-07
     TRS4 it   2 1.00000000   0.616E+00       0.001       32.256   0.100E-07
     TRS4 it   3 1.00000000   0.421E+00       0.001       32.256   0.100E-07
     TRS4 it   4 1.00000000   0.216E+00       0.001       32.256   0.100E-07
     TRS4 it   5 1.00000000   0.716E-01       0.001       32.256   0.100E-07
     TRS4 it   6 1.00000000   0.988E-02       0.001       32.256   0.100E-07
     TRS4 it   7 1.00000000   0.256E-03       0.001       32.256   0.100E-07
     TRS4 it   8 1.00000000   0.247E-06       0.001       32.256   0.100E-07
     TRS4 it   9 1.00000000   0.269E-12       0.001       32.256   0.100E-07
     Final TRS4 iteration    9 1.00000000   0.269E-12
     Chemical potential (mu):       0.00421
 
 PAO| energy:  -7.7489425528292548      penalty:   1.3076304455012072E-005
 PAO|CG| warming up with steepest descent
 PAO|CG| beta:    0.0000000000000000     
 PAO| norm of gradient:  0.41753616216363754     
 PAO| energy improvement: -0.15029362062976848     
 PAO| step      6                   -7.748942553  0.261E-01  0.491E+00     0.091
 PAO|LS| adapt:  T F F
 PAO|LS| adapt: scan_steps:    0.0000000000000000        0.0000000000000000        0.0000000000000000     
 PAO|LS| adapt: energies:   -7.7489425528292548        0.0000000000000000        0.0000000000000000     
 PAO| ======================= Iteration:         7 =============================

     Lanczos converged:  T threshold:   0.100E-02
     Est. extremal eigenvalues:    0.281E+01   0.179E+00
     Est. condition number :    0.157E+02

 Order=           3
     NS sqrt iter    1 1.00000000   0.716E+00       0.001       59.444
     NS sqrt iter    2 1.00000000   0.337E+00       0.001      100.595
     NS sqrt iter    3 1.00000000   0.786E-01       0.001       99.669
     NS sqrt iter    4 1.00000000   0.208E-02       0.001       98.298
     NS sqrt iter    5 1.00000000   0.778E-07       0.001       69.558
     Symmetrizing Results
     Final NS sqrt iter    5 1.00000000   0.875E-09

     Est. extremal eigenvalues     -0.93415     1.67629  converged:  T
     TRS4 it   1 1.00000000   0.872E+00       0.000       16.128   0.100E-07
     TRS4 it   2 1.00000000   0.614E+00       0.001       32.256   0.100E-07
     TRS4 it   3 1.00000000   0.421E+00       0.001       32.256   0.100E-07
     TRS4 it   4 1.00000000   0.217E+00       0.001       32.256   0.100E-07
     TRS4 it   5 1.00000000   0.723E-01       0.001       32.256   0.100E-07
     TRS4 it   6 1.00000000   0.983E-02       0.001       32.256   0.100E-07
     TRS4 it   7 1.00000000   0.241E-03       0.001       32.256   0.100E-07
     TRS4 it   8 1.00000000   0.207E-06       0.001       32.256   0.100E-07
     TRS4 it   9 1.00000000   0.186E-12       0.001       32.256   0.100E-07
     Final TRS4 iteration    9 1.00000000   0.186E-12
     Chemical potential (mu):       0.00603
 
 PAO| energy:  -7.7429220201391749      penalty:   1.9769797325359765E-005
 PAO|LS| adapt:  T F T
 PAO|LS| adapt: scan_steps:    0.0000000000000000        0.0000000000000000       0.49059245693720227     
 PAO|LS| adapt: energies:   -7.7489425528292548        0.0000000000000000       -7.7429220201391749     
 PAO| ======================= Iteration:         8 =============================

     Lanczos converged:  T threshold:   0.100E-02
     Est. extremal eigenvalues:    0.286E+01   0.172E+00
     Est. condition number :    0.166E+02

 Order=           3
     NS sqrt iter    1 1.00000000   0.725E+00       0.001       59.857
     NS sqrt iter    2 1.00000000   0.347E+00       0.001       99.709
     NS sqrt iter    3 1.00000000   0.863E-01       0.001       99.509
     NS sqrt iter    4 1.00000000   0.270E-02       0.001      100.802
     NS sqrt iter    5 1.00000000   0.162E-06       0.001       74.378
     Symmetrizing Results
     Final NS sqrt iter    5 1.00000000   0.110E-08

     Est. extremal eigenvalues     -0.93427     1.68161  converged:  T
     TRS4 it   1 1.00000000   0.872E+00       0.000       16.128   0.100E-07
     TRS4 it   2 1.00000000   0.614E+00       0.001       32.256   0.100E-07
     TRS4 it   3 1.00000000   0.420E+00       0.001       32.256   0.100E-07
     TRS4 it   4 1.00000000   0.216E+00       0.001       32.256   0.100E-07
     TRS4 it   5 1.00000000   0.717E-01       0.001       32.256   0.100E-07
     TRS4 it   6 1.00000000   0.991E-02       0.001       32.256   0.100E-07
     TRS4 it   7 1.00000000   0.255E-03       0.001       32.256   0.100E-07
     TRS4 it   8 1.00000000   0.240E-06       0.001       32.256   0.100E-07
     TRS4 it   9 1.00000000   0.253E-12       0.001       32.256   0.100E-07
     Final TRS4 iteration    9 1.00000000   0.253E-12
     Chemical potential (mu):       0.00467
 
 PAO| energy:  -7.7685800039548321      penalty:   1.4174781604391987E-005
 PAO|LS| adapt:  T T T
 PAO|LS| adapt: scan_steps:    0.0000000000000000       0.24529622846860114       0.49059245693720227     
 PAO|LS| adapt: energies:   -7.7489425528292548       -7.7685800039548321       -7.7429220201391749     
 PAO|LS| adapt: suggested step_size:   0.22899421079105228     
 PAO|LS| adapt: predicted energy  -7.7686800328372110     
 PAO| ======================= Iteration:         9 =============================

     Lanczos converged:  T threshold:   0.100E-02
     Est. extremal eigenvalues:    0.286E+01   0.172E+00
     Est. condition number :    0.167E+02

 Order=           3
     NS sqrt iter    1 1.00000000   0.725E+00       0.001       58.462
     NS sqrt iter    2 1.00000000   0.348E+00       0.001       99.867
     NS sqrt iter    3 1.00000000   0.868E-01       0.001      100.595
     NS sqrt iter    4 1.00000000   0.274E-02       0.001      100.484
     NS sqrt iter    5 1.00000000   0.170E-06       0.001       72.991
     Symmetrizing Results
     Final NS sqrt iter    5 1.00000000   0.114E-08

     Est. extremal eigenvalues     -0.93421     1.68201  converged:  T
     TRS4 it   1 1.00000000   0.872E+00       0.000       16.128   0.100E-07
     TRS4 it   2 1.00000000   0.615E+00       0.001       32.256   0.100E-07
     TRS4 it   3 1.00000000   0.420E+00       0.001       32.256   0.100E-07
     TRS4 it   4 1.00000000   0.216E+00       0.001       32.256   0.100E-07
     TRS4 it   5 1.00000000   0.717E-01       0.001       32.256   0.100E-07
     TRS4 it   6 1.00000000   0.991E-02       0.001       32.256   0.100E-07
     TRS4 it   7 1.00000000   0.256E-03       0.001       32.256   0.100E-07
     TRS4 it   8 1.00000000   0.241E-06       0.001       32.256   0.100E-07
     TRS4 it   9 1.00000000   0.257E-12       0.001       32.256   0.100E-07
     Final TRS4 iteration    9 1.00000000   0.257E-12
     Chemical potential (mu):       0.00461
 
 PAO| energy:  -7.7687043454161495      penalty:   1.4001057734948250E-005
 PAO|CG| trace_G_new    3.6725626845706801E-002
 PAO|CG| trace_G_prev   0.17433644671433943     
 PAO|CG| trace_G_mix   -1.4429403164221634E-003
 PAO|CG| trace_D   0.17433644671433943     
 PAO|CG| trace_D_Gnew   1.4429403164221634E-003
 PAO|CG| beta:   0.21893624587101065     
 PAO| norm of gradient:  0.19163931445741189     
 PAO| energy improvement:  -1.9761792586894700E-002
 PAO| step      9                   -7.768704345  0.120E-01  0.229E+00     0.057
 PAO|LS| adapt:  T F F
 PAO|LS| adapt: scan_steps:    0.0000000000000000        0.0000000000000000        0.0000000000000000     
 PAO|LS| adapt: energies:   -7.7687043454161495        0.0000000000000000        0.0000000000000000     
 PAO| ======================= Iteration:        10 =============================

     Lanczos converged:  T threshold:   0.100E-02
     Est. extremal eigenvalues:    0.282E+01   0.177E+00
     Est. condition number :    0.159E+02

 Order=           3
     NS sqrt iter    1 1.00000000   0.718E+00       0.001       59.972
     NS sqrt iter    2 1.00000000   0.340E+00       0.001       99.393
     NS sqrt iter    3 1.00000000   0.812E-01       0.001      100.746
     NS sqrt iter    4 1.00000000   0.225E-02       0.001      100.107
     NS sqrt iter    5 1.00000000   0.940E-07       0.001       70.626
     Symmetrizing Results
     Final NS sqrt iter    5 1.00000000   0.109E-08

     Est. extremal eigenvalues     -0.93510     1.67946  converged:  T
     TRS4 it   1 1.00000000   0.871E+00       0.000       16.128   0.100E-07
     TRS4 it   2 1.00000000   0.613E+00       0.001       32.256   0.100E-07
     TRS4 it   3 1.00000000   0.418E+00       0.001       32.256   0.100E-07
     TRS4 it   4 1.00000000   0.214E+00       0.001       32.256   0.100E-07
     TRS4 it   5 1.00000000   0.699E-01       0.001       32.256   0.100E-07
     TRS4 it   6 1.00000000   0.937E-02       0.001       32.256   0.100E-07
     TRS4 it   7 1.00000000   0.225E-03       0.001       32.256   0.100E-07
     TRS4 it   8 1.00000000   0.183E-06       0.001       32.256   0.100E-07
     TRS4 it   9 1.00000000   0.145E-12       0.001       32.256   0.100E-07
     Final TRS4 iteration    9 1.00000000   0.145E-12
     Chemical potential (mu):       0.00760
 
 PAO| energy:  -7.7737241564561250      penalty:   1.4532696348268047E-005
 PAO|LS| adapt:  T T F
 PAO|LS| adapt: scan_steps:    0.0000000000000000       0.22899421079105228        0.0000000000000000     
 PAO|LS| adapt: energies:   -7.7687043454161495       -7.7737241564561250        0.0000000000000000     
 PAO| ======================= Iteration:        11 =============================

     Lanczos converged:  T threshold:   0.100E-02
     Est. extremal eigenvalues:    0.278E+01   0.183E+00
     Est. condition number :    0.152E+02

 Order=           3
     NS sqrt iter    1 1.00000000   0.709E+00       0.001       58.587
     NS sqrt iter    2 1.00000000   0.331E+00       0.001       99.055
     NS sqrt iter    3 1.00000000   0.758E-01       0.001      100.842
     NS sqrt iter    4 1.00000000   0.184E-02       0.001      100.591
     NS sqrt iter    5 1.00000000   0.513E-07       0.001       64.639
     Symmetrizing Results
     Final NS sqrt iter    5 1.00000000   0.373E-09

     Est. extremal eigenvalues     -0.93502     1.67829  converged:  T
     TRS4 it   1 1.00000000   0.870E+00       0.000       16.128   0.100E-07
     TRS4 it   2 1.00000000   0.613E+00       0.001       32.256   0.100E-07
     TRS4 it   3 1.00000000   0.417E+00       0.001       32.256   0.100E-07
     TRS4 it   4 1.00000000   0.212E+00       0.001       32.256   0.100E-07
     TRS4 it   5 1.00000000   0.683E-01       0.001       32.256   0.100E-07
     TRS4 it   6 1.00000000   0.887E-02       0.001       32.256   0.100E-07
     TRS4 it   7 1.00000000   0.198E-03       0.001       32.256   0.100E-07
     TRS4 it   8 1.00000000   0.138E-06       0.001       32.256   0.100E-07
     TRS4 it   9 1.00000000   0.819E-13       0.001       32.256   0.100E-07
     Final TRS4 iteration    9 1.00000000   0.819E-13
     Chemical potential (mu):       0.01069
 
 PAO| energy:  -7.7723488481402150      penalty:   1.5728277132933026E-005
 PAO|LS| adapt:  T T T
 PAO|LS| adapt: scan_steps:    0.0000000000000000       0.22899421079105228       0.45798842158210457     
 PAO|LS| adapt: energies:   -7.7687043454161495       -7.7737241564561250       -7.7723488481402150     
 PAO|LS| adapt: suggested step_size:   0.29424475410226825     
 PAO|LS| adapt: predicted energy  -7.7739837763194641     
 PAO| ======================= Iteration:        12 =============================

     Lanczos converged:  T threshold:   0.100E-02
     Est. extremal eigenvalues:    0.281E+01   0.179E+00
     Est. condition number :    0.157E+02

 Order=           3
     NS sqrt iter    1 1.00000000   0.715E+00       0.001       59.630
     NS sqrt iter    2 1.00000000   0.337E+00       0.001      101.006
     NS sqrt iter    3 1.00000000   0.796E-01       0.001       99.061
     NS sqrt iter    4 1.00000000   0.213E-02       0.001       99.232
     NS sqrt iter    5 1.00000000   0.792E-07       0.001       68.940
     Symmetrizing Results
     Final NS sqrt iter    5 1.00000000   0.713E-09

     Est. extremal eigenvalues     -0.93517     1.67899  converged:  T
     TRS4 it   1 1.00000000   0.870E+00       0.000       16.128   0.100E-07
     TRS4 it   2 1.00000000   0.613E+00       0.001       32.256   0.100E-07
     TRS4 it   3 1.00000000   0.418E+00       0.001       32.256   0.100E-07
     TRS4 it   4 1.00000000   0.213E+00       0.001       32.256   0.100E-07
     TRS4 it   5 1.00000000   0.694E-01       0.001       32.256   0.100E-07
     TRS4 it   6 1.00000000   0.922E-02       0.001       32.256   0.100E-07
     TRS4 it   7 1.00000000   0.217E-03       0.001       32.256   0.100E-07
     TRS4 it   8 1.00000000   0.169E-06       0.001       32.256   0.100E-07
     TRS4 it   9 1.00000000   0.124E-12       0.001       32.256   0.100E-07
     Final TRS4 iteration    9 1.00000000   0.124E-12
     Chemical potential (mu):       0.00847
 
 PAO| energy:  -7.7739676108091587      penalty:   1.4798098769780560E-005
 PAO|CG| trace_G_new    1.1773502433781419E-002
 PAO|CG| trace_G_prev    3.6725626845706801E-002
 PAO|CG| trace_G_mix   -4.5409641227634389E-004
 PAO|CG| trace_D    4.4450285778672070E-002
 PAO|CG| trace_D_Gnew   2.0505432557802361E-004
 PAO|CG| beta:   0.33294459199917403     
 PAO| norm of gradient:  0.10850577143074656     
 PAO| energy improvement:  -5.2632653930091422E-003
 PAO| step     12                   -7.773967611  0.678E-02  0.294E+00     0.057
 PAO|LS| adapt:  T F F
 PAO|LS| adapt: scan_steps:    0.0000000000000000        0.0000000000000000        0.0000000000000000     
 PAO|LS| adapt: energies:   -7.7739676108091587        0.0000000000000000        0.0000000000000000     
 PAO| ======================= Iteration:        13 =============================

     Lanczos converged:  T threshold:   0.100E-02
     Est. extremal eigenvalues:    0.278E+01   0.183E+00
     Est. condition number :    0.151E+02

 Order=           3
     NS sqrt iter    1 1.00000000   0.708E+00       0.001       58.577
     NS sqrt iter    2 1.00000000   0.330E+00       0.001       98.918
     NS sqrt iter    3 1.00000000   0.752E-01       0.001       99.893
     NS sqrt iter    4 1.00000000   0.181E-02       0.001       99.612
     NS sqrt iter    5 1.00000000   0.488E-07       0.001       63.930
     Symmetrizing Results
     Final NS sqrt iter    5 1.00000000   0.380E-09

     Est. extremal eigenvalues     -0.93566     1.67289  converged:  T
     TRS4 it   1 1.00000000   0.870E+00       0.000       16.128   0.100E-07
     TRS4 it   2 1.00000000   0.610E+00       0.001       32.256   0.100E-07
     TRS4 it   3 1.00000000   0.414E+00       0.001       32.256   0.100E-07
     TRS4 it   4 1.00000000   0.208E+00       0.001       32.256   0.100E-07
     TRS4 it   5 1.00000000   0.659E-01       0.001       32.256   0.100E-07
     TRS4 it   6 1.00000000   0.827E-02       0.001       32.256   0.100E-07
     TRS4 it   7 1.00000000   0.172E-03       0.001       32.256   0.100E-07
     TRS4 it   8 1.00000000   0.104E-06       0.001       32.256   0.100E-07
     TRS4 it   9 1.00000000   0.459E-13       0.001       32.256   0.100E-07
     Final TRS4 iteration    9 1.00000000   0.459E-13
     Chemical potential (mu):       0.01287
 
 PAO| energy:  -7.7760339525218631      penalty:   1.5102343968202679E-005
 PAO|LS| adapt:  T T F
 PAO|LS| adapt: scan_steps:    0.0000000000000000       0.29424475410226825        0.0000000000000000     
 PAO|LS| adapt: energies:   -7.7739676108091587       -7.7760339525218631        0.0000000000000000     
 PAO| ======================= Iteration:        14 =============================

     Lanczos converged:  T threshold:   0.100E-02
     Est. extremal eigenvalues:    0.274E+01   0.188E+00
     Est. condition number :    0.146E+02

 Order=           3
     NS sqrt iter    1 1.00000000   0.701E+00       0.001       59.422
     NS sqrt iter    2 1.00000000   0.323E+00       0.001       99.534
     NS sqrt iter    3 1.00000000   0.711E-01       0.001       99.445
     NS sqrt iter    4 1.00000000   0.153E-02       0.001       99.624
     NS sqrt iter    5 1.00000000   0.299E-07       0.001       60.185
     Symmetrizing Results
     Final NS sqrt iter    5 1.00000000   0.319E-08

     Est. extremal eigenvalues     -0.93564     1.66705  converged:  T
     TRS4 it   1 1.00000000   0.869E+00       0.000       16.128   0.100E-07
     TRS4 it   2 1.00000000   0.607E+00       0.001       32.256   0.100E-07
     TRS4 it   3 1.00000000   0.410E+00       0.001       32.256   0.100E-07
     TRS4 it   4 1.00000000   0.203E+00       0.001       32.256   0.100E-07
     TRS4 it   5 1.00000000   0.626E-01       0.001       32.256   0.100E-07
     TRS4 it   6 1.00000000   0.742E-02       0.001       32.256   0.100E-07
     TRS4 it   7 1.00000000   0.137E-03       0.001       32.256   0.100E-07
     TRS4 it   8 1.00000000   0.643E-07       0.001       32.256   0.100E-07
     Final TRS4 iteration    8 1.00000000   0.643E-07
     Chemical potential (mu):       0.01471
 
 PAO| energy:  -7.7753947004901063      penalty:   1.5886779726500543E-005
 PAO|LS| adapt:  T T T
 PAO|LS| adapt: scan_steps:    0.0000000000000000       0.29424475410226825       0.58848950820453649     
 PAO|LS| adapt: energies:   -7.7739676108091587       -7.7760339525218631       -7.7753947004901063     
 PAO|LS| adapt: suggested step_size:   0.37184577109011624     
 PAO|LS| adapt: predicted energy  -7.7761280439279377     
 PAO| ======================= Iteration:        15 =============================

     Lanczos converged:  T threshold:   0.100E-02
     Est. extremal eigenvalues:    0.277E+01   0.185E+00
     Est. condition number :    0.150E+02

 Order=           3
     NS sqrt iter    1 1.00000000   0.706E+00       0.001       59.751
     NS sqrt iter    2 1.00000000   0.328E+00       0.001       99.736
     NS sqrt iter    3 1.00000000   0.741E-01       0.001       99.482
     NS sqrt iter    4 1.00000000   0.173E-02       0.001       99.870
     NS sqrt iter    5 1.00000000   0.430E-07       0.001       64.339
     Symmetrizing Results
     Final NS sqrt iter    5 1.00000000   0.359E-09

     Est. extremal eigenvalues     -0.93570     1.67132  converged:  T
     TRS4 it   1 1.00000000   0.870E+00       0.000       16.128   0.100E-07
     TRS4 it   2 1.00000000   0.609E+00       0.001       32.256   0.100E-07
     TRS4 it   3 1.00000000   0.413E+00       0.001       32.256   0.100E-07
     TRS4 it   4 1.00000000   0.207E+00       0.001       32.256   0.100E-07
     TRS4 it   5 1.00000000   0.651E-01       0.001       32.256   0.100E-07
     TRS4 it   6 1.00000000   0.804E-02       0.001       32.256   0.100E-07
     TRS4 it   7 1.00000000   0.162E-03       0.001       32.256   0.100E-07
     TRS4 it   8 1.00000000   0.917E-07       0.001       32.256   0.100E-07
     TRS4 it   9 1.00000000   0.356E-13       0.001       32.256   0.100E-07
     Final TRS4 iteration    9 1.00000000   0.356E-13
     Chemical potential (mu):       0.01401
 
 PAO| energy:  -7.7761249513572510      penalty:   1.5259538126049364E-005
 PAO|CG| trace_G_new    2.6039681101963125E-003
 PAO|CG| trace_G_prev    1.1773502433781419E-002
 PAO|CG| trace_G_mix    6.1641908949553890E-005
 PAO|CG| trace_D    1.6564366560042766E-002
 PAO|CG| trace_D_Gnew   3.3930100366058748E-005
 PAO|CG| beta:   0.21593627007305191     
 PAO| norm of gradient:   5.1029090822748473E-002
 PAO| energy improvement:  -2.1573405480923569E-003
 PAO| step     15                   -7.776124951  0.319E-02  0.372E+00     0.057
 PAO|LS| adapt:  T F F
 PAO|LS| adapt: scan_steps:    0.0000000000000000        0.0000000000000000        0.0000000000000000     
 PAO|LS| adapt: energies:   -7.7761249513572510        0.0000000000000000        0.0000000000000000     
 PAO| ======================= Iteration:        16 =============================

     Lanczos converged:  T threshold:   0.100E-02
     Est. extremal eigenvalues:    0.276E+01   0.185E+00
     Est. condition number :    0.149E+02

 Order=           3
     NS sqrt iter    1 1.00000000   0.704E+00       0.001       59.142
     NS sqrt iter    2 1.00000000   0.327E+00       0.001      100.053
     NS sqrt iter    3 1.00000000   0.734E-01       0.001      100.245
     NS sqrt iter    4 1.00000000   0.167E-02       0.001       97.521
     NS sqrt iter    5 1.00000000   0.389E-07       0.001       63.604
     Symmetrizing Results
     Final NS sqrt iter    5 1.00000000   0.389E-09

     Est. extremal eigenvalues     -0.93573     1.67085  converged:  T
     TRS4 it   1 1.00000000   0.870E+00       0.000       16.128   0.100E-07
     TRS4 it   2 1.00000000   0.609E+00       0.001       32.256   0.100E-07
     TRS4 it   3 1.00000000   0.412E+00       0.001       32.256   0.100E-07
     TRS4 it   4 1.00000000   0.205E+00       0.001       32.256   0.100E-07
     TRS4 it   5 1.00000000   0.639E-01       0.001       32.256   0.100E-07
     TRS4 it   6 1.00000000   0.778E-02       0.001       32.256   0.100E-07
     TRS4 it   7 1.00000000   0.153E-03       0.001       32.256   0.100E-07
     TRS4 it   8 1.00000000   0.821E-07       0.001       32.256   0.100E-07
     TRS4 it   9 1.00000000   0.290E-13       0.001       32.256   0.100E-07
     Final TRS4 iteration    9 1.00000000   0.290E-13
     Chemical potential (mu):       0.01480
 
 PAO| energy:  -7.7762472843960957      penalty:   1.5038202127009915E-005
 PAO|LS| adapt:  T T F
 PAO|LS| adapt: scan_steps:    0.0000000000000000       0.37184577109011624        0.0000000000000000     
 PAO|LS| adapt: energies:   -7.7761249513572510       -7.7762472843960957        0.0000000000000000     
 PAO| ======================= Iteration:        17 =============================

     Lanczos converged:  T threshold:   0.100E-02
     Est. extremal eigenvalues:    0.275E+01   0.186E+00
     Est. condition number :    0.148E+02

 Order=           3
     NS sqrt iter    1 1.00000000   0.702E+00       0.001       60.025
     NS sqrt iter    2 1.00000000   0.326E+00       0.001       99.261
     NS sqrt iter    3 1.00000000   0.727E-01       0.001       99.173
     NS sqrt iter    4 1.00000000   0.162E-02       0.001       99.253
     NS sqrt iter    5 1.00000000   0.353E-07       0.001       62.927
     Symmetrizing Results
     Final NS sqrt iter    5 1.00000000   0.401E-09

     Est. extremal eigenvalues     -0.93564     1.67045  converged:  T
     TRS4 it   1 1.00000000   0.870E+00       0.000       16.128   0.100E-07
     TRS4 it   2 1.00000000   0.608E+00       0.001       32.256   0.100E-07
     TRS4 it   3 1.00000000   0.410E+00       0.001       32.256   0.100E-07
     TRS4 it   4 1.00000000   0.204E+00       0.001       32.256   0.100E-07
     TRS4 it   5 1.00000000   0.629E-01       0.001       32.256   0.100E-07
     TRS4 it   6 1.00000000   0.753E-02       0.001       32.256   0.100E-07
     TRS4 it   7 1.00000000   0.144E-03       0.001       32.256   0.100E-07
     TRS4 it   8 1.00000000   0.736E-07       0.001       32.256   0.100E-07
     Final TRS4 iteration    8 1.00000000   0.736E-07
     Chemical potential (mu):       0.01375
 
 PAO| energy:  -7.7746775003521025      penalty:   1.4942788446306369E-005
 PAO|LS| adapt:  T T T
 PAO|LS| adapt: scan_steps:    0.0000000000000000       0.37184577109011624       0.74369154218023248     
 PAO|LS| adapt: energies:   -7.7761249513572510       -7.7762472843960957       -7.7746775003521025     
 PAO|LS| adapt: suggested step_size:   0.21280579076501260     
 PAO|LS| adapt: predicted energy  -7.7764020545973978     
 PAO| ======================= Iteration:        18 =============================

     Lanczos converged:  T threshold:   0.100E-02
     Est. extremal eigenvalues:    0.276E+01   0.185E+00
     Est. condition number :    0.149E+02

 Order=           3
     NS sqrt iter    1 1.00000000   0.705E+00       0.001       60.463
     NS sqrt iter    2 1.00000000   0.328E+00       0.001       97.787
     NS sqrt iter    3 1.00000000   0.737E-01       0.001       99.364
     NS sqrt iter    4 1.00000000   0.170E-02       0.001      100.222
     NS sqrt iter    5 1.00000000   0.406E-07       0.001       63.886
     Symmetrizing Results
     Final NS sqrt iter    5 1.00000000   0.302E-09

     Est. extremal eigenvalues     -0.93573     1.67104  converged:  T
     TRS4 it   1 1.00000000   0.870E+00       0.000       16.128   0.100E-07
     TRS4 it   2 1.00000000   0.609E+00       0.001       32.256   0.100E-07
     TRS4 it   3 1.00000000   0.412E+00       0.001       32.256   0.100E-07
     TRS4 it   4 1.00000000   0.206E+00       0.001       32.256   0.100E-07
     TRS4 it   5 1.00000000   0.644E-01       0.001       32.256   0.100E-07
     TRS4 it   6 1.00000000   0.789E-02       0.001       32.256   0.100E-07
     TRS4 it   7 1.00000000   0.157E-03       0.001       32.256   0.100E-07
     TRS4 it   8 1.00000000   0.861E-07       0.001       32.256   0.100E-07
     TRS4 it   9 1.00000000   0.315E-13       0.001       32.256   0.100E-07
     Final TRS4 iteration    9 1.00000000   0.315E-13
     Chemical potential (mu):       0.01447
 
 PAO| energy:  -7.7764015807061408      penalty:   1.5117731493192685E-005
 PAO|CG| trace_G_new    7.2736152954894467E-004
 PAO|CG| trace_G_prev    2.6039681101963125E-003
 PAO|CG| trace_G_mix    1.6467075589676516E-006
 PAO|CG| trace_D    3.3616857460492082E-003
 PAO|CG| trace_D_Gnew  -1.7474014074544020E-006
 PAO|CG| beta:   0.27869574099172262     
 PAO| norm of gradient:   2.6969640886540271E-002
 PAO| energy improvement:  -2.7662934888983415E-004
 PAO| step     18                   -7.776401581  0.169E-02  0.213E+00     0.057
 PAO|LS| adapt:  T F F
 PAO|LS| adapt: scan_steps:    0.0000000000000000        0.0000000000000000        0.0000000000000000     
 PAO|LS| adapt: energies:   -7.7764015807061408        0.0000000000000000        0.0000000000000000     
 PAO| ======================= Iteration:        19 =============================

     Lanczos converged:  T threshold:   0.100E-02
     Est. extremal eigenvalues:    0.276E+01   0.185E+00
     Est. condition number :    0.149E+02

 Order=           3
     NS sqrt iter    1 1.00000000   0.705E+00       0.001       58.969
     NS sqrt iter    2 1.00000000   0.328E+00       0.001       99.891
     NS sqrt iter    3 1.00000000   0.739E-01       0.001       99.257
     NS sqrt iter    4 1.00000000   0.171E-02       0.001       99.993
     NS sqrt iter    5 1.00000000   0.410E-07       0.001       64.287
     Symmetrizing Results
     Final NS sqrt iter    5 1.00000000   0.314E-09

     Est. extremal eigenvalues     -0.93573     1.67139  converged:  T
     TRS4 it   1 1.00000000   0.870E+00       0.000       16.128   0.100E-07
     TRS4 it   2 1.00000000   0.609E+00       0.001       32.256   0.100E-07
     TRS4 it   3 1.00000000   0.412E+00       0.001       32.256   0.100E-07
     TRS4 it   4 1.00000000   0.206E+00       0.001       32.256   0.100E-07
     TRS4 it   5 1.00000000   0.643E-01       0.001       32.256   0.100E-07
     TRS4 it   6 1.00000000   0.788E-02       0.001       32.256   0.100E-07
     TRS4 it   7 1.00000000   0.157E-03       0.001       32.256   0.100E-07
     TRS4 it   8 1.00000000   0.875E-07       0.001       32.256   0.100E-07
     TRS4 it   9 1.00000000   0.328E-13       0.001       32.256   0.100E-07
     Final TRS4 iteration    9 1.00000000   0.328E-13
     Chemical potential (mu):       0.01419
 
 PAO| energy:  -7.7765195443742563      penalty:   1.4827563458713207E-005
 PAO|LS| adapt:  T T F
 PAO|LS| adapt: scan_steps:    0.0000000000000000       0.21280579076501260        0.0000000000000000     
 PAO|LS| adapt: energies:   -7.7764015807061408       -7.7765195443742563        0.0000000000000000     
 PAO| ======================= Iteration:        20 =============================

     Lanczos converged:  T threshold:   0.100E-02
     Est. extremal eigenvalues:    0.276E+01   0.185E+00
     Est. condition number :    0.150E+02

 Order=           3
     NS sqrt iter    1 1.00000000   0.705E+00       0.001       60.459
     NS sqrt iter    2 1.00000000   0.328E+00       0.001       99.618
     NS sqrt iter    3 1.00000000   0.741E-01       0.001       99.162
     NS sqrt iter    4 1.00000000   0.171E-02       0.001       99.983
     NS sqrt iter    5 1.00000000   0.414E-07       0.001       61.677
     Symmetrizing Results
     Final NS sqrt iter    5 1.00000000   0.319E-09

     Est. extremal eigenvalues     -0.93573     1.67173  converged:  T
     TRS4 it   1 1.00000000   0.870E+00       0.000       16.128   0.100E-07
     TRS4 it   2 1.00000000   0.609E+00       0.001       32.256   0.100E-07
     TRS4 it   3 1.00000000   0.412E+00       0.001       32.256   0.100E-07
     TRS4 it   4 1.00000000   0.206E+00       0.001       32.256   0.100E-07
     TRS4 it   5 1.00000000   0.642E-01       0.001       32.256   0.100E-07
     TRS4 it   6 1.00000000   0.788E-02       0.001       32.256   0.100E-07
     TRS4 it   7 1.00000000   0.158E-03       0.001       32.256   0.100E-07
     TRS4 it   8 1.00000000   0.890E-07       0.001       32.256   0.100E-07
     TRS4 it   9 1.00000000   0.346E-13       0.001       32.256   0.100E-07
     Final TRS4 iteration    9 1.00000000   0.346E-13
     Chemical potential (mu):       0.01391
 
 PAO| energy:  -7.7765632559379796      penalty:   1.4549879640642543E-005
 PAO|LS| adapt:  T T F
 PAO|LS| adapt: scan_steps:    0.0000000000000000       0.42561158153002521        0.0000000000000000     
 PAO|LS| adapt: energies:   -7.7764015807061408       -7.7765632559379796        0.0000000000000000     
 PAO| ======================= Iteration:        21 =============================

     Lanczos converged:  T threshold:   0.100E-02
     Est. extremal eigenvalues:    0.276E+01   0.184E+00
     Est. condition number :    0.150E+02

 Order=           3
     NS sqrt iter    1 1.00000000   0.705E+00       0.001       60.396
     NS sqrt iter    2 1.00000000   0.328E+00       0.001       99.698
     NS sqrt iter    3 1.00000000   0.745E-01       0.001       99.274
     NS sqrt iter    4 1.00000000   0.174E-02       0.001       98.455
     NS sqrt iter    5 1.00000000   0.424E-07       0.001       64.296
     Symmetrizing Results
     Final NS sqrt iter    5 1.00000000   0.374E-09

     Est. extremal eigenvalues     -0.93572     1.67244  converged:  T
     TRS4 it   1 1.00000000   0.870E+00       0.000       16.128   0.100E-07
     TRS4 it   2 1.00000000   0.609E+00       0.001       32.256   0.100E-07
     TRS4 it   3 1.00000000   0.412E+00       0.001       32.256   0.100E-07
     TRS4 it   4 1.00000000   0.205E+00       0.001       32.256   0.100E-07
     TRS4 it   5 1.00000000   0.641E-01       0.001       32.256   0.100E-07
     TRS4 it   6 1.00000000   0.787E-02       0.001       32.256   0.100E-07
     TRS4 it   7 1.00000000   0.159E-03       0.001       32.256   0.100E-07
     TRS4 it   8 1.00000000   0.921E-07       0.001       32.256   0.100E-07
     TRS4 it   9 1.00000000   0.371E-13       0.001       32.256   0.100E-07
     Final TRS4 iteration    9 1.00000000   0.371E-13
     Chemical potential (mu):       0.01334
 
 PAO| energy:  -7.7764255264662392      penalty:   1.4031385981349137E-005
 PAO|LS| Need extra step
 PAO|LS| adapt:  T T T
 PAO|LS| adapt: scan_steps:    0.0000000000000000       0.42561158153002521       0.85122316306005041     
 PAO|LS| adapt: energies:   -7.7764015807061408       -7.7765632559379796       -7.7764255264662392     
 PAO|LS| adapt: suggested step_size:   0.44263134224948281     
 PAO|LS| adapt: predicted energy  -7.7765634953294374     
 PAO| ======================= Iteration:        22 =============================

     Lanczos converged:  T threshold:   0.100E-02
     Est. extremal eigenvalues:    0.276E+01   0.185E+00
     Est. condition number :    0.150E+02

 Order=           3
     NS sqrt iter    1 1.00000000   0.705E+00       0.001       60.923
     NS sqrt iter    2 1.00000000   0.328E+00       0.001       99.992
     NS sqrt iter    3 1.00000000   0.741E-01       0.001       97.788
     NS sqrt iter    4 1.00000000   0.172E-02       0.001      100.069
     NS sqrt iter    5 1.00000000   0.414E-07       0.001       64.027
     Symmetrizing Results
     Final NS sqrt iter    5 1.00000000   0.319E-09

     Est. extremal eigenvalues     -0.93573     1.67176  converged:  T
     TRS4 it   1 1.00000000   0.870E+00       0.000       16.128   0.100E-07
     TRS4 it   2 1.00000000   0.609E+00       0.001       32.256   0.100E-07
     TRS4 it   3 1.00000000   0.412E+00       0.001       32.256   0.100E-07
     TRS4 it   4 1.00000000   0.206E+00       0.001       32.256   0.100E-07
     TRS4 it   5 1.00000000   0.642E-01       0.001       32.256   0.100E-07
     TRS4 it   6 1.00000000   0.788E-02       0.001       32.256   0.100E-07
     TRS4 it   7 1.00000000   0.158E-03       0.001       32.256   0.100E-07
     TRS4 it   8 1.00000000   0.892E-07       0.001       32.256   0.100E-07
     TRS4 it   9 1.00000000   0.342E-13       0.001       32.256   0.100E-07
     Final TRS4 iteration    9 1.00000000   0.342E-13
     Chemical potential (mu):       0.01388
 
 PAO| energy:  -7.7765635272241722      penalty:   1.4528204914648593E-005
 PAO|CG| trace_G_new    2.2106212446681520E-004
 PAO|CG| trace_G_prev    7.2736152954894467E-004
 PAO|CG| trace_G_mix    3.0105795306427075E-006
 PAO|CG| trace_D    9.8944207224089782E-004
 PAO|CG| trace_D_Gnew  -1.8683672083122047E-006
 PAO|CG| beta:   0.29978426968964361     
 PAO| norm of gradient:   1.4868158072431676E-002
 PAO| energy improvement:  -1.6194651803136395E-004
 PAO| step     22                   -7.776563527  0.929E-03  0.443E+00     0.075
 PAO|LS| adapt:  T F F
 PAO|LS| adapt: scan_steps:    0.0000000000000000        0.0000000000000000        0.0000000000000000     
 PAO|LS| adapt: energies:   -7.7765635272241722        0.0000000000000000        0.0000000000000000     
 PAO| ======================= Iteration:        23 =============================

     Lanczos converged:  T threshold:   0.100E-02
     Est. extremal eigenvalues:    0.276E+01   0.185E+00
     Est. condition number :    0.150E+02

 Order=           3
     NS sqrt iter    1 1.00000000   0.705E+00       0.001       58.923
     NS sqrt iter    2 1.00000000   0.328E+00       0.001       98.361
     NS sqrt iter    3 1.00000000   0.742E-01       0.001      100.368
     NS sqrt iter    4 1.00000000   0.172E-02       0.001       99.161
     NS sqrt iter    5 1.00000000   0.416E-07       0.001       64.041
     Symmetrizing Results
     Final NS sqrt iter    5 1.00000000   0.322E-09

     Est. extremal eigenvalues     -0.93573     1.67191  converged:  T
     TRS4 it   1 1.00000000   0.870E+00       0.000       16.128   0.100E-07
     TRS4 it   2 1.00000000   0.609E+00       0.001       32.256   0.100E-07
     TRS4 it   3 1.00000000   0.412E+00       0.001       32.256   0.100E-07
     TRS4 it   4 1.00000000   0.206E+00       0.001       32.256   0.100E-07
     TRS4 it   5 1.00000000   0.644E-01       0.001       32.256   0.100E-07
     TRS4 it   6 1.00000000   0.792E-02       0.001       32.256   0.100E-07
     TRS4 it   7 1.00000000   0.160E-03       0.001       32.256   0.100E-07
     TRS4 it   8 1.00000000   0.918E-07       0.001       32.256   0.100E-07
     TRS4 it   9 1.00000000   0.368E-13       0.001       32.256   0.100E-07
     Final TRS4 iteration    9 1.00000000   0.368E-13
     Chemical potential (mu):       0.01356
 
 PAO| energy:  -7.7766125001505078      penalty:   1.3849089010380884E-005
 PAO|LS| adapt:  T T F
 PAO|LS| adapt: scan_steps:    0.0000000000000000       0.44263134224948281        0.0000000000000000     
 PAO|LS| adapt: energies:   -7.7765635272241722       -7.7766125001505078        0.0000000000000000     
 PAO| ======================= Iteration:        24 =============================

     Lanczos converged:  T threshold:   0.100E-02
     Est. extremal eigenvalues:    0.276E+01   0.185E+00
     Est. condition number :    0.150E+02

 Order=           3
     NS sqrt iter    1 1.00000000   0.705E+00       0.001       60.325
     NS sqrt iter    2 1.00000000   0.328E+00       0.001       98.797
     NS sqrt iter    3 1.00000000   0.742E-01       0.001       99.081
     NS sqrt iter    4 1.00000000   0.172E-02       0.001       99.654
     NS sqrt iter    5 1.00000000   0.417E-07       0.001       63.389
     Symmetrizing Results
     Final NS sqrt iter    5 1.00000000   0.324E-09

     Est. extremal eigenvalues     -0.93573     1.67205  converged:  T
     TRS4 it   1 1.00000000   0.870E+00       0.000       16.128   0.100E-07
     TRS4 it   2 1.00000000   0.609E+00       0.001       32.256   0.100E-07
     TRS4 it   3 1.00000000   0.412E+00       0.001       32.256   0.100E-07
     TRS4 it   4 1.00000000   0.206E+00       0.001       32.256   0.100E-07
     TRS4 it   5 1.00000000   0.645E-01       0.001       32.256   0.100E-07
     TRS4 it   6 1.00000000   0.797E-02       0.001       32.256   0.100E-07
     TRS4 it   7 1.00000000   0.162E-03       0.001       32.256   0.100E-07
     TRS4 it   8 1.00000000   0.946E-07       0.001       32.256   0.100E-07
     TRS4 it   9 1.00000000   0.384E-13       0.001       32.256   0.100E-07
     Final TRS4 iteration    9 1.00000000   0.384E-13
     Chemical potential (mu):       0.01324
 
 PAO| energy:  -7.7765626005565194      penalty:   1.3197947030012476E-005
 PAO|LS| adapt:  T T T
 PAO|LS| adapt: scan_steps:    0.0000000000000000       0.44263134224948281       0.88526268449896561     
 PAO|LS| adapt: energies:   -7.7765635272241722       -7.7766125001505078       -7.7765626005565194     
 PAO|LS| adapt: suggested step_size:   0.44055709479604804     
 PAO|LS| adapt: predicted energy  -7.7766125012361389     
 PAO| ======================= Iteration:        25 =============================

     Lanczos converged:  T threshold:   0.100E-02
     Est. extremal eigenvalues:    0.276E+01   0.185E+00
     Est. condition number :    0.150E+02

 Order=           3
     NS sqrt iter    1 1.00000000   0.705E+00       0.001       60.079
     NS sqrt iter    2 1.00000000   0.328E+00       0.001      100.442
     NS sqrt iter    3 1.00000000   0.742E-01       0.001       99.361
     NS sqrt iter    4 1.00000000   0.172E-02       0.001       99.563
     NS sqrt iter    5 1.00000000   0.416E-07       0.001       63.302
     Symmetrizing Results
     Final NS sqrt iter    5 1.00000000   0.322E-09

     Est. extremal eigenvalues     -0.93573     1.67191  converged:  T
     TRS4 it   1 1.00000000   0.870E+00       0.000       16.128   0.100E-07
     TRS4 it   2 1.00000000   0.609E+00       0.001       32.256   0.100E-07
     TRS4 it   3 1.00000000   0.412E+00       0.001       32.256   0.100E-07
     TRS4 it   4 1.00000000   0.206E+00       0.001       32.256   0.100E-07
     TRS4 it   5 1.00000000   0.644E-01       0.001       32.256   0.100E-07
     TRS4 it   6 1.00000000   0.792E-02       0.001       32.256   0.100E-07
     TRS4 it   7 1.00000000   0.160E-03       0.001       32.256   0.100E-07
     TRS4 it   8 1.00000000   0.918E-07       0.001       32.256   0.100E-07
     TRS4 it   9 1.00000000   0.372E-13       0.001       32.256   0.100E-07
     Final TRS4 iteration    9 1.00000000   0.372E-13
     Chemical potential (mu):       0.01356
 
 PAO| energy:  -7.7766125005043625      penalty:   1.3852205761933217E-005
 PAO|CG| trace_G_new    7.8398444789435647E-005
 PAO|CG| trace_G_prev    2.2106212446681520E-004
 PAO|CG| trace_G_mix    6.8882712818740119E-007
 PAO|CG| trace_D    3.1110409962761880E-004
 PAO|CG| trace_D_Gnew  -3.5292214867577635E-007
 PAO|CG| beta:   0.35152841242559241     
 PAO| norm of gradient:   8.8542896264712078E-003
 PAO| energy improvement:  -4.8973280190267587E-005
 PAO| step     25                   -7.776612501  0.553E-03  0.441E+00     0.058
 PAO|LS| adapt:  T F F
 PAO|LS| adapt: scan_steps:    0.0000000000000000        0.0000000000000000        0.0000000000000000     
 PAO|LS| adapt: energies:   -7.7766125005043625        0.0000000000000000        0.0000000000000000     
 PAO| ======================= Iteration:        26 =============================

     Lanczos converged:  T threshold:   0.100E-02
     Est. extremal eigenvalues:    0.276E+01   0.185E+00
     Est. condition number :    0.150E+02

 Order=           3
     NS sqrt iter    1 1.00000000   0.704E+00       0.001       59.561
     NS sqrt iter    2 1.00000000   0.328E+00       0.001       98.506
     NS sqrt iter    3 1.00000000   0.741E-01       0.001      100.397
     NS sqrt iter    4 1.00000000   0.171E-02       0.001      100.136
     NS sqrt iter    5 1.00000000   0.414E-07       0.001       63.446
     Symmetrizing Results
     Final NS sqrt iter    5 1.00000000   0.320E-09

     Est. extremal eigenvalues     -0.93573     1.67187  converged:  T
     TRS4 it   1 1.00000000   0.870E+00       0.000       16.128   0.100E-07
     TRS4 it   2 1.00000000   0.609E+00       0.001       32.256   0.100E-07
     TRS4 it   3 1.00000000   0.412E+00       0.001       32.256   0.100E-07
     TRS4 it   4 1.00000000   0.206E+00       0.001       32.256   0.100E-07
     TRS4 it   5 1.00000000   0.643E-01       0.001       32.256   0.100E-07
     TRS4 it   6 1.00000000   0.791E-02       0.001       32.256   0.100E-07
     TRS4 it   7 1.00000000   0.160E-03       0.001       32.256   0.100E-07
     TRS4 it   8 1.00000000   0.910E-07       0.001       32.256   0.100E-07
     TRS4 it   9 1.00000000   0.365E-13       0.001       32.256   0.100E-07
     Final TRS4 iteration    9 1.00000000   0.365E-13
     Chemical potential (mu):       0.01367
 
 PAO| energy:  -7.7766161812268484      penalty:   1.3133580371003734E-005
 PAO|LS| adapt:  T T F
 PAO|LS| adapt: scan_steps:    0.0000000000000000       0.44055709479604804        0.0000000000000000     
 PAO|LS| adapt: energies:   -7.7766125005043625       -7.7766161812268484        0.0000000000000000     
 PAO| ======================= Iteration:        27 =============================

     Lanczos converged:  T threshold:   0.100E-02
     Est. extremal eigenvalues:    0.276E+01   0.185E+00
     Est. condition number :    0.150E+02

 Order=           3
     NS sqrt iter    1 1.00000000   0.704E+00       0.001       58.914
     NS sqrt iter    2 1.00000000   0.328E+00       0.001      101.148
     NS sqrt iter    3 1.00000000   0.740E-01       0.001       99.894
     NS sqrt iter    4 1.00000000   0.171E-02       0.001       98.880
     NS sqrt iter    5 1.00000000   0.411E-07       0.001       63.229
     Symmetrizing Results
     Final NS sqrt iter    5 1.00000000   0.318E-09

     Est. extremal eigenvalues     -0.93574     1.67183  converged:  T
     TRS4 it   1 1.00000000   0.870E+00       0.000       16.128   0.100E-07
     TRS4 it   2 1.00000000   0.609E+00       0.001       32.256   0.100E-07
     TRS4 it   3 1.00000000   0.412E+00       0.001       32.256   0.100E-07
     TRS4 it   4 1.00000000   0.206E+00       0.001       32.256   0.100E-07
     TRS4 it   5 1.00000000   0.643E-01       0.001       32.256   0.100E-07
     TRS4 it   6 1.00000000   0.790E-02       0.001       32.256   0.100E-07
     TRS4 it   7 1.00000000   0.159E-03       0.001       32.256   0.100E-07
     TRS4 it   8 1.00000000   0.903E-07       0.001       32.256   0.100E-07
     TRS4 it   9 1.00000000   0.352E-13       0.001       32.256   0.100E-07
     Final TRS4 iteration    9 1.00000000   0.352E-13
     Chemical potential (mu):       0.01377
 
 PAO| energy:  -7.7765579334920876      penalty:   1.2438226002838746E-005
 PAO|LS| adapt:  T T T
 PAO|LS| adapt: scan_steps:    0.0000000000000000       0.44055709479604804       0.88111418959209609     
 PAO|LS| adapt: energies:   -7.7766125005043625       -7.7766161812268484       -7.7765579334920876     
 PAO|LS| adapt: suggested step_size:   0.24646309126099561     
 PAO|LS| adapt: predicted energy  -7.7766221913047691     
 PAO| ======================= Iteration:        28 =============================

     Lanczos converged:  T threshold:   0.100E-02
     Est. extremal eigenvalues:    0.276E+01   0.185E+00
     Est. condition number :    0.150E+02

 Order=           3
     NS sqrt iter    1 1.00000000   0.704E+00       0.001       60.574
     NS sqrt iter    2 1.00000000   0.328E+00       0.001      101.681
     NS sqrt iter    3 1.00000000   0.741E-01       0.001       99.417
     NS sqrt iter    4 1.00000000   0.172E-02       0.001      100.210
     NS sqrt iter    5 1.00000000   0.415E-07       0.001       64.096
     Symmetrizing Results
     Final NS sqrt iter    5 1.00000000   0.320E-09

     Est. extremal eigenvalues     -0.93573     1.67189  converged:  T
     TRS4 it   1 1.00000000   0.870E+00       0.000       16.128   0.100E-07
     TRS4 it   2 1.00000000   0.609E+00       0.001       32.256   0.100E-07
     TRS4 it   3 1.00000000   0.412E+00       0.001       32.256   0.100E-07
     TRS4 it   4 1.00000000   0.206E+00       0.001       32.256   0.100E-07
     TRS4 it   5 1.00000000   0.643E-01       0.001       32.256   0.100E-07
     TRS4 it   6 1.00000000   0.792E-02       0.001       32.256   0.100E-07
     TRS4 it   7 1.00000000   0.160E-03       0.001       32.256   0.100E-07
     TRS4 it   8 1.00000000   0.914E-07       0.001       32.256   0.100E-07
     TRS4 it   9 1.00000000   0.367E-13       0.001       32.256   0.100E-07
     Final TRS4 iteration    9 1.00000000   0.367E-13
     Chemical potential (mu):       0.01362
 
 PAO| energy:  -7.7766221822159851      penalty:   1.3447295445741911E-005
 PAO|CG| trace_G_new    3.0087161353611900E-005
 PAO|CG| trace_G_prev    7.8398444789435647E-005
 PAO|CG| trace_G_mix    4.7037369682094524E-008
 PAO|CG| trace_D    1.1709039483218730E-004
 PAO|CG| trace_D_Gnew  -2.4402752285383145E-008
 PAO|CG| beta:   0.38317244767561737     
 PAO| norm of gradient:   5.4851765107070075E-003
 PAO| energy improvement:  -9.6817116226333155E-006
 PAO| step     28                   -7.776622182  0.343E-03  0.246E+00     0.058
 PAO|LS| adapt:  T F F
 PAO|LS| adapt: scan_steps:    0.0000000000000000        0.0000000000000000        0.0000000000000000     
 PAO|LS| adapt: energies:   -7.7766221822159851        0.0000000000000000        0.0000000000000000     
 PAO| ======================= Iteration:        29 =============================

     Lanczos converged:  T threshold:   0.100E-02
     Est. extremal eigenvalues:    0.276E+01   0.185E+00
     Est. condition number :    0.150E+02

 Order=           3
     NS sqrt iter    1 1.00000000   0.704E+00       0.001       59.414
     NS sqrt iter    2 1.00000000   0.328E+00       0.001       99.830
     NS sqrt iter    3 1.00000000   0.740E-01       0.001      100.335
     NS sqrt iter    4 1.00000000   0.171E-02       0.001      100.183
     NS sqrt iter    5 1.00000000   0.414E-07       0.001       64.359
     Symmetrizing Results
     Final NS sqrt iter    5 1.00000000   0.320E-09

     Est. extremal eigenvalues     -0.93573     1.67192  converged:  T
     TRS4 it   1 1.00000000   0.870E+00       0.000       16.128   0.100E-07
     TRS4 it   2 1.00000000   0.609E+00       0.001       32.256   0.100E-07
     TRS4 it   3 1.00000000   0.412E+00       0.001       32.256   0.100E-07
     TRS4 it   4 1.00000000   0.206E+00       0.001       32.256   0.100E-07
     TRS4 it   5 1.00000000   0.643E-01       0.001       32.256   0.100E-07
     TRS4 it   6 1.00000000   0.790E-02       0.001       32.256   0.100E-07
     TRS4 it   7 1.00000000   0.159E-03       0.001       32.256   0.100E-07
     TRS4 it   8 1.00000000   0.904E-07       0.001       32.256   0.100E-07
     TRS4 it   9 1.00000000   0.359E-13       0.001       32.256   0.100E-07
     Final TRS4 iteration    9 1.00000000   0.359E-13
     Chemical potential (mu):       0.01374
 
 PAO| energy:  -7.7766287295302119      penalty:   1.3027087074337531E-005
 PAO|LS| adapt:  T T F
 PAO|LS| adapt: scan_steps:    0.0000000000000000       0.24646309126099561        0.0000000000000000     
 PAO|LS| adapt: energies:   -7.7766221822159851       -7.7766287295302119        0.0000000000000000     
 PAO| ======================= Iteration:        30 =============================

     Lanczos converged:  T threshold:   0.100E-02
     Est. extremal eigenvalues:    0.276E+01   0.185E+00
     Est. condition number :    0.150E+02

 Order=           3
     NS sqrt iter    1 1.00000000   0.704E+00       0.001       59.702
     NS sqrt iter    2 1.00000000   0.328E+00       0.001      101.723
     NS sqrt iter    3 1.00000000   0.740E-01       0.001       97.115
     NS sqrt iter    4 1.00000000   0.171E-02       0.001       99.896
     NS sqrt iter    5 1.00000000   0.413E-07       0.001       64.077
     Symmetrizing Results
     Final NS sqrt iter    5 1.00000000   0.319E-09

     Est. extremal eigenvalues     -0.93574     1.67195  converged:  T
     TRS4 it   1 1.00000000   0.870E+00       0.000       16.128   0.100E-07
     TRS4 it   2 1.00000000   0.609E+00       0.001       32.256   0.100E-07
     TRS4 it   3 1.00000000   0.412E+00       0.001       32.256   0.100E-07
     TRS4 it   4 1.00000000   0.206E+00       0.001       32.256   0.100E-07
     TRS4 it   5 1.00000000   0.642E-01       0.001       32.256   0.100E-07
     TRS4 it   6 1.00000000   0.788E-02       0.001       32.256   0.100E-07
     TRS4 it   7 1.00000000   0.158E-03       0.001       32.256   0.100E-07
     TRS4 it   8 1.00000000   0.894E-07       0.001       32.256   0.100E-07
     TRS4 it   9 1.00000000   0.353E-13       0.001       32.256   0.100E-07
     Final TRS4 iteration    9 1.00000000   0.353E-13
     Chemical potential (mu):       0.01386
 
 PAO| energy:  -7.7766335362616328      penalty:   1.2614286742327804E-005
 PAO|LS| adapt:  T T F
 PAO|LS| adapt: scan_steps:    0.0000000000000000       0.49292618252199122        0.0000000000000000     
 PAO|LS| adapt: energies:   -7.7766221822159851       -7.7766335362616328        0.0000000000000000     
 PAO| ======================= Iteration:        31 =============================

     Lanczos converged:  T threshold:   0.100E-02
     Est. extremal eigenvalues:    0.276E+01   0.185E+00
     Est. condition number :    0.150E+02

 Order=           3
     NS sqrt iter    1 1.00000000   0.704E+00       0.001       59.247
     NS sqrt iter    2 1.00000000   0.327E+00       0.001      100.959
     NS sqrt iter    3 1.00000000   0.739E-01       0.001       99.289
     NS sqrt iter    4 1.00000000   0.171E-02       0.001       99.770
     NS sqrt iter    5 1.00000000   0.412E-07       0.001       63.636
     Symmetrizing Results
     Final NS sqrt iter    5 1.00000000   0.360E-09

     Est. extremal eigenvalues     -0.93574     1.67201  converged:  T
     TRS4 it   1 1.00000000   0.870E+00       0.000       16.128   0.100E-07
     TRS4 it   2 1.00000000   0.609E+00       0.001       32.256   0.100E-07
     TRS4 it   3 1.00000000   0.412E+00       0.001       32.256   0.100E-07
     TRS4 it   4 1.00000000   0.205E+00       0.001       32.256   0.100E-07
     TRS4 it   5 1.00000000   0.641E-01       0.001       32.256   0.100E-07
     TRS4 it   6 1.00000000   0.785E-02       0.001       32.256   0.100E-07
     TRS4 it   7 1.00000000   0.157E-03       0.001       32.256   0.100E-07
     TRS4 it   8 1.00000000   0.875E-07       0.001       32.256   0.100E-07
     TRS4 it   9 1.00000000   0.325E-13       0.001       32.256   0.100E-07
     Final TRS4 iteration    9 1.00000000   0.325E-13
     Chemical potential (mu):       0.01409
 
 PAO| energy:  -7.7766379298106196      penalty:   1.1810769013747325E-005
 PAO|LS| Need extra step
 PAO|LS| adapt:  T T F
 PAO|LS| adapt: scan_steps:    0.0000000000000000       0.98585236504398244        0.0000000000000000     
 PAO|LS| adapt: energies:   -7.7766221822159851       -7.7766379298106196        0.0000000000000000     
 PAO| ======================= Iteration:        32 =============================

     Lanczos converged:  T threshold:   0.100E-02
     Est. extremal eigenvalues:    0.276E+01   0.184E+00
     Est. condition number :    0.150E+02

 Order=           3
     NS sqrt iter    1 1.00000000   0.703E+00       0.001       59.703
     NS sqrt iter    2 1.00000000   0.327E+00       0.001      101.535
[...]
     Est. condition number :    0.131E+02

 Order=           3
     NS sqrt iter    1 1.00000000   0.632E+00       0.001       45.938
     NS sqrt iter    2 1.00000000   0.274E+00       0.001       81.964
     NS sqrt iter    3 1.00000000   0.483E-01       0.001       90.998
     NS sqrt iter    4 1.00000000   0.757E-03       0.001       93.356
     NS sqrt iter    5 1.00000000   0.572E-08       0.001       35.098
     Symmetrizing Results
     Final NS sqrt iter    5 1.00000000   0.340E-09

     Est. extremal eigenvalues     -0.93543     1.63316  converged:  T
     TRS4 it   1 1.00000000   0.884E+00       0.001       16.128   0.100E-07
     TRS4 it   2 1.00000000   0.633E+00       0.001       32.256   0.100E-07
     TRS4 it   3 1.00000000   0.454E+00       0.001       32.256   0.100E-07
     TRS4 it   4 1.00000000   0.277E+00       0.001       32.256   0.100E-07
     TRS4 it   5 1.00000000   0.136E+00       0.001       32.256   0.100E-07
     TRS4 it   6 1.00000000   0.421E-01       0.001       32.256   0.100E-07
     TRS4 it   7 1.00000000   0.555E-02       0.001       32.256   0.100E-07
     TRS4 it   8 1.00000000   0.131E-03       0.001       32.256   0.100E-07
     TRS4 it   9 1.00000000   0.767E-07       0.001       32.256   0.100E-07
     Final TRS4 iteration    9 1.00000000   0.767E-07
     Chemical potential (mu):      -0.07167
 
 PAO| energy:  -7.7759365598475032      penalty:   2.9542693432571468E-008
 PAO|CG| warming up with steepest descent
 PAO|CG| beta:    0.0000000000000000     
 PAO| norm of gradient:   1.3580522820009575E-004
 PAO| energy improvement:  -5.4667470550384678E-009
 PAO| step    408                   -7.775936560  0.849E-05  0.259E+00     0.086
 PAO| converged after          408  steps :-)
 PAO| Recalculating energy after mixing.

     Lanczos converged:  T threshold:   0.100E-02
     Est. extremal eigenvalues:    0.249E+01   0.191E+00
     Est. condition number :    0.131E+02

 Order=           3
     NS sqrt iter    1 1.00000000   0.632E+00       0.001       51.596
     NS sqrt iter    2 1.00000000   0.274E+00       0.001       97.427
     NS sqrt iter    3 1.00000000   0.483E-01       0.001       99.502
     NS sqrt iter    4 1.00000000   0.757E-03       0.001      100.255
     NS sqrt iter    5 1.00000000   0.572E-08       0.001       36.028
     Symmetrizing Results
     Final NS sqrt iter    5 1.00000000   0.340E-09

     Est. extremal eigenvalues     -0.93543     1.63316  converged:  T
     TRS4 it   1 1.00000000   0.884E+00       0.001       16.128   0.100E-07
     TRS4 it   2 1.00000000   0.633E+00       0.001       32.256   0.100E-07
     TRS4 it   3 1.00000000   0.454E+00       0.001       32.256   0.100E-07
     TRS4 it   4 1.00000000   0.277E+00       0.001       32.256   0.100E-07
     TRS4 it   5 1.00000000   0.136E+00       0.001       32.256   0.100E-07
     TRS4 it   6 1.00000000   0.421E-01       0.001       32.256   0.100E-07
     TRS4 it   7 1.00000000   0.555E-02       0.001       32.256   0.100E-07
     TRS4 it   8 1.00000000   0.131E-03       0.001       32.256   0.100E-07
     TRS4 it   9 1.00000000   0.767E-07       0.001       32.256   0.100E-07
     Final TRS4 iteration    9 1.00000000   0.767E-07
     Chemical potential (mu):      -0.07167
 
 PAO| energy:  -7.7759365584807929      penalty:   2.9852908041578240E-008
 PAO| Writing restart file.
     Est. extremal eigenvalues     -0.93543     1.63316  converged:  T
     TRS4 it   1 1.00000000   0.884E+00       0.000       16.128   0.100E-07
     TRS4 it   2 1.00000000   0.633E+00       0.001       32.256   0.100E-07
     TRS4 it   3 1.00000000   0.454E+00       0.001       32.256   0.100E-07
     TRS4 it   4 1.00000000   0.277E+00       0.001       32.256   0.100E-07
     TRS4 it   5 1.00000000   0.136E+00       0.001       32.256   0.100E-07
     TRS4 it   6 1.00000000   0.421E-01       0.001       32.256   0.100E-07
     TRS4 it   7 1.00000000   0.555E-02       0.001       32.256   0.100E-07
     TRS4 it   8 1.00000000   0.131E-03       0.001       32.256   0.100E-07
     TRS4 it   9 1.00000000   0.767E-07       0.001       32.256   0.100E-07
     Final TRS4 iteration    9 1.00000000   0.767E-07
     Chemical potential (mu):      -0.07167

 SCF     1       -34.450123291       -34.450123291    1.862792

*********************************************************
 Using MIXING_FRACTION=0.450 to mix KS matrix:  iscf=  2
 KS_nw=0.450*KS + 0.550*KS_old
*********************************************************
     Est. extremal eigenvalues     -0.93544     1.63317  converged:  T
     TRS4 it   1 1.00000000   0.884E+00       0.000       16.128   0.100E-07
     TRS4 it   2 1.00000000   0.633E+00       0.000       32.256   0.100E-07
     TRS4 it   3 1.00000000   0.454E+00       0.000       32.256   0.100E-07
     TRS4 it   4 1.00000000   0.277E+00       0.000       32.256   0.100E-07
     TRS4 it   5 1.00000000   0.136E+00       0.000       32.256   0.100E-07
     TRS4 it   6 1.00000000   0.421E-01       0.000       32.256   0.100E-07
     TRS4 it   7 1.00000000   0.556E-02       0.000       32.256   0.100E-07
     TRS4 it   8 1.00000000   0.131E-03       0.000       32.256   0.100E-07
     TRS4 it   9 1.00000000   0.767E-07       0.000       32.256   0.100E-07
     Final TRS4 iteration    9 1.00000000   0.767E-07
     Chemical potential (mu):      -0.07167

 SCF     2       -34.450123291        -0.000000000    1.645870


 SCF run converged in     2 steps.

 PAO| Storing density matrix for ASPC guess in slot:           1

 ENERGY| Total FORCE_EVAL ( QS ) energy [a.u.]:              -34.450123290745267

 -------------------------------------------------------------------------------
 -                                                                             -
 -                                DBCSR STATISTICS                             -
 -                                                                             -
 -------------------------------------------------------------------------------
 COUNTER                                    TOTAL       BLAS       SMM       ACC
 flops     5 x     5 x     4                20000       0.0%    100.0%      0.0%
 flops    13 x     5 x     4                20800       0.0%    100.0%      0.0%
 flops     5 x    13 x     4                20800       0.0%    100.0%      0.0%
 flops    13 x    13 x     4                40560       0.0%    100.0%      0.0%
 flops     4 x     4 x     5              3206400       0.0%    100.0%      0.0%
 flops     5 x     4 x     5              3920000       0.0%    100.0%      0.0%
 flops     4 x     4 x    13              4168320       0.0%    100.0%      0.0%
 flops    13 x     4 x     5              5096000       0.0%    100.0%      0.0%
 flops     5 x     4 x    13              5096000       0.0%    100.0%      0.0%
 flops     5 x     4 x     4              6546880       0.0%    100.0%      0.0%
 flops    13 x     4 x    13              6624800       0.0%    100.0%      0.0%
 flops    13 x     4 x     4              8843744       0.0%    100.0%      0.0%
 flops     4 x     4 x     4            408502784       0.0%    100.0%      0.0%
 flops inhomo. stacks                           0       0.0%      0.0%      0.0%
 flops total                       452.107088E+06       0.0%    100.0%      0.0%
 flops max/rank                    452.107088E+06       0.0%    100.0%      0.0%
 matmuls inhomo. stacks                         0       0.0%      0.0%      0.0%
 matmuls total                            3327975       0.0%    100.0%      0.0%
 number of processed stacks                 26599       0.0%    100.0%      0.0%
 average stack size                                     0.0     125.1       0.0
 marketing flops                   733.722432E+06
 -------------------------------------------------------------------------------
 # multiplications                          22104
 max memory usage/rank             505.778176E+06
 # max total images/rank                        1
 # max 3D layers                                1
 # MPI messages exchanged                       0
 -------------------------------------------------------------------------------

 -------------------------------------------------------------------------------
 -                                                                             -
 -                                DBM STATISTICS                               -
 -                                                                             -
 -------------------------------------------------------------------------------
    M  x    N  x    K                                          COUNT     PERCENT
 -------------------------------------------------------------------------------

 -------------------------------------------------------------------------------
 -                                                                             -
 -                                GRID STATISTICS                              -
 -                                                                             -
 -------------------------------------------------------------------------------
 LP    KERNEL             BACKEND                              COUNT     PERCENT
 2     collocate ortho    REF                                  38000      30.75%
 2     integrate ortho    REF                                  38000      30.75%
 3     collocate ortho    REF                                  19560      15.83%
 3     integrate ortho    REF                                  19560      15.83%
 4     collocate ortho    REF                                   4230       3.42%
 4     integrate ortho    REF                                   4230       3.42%
 0     collocate general  REF                                      6       0.00%
 -------------------------------------------------------------------------------

 MEMORY| Estimated peak process memory [MiB]                                 483

 -------------------------------------------------------------------------------
 -                                                                             -
 -                           R E F E R E N C E S                               -
 -                                                                             -
 -------------------------------------------------------------------------------
 
 CP2K version 2023.1 (Development Version), the CP2K developers group (2023).
 CP2K is freely available from https://www.cp2k.org/ .

 Kuehne,Thomas D.; Iannuzzi,Marcella; Del Ben,Mauro;
 Rybkin,Vladimir V.; Seewald,Patrick; Stein,Frederick; Laino,Teodoro;
 Khaliullin,Rustam Z.; Schuett,Ole; Schiffmann,Florian; Golze,Dorothea;
 Wilhelm,Jan; Chulkov,Sergey; Bani-Hashemian,Mohammad Hossein;
 Weber,Valery; Borstnik,Urban; Taillefumier,Mathieu;
 Jakobovits,Alice Shoshana; Lazzaro,Alfio; Pabst,Hans; Mueller,Tiziano;
 Schade,Robert; Guidon,Manuel; Andermatt,Samuel; Holmberg,Nico;
 Schenter,Gregory K.; Hehn,Anna; Bussy,Augustin; Belleflamme,Fabian;
 Tabacchi,Gloria; Gloess,Andreas; Lass,Michael; Bethune,Iain;
 Mundy,Christopher J.; Plessl,Christian; Watkins,Matt;
 VandeVondele,Joost; Krack,Matthias; Hutter,Juerg. 
 The Journal of Chemical Physics, 152 (19), (2020). 
 CP2K: An electronic structure and molecular dynamics software package -
 Quickstep: Efficient and accurate electronic structure calculations.
 https://doi.org/10.1063/5.0007045

 Schuett, O; VandeVondele, J. 
 Journal of Chemical Theory and Computation, 14, (2018). 
 Machine Learning Adaptive Basis Sets for Efficient Large Scale
 Density Functional Theory Simulation.
 https://doi.org/10.1021/acs.jctc.8b00378

 Schuett, Ole; Messmer, Peter; Hutter, Juerg; VandeVondele, Joost. 
 Electronic Structure Calculations on Graphics Processing Units, John
 Wiley & Sons, Ltd, 173-190 (2016). 
 GPU-Accelerated Sparse Matrix-Matrix Multiplication for
 Linear Scaling Density Functional Theory.
 https://doi.org/10.1002/9781118670712.ch8

 Heinecke, A; Henry, G; Hutchinson, M; Pabst, H. 
 Proceedings of Intl. Supercomputing Conference, 981-991 (2016). 
 LIBXSMM: Accelerating Small Matrix Multiplications
 by Runtime Code Generation.
 https://doi.org/10.1109/SC.2016.83

 Borstnik, U; VandeVondele, J; Weber, V; Hutter, J. 
 PARALLEL COMPUTING, 40 (5-6), 47-58 (2014). 
 Sparse matrix multiplication: The distributed block-compressed sparse
 row library.
 https://doi.org/10.1016/j.parco.2014.03.012

 Hutter, J; Iannuzzi, M; Schiffmann, F; VandeVondele, J. 
 WIREs Comput Mol Sci., 4 (1), 15-25 (2014). 
 CP2K: atomistic simulations of condensed matter systems.
 https://doi.org/10.1002/wcms.1159

 VandeVondele, J; Borstnik, U; Hutter, J. 
 JOURNAL OF CHEMICAL THEORY AND COMPUTATION, 8 (10), 3565-3573 (2012). 
 Linear Scaling Self-Consistent Field Calculations with Millions of Atoms
 in the Condensed Phase.
 https://doi.org/10.1021/ct200897x

 VandeVondele, J; Hutter, J. 
 JOURNAL OF CHEMICAL PHYSICS, 127 (11), 114105 (2007). 
 Gaussian basis sets for accurate calculations on molecular systems in
 gas and condensed phases.
 https://doi.org/10.1063/1.2770708

 Krack, M. 
 THEORETICAL CHEMISTRY ACCOUNTS, 114 (1-3), 145-152 (2005). 
 Pseudopotentials for H to Kr optimized for gradient-corrected
 exchange-correlation functionals.
 https://doi.org/10.1007/s00214-005-0655-y

 VandeVondele, J; Krack, M; Mohamed, F; Parrinello, M; Chassaing, T;
 Hutter, J. COMPUTER PHYSICS COMMUNICATIONS, 167 (2), 103-128 (2005). 
 QUICKSTEP: Fast and accurate density functional calculations using a
 mixed Gaussian and plane waves approach.
 https://doi.org/10.1016/j.cpc.2004.12.014

 Frigo, M; Johnson, SG. 
 PROCEEDINGS OF THE IEEE, 93 (2), 216-231 (2005). 
 The design and implementation of FFTW3.
 https://doi.org/10.1109/JPROC.2004.840301

 Niklasson, AMN; Tymczak, CJ; Challacombe, M. 
 JOURNAL OF CHEMICAL PHYSICS, 118 (19), 8611-8620 (2003). 
 Trace resetting density matrix purification in O(N)
 self-consistent-field theory.
 https://doi.org/10.1063/1.1559913

 Hartwigsen, C; Goedecker, S; Hutter, J. 
 PHYSICAL REVIEW B, 58 (7), 3641-3662 (1998). 
 Relativistic separable dual-space Gaussian pseudopotentials from H to Rn.
 https://doi.org/10.1103/PhysRevB.58.3641

 Lippert, G; Hutter, J; Parrinello, M. 
 MOLECULAR PHYSICS, 92 (3), 477-487 (1997). 
 A hybrid Gaussian and plane wave density functional scheme.
 https://doi.org/10.1080/002689797170220

 Perdew, JP; Burke, K; Ernzerhof, M. 
 PHYSICAL REVIEW LETTERS, 77 (18), 3865-3868 (1996). 
 Generalized gradient approximation made simple.
 https://doi.org/10.1103/PhysRevLett.77.3865

 Goedecker, S; Teter, M; Hutter, J. 
 PHYSICAL REVIEW B, 54 (3), 1703-1710 (1996). 
 Separable dual-space Gaussian pseudopotentials.
 https://doi.org/10.1103/PhysRevB.54.1703


 -------------------------------------------------------------------------------
 -                                                                             -
 -                                T I M I N G                                  -
 -                                                                             -
 -------------------------------------------------------------------------------
 SUBROUTINE                       CALLS  ASD         SELF TIME        TOTAL TIME
                                MAXIMUM       AVERAGE  MAXIMUM  AVERAGE  MAXIMUM
 CP2K                                 1  1.0    0.014    0.014   38.111   38.111
 qs_energies                          1  2.0    0.000    0.000   37.474   37.474
 ls_scf                               1  3.0    0.000    0.000   37.230   37.230
 ls_scf_main                          4  4.0    0.001    0.001   25.523   25.523
 ls_scf_dm_to_ks                      9  5.0    0.000    0.000   25.440   25.440
 qs_ks_update_qs_env                 10  6.0    0.000    0.000   22.561   22.561
 rebuild_ks_matrix                   10  7.0    0.000    0.000   22.560   22.560
 qs_ks_build_kohn_sham_matrix        10  8.0    0.004    0.004   22.560   22.560
 qs_vxc_create                       10  9.0    0.000    0.000   13.429   13.429
 xc_vxc_pw_create                    10 10.0    0.209    0.209   13.429   13.429
 pw_transfer                        191 11.1    0.034    0.034   11.838   11.838
 fft_wrap_pw1pw2                    171 12.3    0.005    0.005   11.502   11.502
 fft_wrap_pw1pw2_200                111 13.7    1.133    1.133   11.002   11.002
 xc_rho_set_and_dset_create          10 11.0    0.264    0.264    8.026    8.026
 pao_update                           4  4.0    0.008    0.008    7.970    7.970
 xc_pw_derive                        60 12.0    0.001    0.001    7.886    7.886
 pao_calc_energy                    411  5.0    0.003    0.003    7.203    7.203
 sum_up_and_integrate                10  9.0    0.208    0.208    7.092    7.092
 integrate_v_rspace                  10 10.0    0.001    0.001    6.884    6.884
 qs_rho_update_rho_low               10  6.0    0.000    0.000    6.562    6.562
 calculate_rho_elec                  10  7.0    0.044    0.044    6.562    6.562
 dbcsr_multiply_generic           22104  8.4    0.356    0.356    5.732    5.732
 grid_integrate_task_list            10 11.0    5.168    5.168    5.168    5.168
 fft3d_s                            172 14.2    5.086    5.086    5.122    5.122
 xc_pw_divergence                    10 11.0    0.001    0.001    5.023    5.023
 grid_collocate_task_list            10  8.0    4.141    4.141    4.141    4.141
 pao_dm_trs4                        411  6.0    0.002    0.002    3.705    3.705
 pao_guess_initial_P                  1  4.0    0.000    0.000    3.689    3.689
 pao_read_preopt_dm                   1  5.0    0.000    0.000    3.689    3.689
 density_matrix_trs4                420  7.0    0.116    0.116    3.562    3.562
 ls_scf_init_matrix_S               415  7.0    0.003    0.003    3.480    3.480
 pao_rebuild_S                      411  6.0    0.001    0.001    3.446    3.446
 xc_functional_eval                  10 12.0    0.000    0.000    3.220    3.220
 pbe_lda_eval                        10 13.0    3.219    3.219    3.219    3.219
 matrix_sqrt_Newton_Schulz          415  8.0    0.077    0.077    3.145    3.145
 pw_scatter_s                        90 14.7    2.670    2.670    2.670    2.670
 pw_gather_s                         81 13.8    2.525    2.525    2.525    2.525
 density_rs2pw                       10  8.0    0.001    0.001    2.378    2.378
 make_m2s                         44208  9.4    0.138    0.138    2.150    2.150
 multiply_cannon                  22104  9.4    0.885    0.885    2.142    2.142
 make_images                      44208 10.4    0.531    0.531    1.905    1.905
 potential_pw2rs                     10 11.0    0.006    0.006    1.715    1.715
 pw_derive                           60 13.0    1.501    1.501    1.501    1.501
 arnoldi_extremal                   835  8.5    0.003    0.003    1.147    1.147
 arnoldi_normal_ev                  835  9.5    0.009    0.009    1.144    1.144
 pw_copy                            120 11.8    1.091    1.091    1.091    1.091
 build_subspace                     835 10.5    0.047    0.047    0.896    0.896
 dbcsr_matrix_vector_mult         19965 11.5    0.095    0.095    0.830    0.830
 pw_poisson_solve                    10  9.0    0.138    0.138    0.802    0.802
 -------------------------------------------------------------------------------

 The number of warnings for this run is : 0
 
 -------------------------------------------------------------------------------
  **** **** ******  **  PROGRAM ENDED AT                 2023-02-01 10:44:33.324
 ***** ** ***  *** **   PROGRAM RAN ON                                    moritz
 **    ****   ******    PROGRAM RAN BY                                       ole
 ***** **    ** ** **   PROGRAM PROCESS ID                                148498
  **** **  *******  **  PROGRAM STOPPED IN /home/ole/git/pao_ml_equivar/2H2O_rot
                                           ations/rand_05
