6
Properties=species:S:1:pos:R:3 i=0 time=0.0 E=-34.4504806384 pbc="F F F"
O      -0.05041514      -3.92398667       5.23782380 
H      -0.91625643      -3.50480873       5.19426098 
H       0.32671432      -3.82678779       4.35779270 
O       1.66238277      -2.44844492       7.20967518 
H       1.97319053      -3.03952279       7.90115944 
H       1.12234908      -3.00000981       6.62267536 
