 DBCSR| CPU Multiplication driver                                           XSMM (U)
 DBCSR| Multrec recursion limit                                              512 (U)
 DBCSR| Multiplication stack size                                           1000 (D)
 DBCSR| Maximum elements for images                                    UNLIMITED (U)
 DBCSR| Multiplicative factor virtual images                                   1 (U)
 DBCSR| Use multiplication densification                                       T (D)
 DBCSR| Multiplication size stacks                                             3 (U)
 DBCSR| Use memory pool for CPU allocation                                     F (U)
 DBCSR| Number of 3D layers                                               SINGLE (U)
 DBCSR| Use MPI memory allocation                                              F (U)
 DBCSR| Use RMA algorithm                                                      F (U)
 DBCSR| Use Communication thread                                               T (U)
 DBCSR| Communication thread load                                             87 (D)
 DBCSR| MPI: My process id                                                     0
 DBCSR| MPI: Number of processes                                              32
 DBCSR| OMP: Current number of threads                                         1
 DBCSR| OMP: Max number of threads                                             1
 DBCSR| Split modifier for TAS multiplication algorithm                  1.0E+00 (U)


  **** **** ******  **  PROGRAM STARTED AT               2024-09-24 05:50:10.983
 ***** ** ***  *** **   PROGRAM STARTED ON                                moritz
 **    ****   ******    PROGRAM STARTED BY                                   ole
 ***** **    ** ** **   PROGRAM PROCESS ID                                169766
  **** **  *******  **  PROGRAM STARTED IN /home/ole/git/pao_ml_equivar/64H2O_MD
                                           /Frame6100

 CP2K| version string:                 CP2K version 2024.3 (Development Version)
 CP2K| source code revision number:                                  git:3f890bb
 CP2K| cp2kflags: omp libint fftw3 libxc libgrpp pexsi elpa parallel scalapack c
 CP2K|            osma quip deepmd xsmm plumed2 spglib libdftd4 sirius libvori l
 CP2K|            libbqb libvdwxc hdf5
 CP2K| is freely available from                            https://www.cp2k.org/
 CP2K| Program compiled at                          Mo 23 Sep 2024 17:17:04 CEST
 CP2K| Program compiled on                                                moritz
 CP2K| Program compiled for                                                local
 CP2K| Data directory path                               /home/ole/git/cp2k/data
 CP2K| Input file name                                           64H2O_pao44.inp

 GLOBAL| Force Environment number                                              1
 GLOBAL| Basis set file name                                        BASIS_MOLOPT
 GLOBAL| Potential file name                                      GTH_POTENTIALS
 GLOBAL| MM Potential file name                                     MM_POTENTIAL
 GLOBAL| Coordinate file name                                         coords.xyz
 GLOBAL| Method name                                                        CP2K
 GLOBAL| Project name                                                64H2O_pao44
 GLOBAL| Run type                                                         ENERGY
 GLOBAL| FFT library                                                       FFTW3
 GLOBAL| Diagonalization library                                            ELPA
 GLOBAL| DGEMM library                                                      BLAS
 GLOBAL| Minimum number of eigenvectors for ELPA usage                        16
 GLOBAL| Orthonormality check for eigenvectors                          DISABLED
 GLOBAL| Matrix multiplication library                                     COSMA
 GLOBAL| All-to-all communication in single precision                          F
 GLOBAL| FFTs using library dependent lengths                                  F
 GLOBAL| Grid backend                                                       AUTO
 GLOBAL| Global print level                                                  LOW
 GLOBAL| MPI I/O enabled                                                       T
 GLOBAL| Total number of message passing processes                            32
 GLOBAL| Number of threads for this process                                    1
 GLOBAL| This output is from process                                           0
 GLOBAL| Stack size for threads created by OpenMP (OMP_STACKSIZE)        default
 GLOBAL| CPU model name           AMD Ryzen Threadripper 3970X 32-Core Processor
 GLOBAL| CPUID                                                              1002

 MEMORY| system memory details [Kb]
 MEMORY|                        rank 0           min           max       average
 MEMORY| MemTotal            131752136     131752136     131752136     131752136
 MEMORY| MemFree             114265812     114265812     114265812     114265812
 MEMORY| Buffers               2026772       2026772       2026772       2026772
 MEMORY| Cached                8717992       8717988       8717992       8717988
 MEMORY| Slab                  1643216       1643216       1643216       1643216
 MEMORY| SReclaimable          1146100       1146100       1146100       1146100
 MEMORY| MemLikelyFree       126156676     126156672     126156676     126156672


 GENERATE|  Preliminary Number of Bonds generated:                             0
 GENERATE|  Achieved consistency in connectivity generation.

 *******************************************************************************
 *******************************************************************************
 **                                                                           **
 **     #####                         ##              ##                      **
 **    ##   ##            ##          ##              ##                      **
 **   ##     ##                       ##            ######                    **
 **   ##     ##  ##   ##  ##   #####  ##  ##   ####   ##    #####    #####    **
 **   ##     ##  ##   ##  ##  ##      ## ##   ##      ##   ##   ##  ##   ##   **
 **   ##  ## ##  ##   ##  ##  ##      ####     ###    ##   ######   ######    **
 **    ##  ###   ##   ##  ##  ##      ## ##      ##   ##   ##       ##        **
 **     #######   #####   ##   #####  ##  ##  ####    ##    #####   ##        **
 **           ##                                                    ##        **
 **                                                                           **
 **                                                ... make the atoms dance   **
 **                                                                           **
 **            Copyright (C) by CP2K developers group (2000-2024)             **
 **                      J. Chem. Phys. 152, 194103 (2020)                    **
 **                                                                           **
 *******************************************************************************


 TOTAL NUMBERS AND MAXIMUM NUMBERS

  Total number of            - Atomic kinds:                                   2
                             - Atoms:                                        192
                             - Shell sets:                                   192
                             - Shells:                                       704
                             - Primitive Cartesian functions:               1344
                             - Cartesian basis functions:                   1536
                             - Spherical basis functions:                   1472

  Maximum angular momentum of- Orbital basis functions:                        2
                             - Local part of the GTH pseudopotential:          2
                             - Non-local part of the GTH pseudopotential:      0

 ------------------------------ Linear scaling SCF -----------------------------
 eps_scf:                                                              0.100E-07
 eps_filter:                                                           0.100E-11
 mixing_fraction:                                                      0.450E+00
 max_scf:                                                                     25
 fixed chemical potential (mu)                                                 F
 has unit metric:                                                              F
 Computing inv(S):                                                             T
 Computing sqrt(S):                                                            T
 Computing S preconditioner                                                    F
 S sqrt method:                                                     NEWTONSCHULZ
 S sqrt order:                                                                 3
 Extrapolation order:                                                          1
 S preconditioner type                                                      NONE
 Polarized Atomic Orbitals (PAO)                                               T
 Purification method                                   Trace resetting 4th order
 Cluster type                                                             ATOMIC
 Computing Chebyshev                                                       FALSE
 Using PAO                                                                     T
 -------------------------------------------------------------------------------

 
 PAO|                                  EPS_PAO                           0.5E-06
 PAO|                                  MIXING                            0.5E+00
 PAO|                                  MAX_PAO                              1500
 PAO|                                  MAX_CYCLES                           1000
 PAO|                                  PARAMETERIZATION              EQUIVARIANT
 PAO|                                  PRECONDITION                            F
 PAO|                                  REGULARIZATION                    0.0E+00
 PAO|                                  EPS_PGF                           0.1E-09
 PAO|                                  PENALTY_DISTANCE                  0.1E+00
 PAO|                                  PENALTY_STRENGTH                  0.5E-02
 PAO|                                  LINPOT_PRECONDITION_DELTA         0.0E+00
 PAO|                                  LINPOT_INITGUESS_DELT             0.0E+00
 PAO|                                  LINPOT_REGULARIZATION_DELTA       0.0E+00
 PAO|                                  LINPOT_REGULARIZATION_STRENGTH    0.0E+00
 PAO|                                  OPTIMIZER                              CG
 PAO|                                  CG_INIT_STEPS                           2
 PAO|                                  CG_RESET_LIMIT                    0.1E+00
 PAO|                                  CHECK_UNITARY_TOL                -0.1E+01
 PAO|                                  CHECK_GRADIENT_TOL               -0.1E+01
 PAO|                                  NUM_GRADIENT_ORDER                      2
 PAO|                                  NUM_GRADIENT_EPS                  0.1E-07
 PAO|                                  PRINT%RESTART%WRITE_CYCLES            100
 PAO|                                  RESTART_FILE 
 PAO|                                  PREOPT_DM_FILE 64H2O_ref_LS_DM_SPIN_1_RESTART.dm
 PAO|                                  MACHINE_LEARNING%METHOD       GAUSSIAN_PR
 PAO|                                  MACHINE_LEARNING%PRIOR               ZERO
 PAO|                                  MACHINE_LEARNING%DESCRIPTOR     POTENTIAL
 PAO|                                  MACHINE_LEARNING%TOLERANCE        0.1E-01
 PAO|                                  MACHINE_LEARNING%GP_NOISE_VAR     0.1E+00
 PAO|                                  MACHINE_LEARNING%GP_SCALE         0.5E-01
 

 Calculating atomic Fock matrix for atomic kind: O

 Electronic structure
    Total number of core electrons                                          2.00
    Total number of valence electrons                                       6.00
    Total number of electrons                                               8.00
    Multiplicity                                                   not specified
    S   [  2.00] 2.00
    P      4.00


 *******************************************************************************
                  Iteration          Convergence                     Energy [au]
 *******************************************************************************
                          1        0.708315                     -15.576645311500
                          2        0.608879                     -15.587933561584
                          3        0.102828E-01                 -15.656849565404
                          4        0.113889E-02                 -15.656866888140
                          5        0.434197E-03                 -15.656867072159
                          6        0.263771E-03                 -15.656867091904
                          7        0.478536E-06                 -15.656867103452

 Energy components [Hartree]           Total Energy ::          -15.656867103452
                                        Band Energy ::           -3.000198112285
                                     Kinetic Energy ::           11.759971203220
                                   Potential Energy ::          -27.416838306672
                                      Virial (-V/T) ::            2.331369510426
                                        Core Energy ::          -26.140716385623
                                          XC Energy ::           -3.154051012914
                                     Coulomb Energy ::           13.637900295084
                       Total Pseudopotential Energy ::          -37.935781716540
                       Local Pseudopotential Energy ::          -39.218907440693
                    Nonlocal Pseudopotential Energy ::            1.283125724153
                                        Confinement ::            0.350941276976

 Orbital energies  State     L     Occupation   Energy[a.u.]          Energy[eV]

                       1     0          2.000      -0.864471          -23.523463

                       1     1          4.000      -0.317814           -8.648154


 Total Electron Density at R=0:                                         0.000068

 Calculating atomic Fock matrix for atomic kind: H

 Electronic structure
    Total number of core electrons                                          0.00
    Total number of valence electrons                                       1.00
    Total number of electrons                                               1.00
    Multiplicity                                                   not specified
    S      1.00


 *******************************************************************************
                  Iteration          Convergence                     Energy [au]
 *******************************************************************************
                          1        0.437545E-02                  -0.424159432110
                          2        0.531356E-03                  -0.424178438213
                          3        0.259176E-06                  -0.424178722480

 Energy components [Hartree]           Total Energy ::           -0.424178722480
                                        Band Energy ::           -0.199015229016
                                     Kinetic Energy ::            0.464007633961
                                   Potential Energy ::           -0.888186356441
                                      Virial (-V/T) ::            1.914163240935
                                        Core Energy ::           -0.479160803564
                                          XC Energy ::           -0.244352904054
                                     Coulomb Energy ::            0.299334985138
                       Total Pseudopotential Energy ::           -0.962295316385
                       Local Pseudopotential Energy ::           -0.962295316385
                    Nonlocal Pseudopotential Energy ::            0.000000000000
                                        Confinement ::            0.191268788606

 Orbital energies  State     L     Occupation   Energy[a.u.]          Energy[eV]

                       1     0          1.000      -0.199015           -5.415480


 Total Electron Density at R=0:                                         0.242907
 PAO| Made initial guess for matrix_X with norm:   27.712812921102035     

     Lanczos converged:  F threshold:   0.100E-02
     Est. extremal eigenvalues:    0.612E+01   0.937E-01
     Est. condition number :    0.654E+02

 Order=           3
     NS sqrt iter    1 1.00000000   0.150E+01       0.021     2742.675
     NS sqrt iter    2 1.00000000   0.813E+00       0.033     3428.590
     NS sqrt iter    3 1.00000000   0.328E+00       0.033     3401.480
     NS sqrt iter    4 1.00000000   0.917E-01       0.033     3429.749
     NS sqrt iter    5 1.00000000   0.327E-02       0.033     3462.144
     NS sqrt iter    6 1.00000000   0.261E-06       0.028     3024.350
     Symmetrizing Results
     Final NS sqrt iter    6 1.00000000   0.115E-12

 PAO| Read restart DM 64H2O_ref_LS_DM_SPIN_1_RESTART.dm with checksum:    6055.9604042115643     
 PAO| Quickstep energy from restart density:  -1103.1092645879194     
 PAO| ======================= Iteration:         1 =============================

     Lanczos converged:  F threshold:   0.100E-02
     Est. extremal eigenvalues:    0.612E+01   0.937E-01
     Est. condition number :    0.654E+02

 Order=           3
     NS sqrt iter    1 1.00000000   0.150E+01       0.021     2755.900
     NS sqrt iter    2 1.00000000   0.813E+00       0.033     3444.082
     NS sqrt iter    3 1.00000000   0.328E+00       0.033     3432.255
     NS sqrt iter    4 1.00000000   0.917E-01       0.033     3452.000
     NS sqrt iter    5 1.00000000   0.327E-02       0.033     3438.284
     NS sqrt iter    6 1.00000000   0.261E-06       0.028     3025.674
     Symmetrizing Results
     Final NS sqrt iter    6 1.00000000   0.115E-12

     Est. extremal eigenvalues     -0.83363     2.62661  converged:  T
     TRS4 it   1 1.00000000   0.274E+02       0.007     2187.642   0.100E-11
     TRS4 it   2 1.00000000   0.237E+02       0.013     2265.019   0.100E-11
     TRS4 it   3 1.00000000   0.162E+02       0.013     2249.472   0.100E-11
     TRS4 it   4 1.00000000   0.102E+02       0.013     2270.548   0.100E-11
     TRS4 it   5 1.00000000   0.500E+01       0.013     2251.978   0.100E-11
     TRS4 it   6 1.00000000   0.171E+01       0.012     2288.801   0.100E-11
     TRS4 it   7 1.00000000   0.355E+00       0.012     2282.437   0.100E-11
     TRS4 it   8 1.00000000   0.291E-01       0.013     2263.831   0.100E-11
     TRS4 it   9 1.00000000   0.378E-03       0.013     2274.257   0.100E-11
     TRS4 it  10 1.00000000   0.977E-07       0.013     2262.647   0.100E-11
     TRS4 it  11 1.00000000   0.355E-14       0.012     2277.507   0.100E-11
     Final TRS4 iteration   11 1.00000000   0.355E-14
     Chemical potential (mu):       0.01012
 
 PAO| energy:  -187.19713886983470      penalty:   1.4144029511579860E-031
 PAO|CG| warming up with steepest descent
 PAO|CG| beta:    0.0000000000000000     
 PAO| norm of gradient:   4.0266617383142247     
 PAO|LS| adapt:  T F F
 PAO|LS| adapt: scan_steps:    0.0000000000000000        0.0000000000000000        0.0000000000000000     
 PAO|LS| adapt: energies:   -187.19713886983470        0.0000000000000000        0.0000000000000000     
 PAO| ======================= Iteration:         2 =============================

     Lanczos converged:  F threshold:   0.100E-02
     Est. extremal eigenvalues:    0.591E+01   0.101E+00
     Est. condition number :    0.586E+02

 Order=           3
     NS sqrt iter    1 1.00000000   0.145E+01       0.021     2732.290
     NS sqrt iter    2 1.00000000   0.784E+00       0.033     3415.098
     NS sqrt iter    3 1.00000000   0.308E+00       0.033     3448.981
     NS sqrt iter    4 1.00000000   0.770E-01       0.033     3434.807
     NS sqrt iter    5 1.00000000   0.202E-02       0.033     3437.315
     NS sqrt iter    6 1.00000000   0.734E-07       0.028     2997.243
     Symmetrizing Results
     Final NS sqrt iter    6 1.00000000   0.123E-13

     Est. extremal eigenvalues     -0.83720     2.62687  converged:  T
     TRS4 it   1 1.00000000   0.277E+02       0.007     2174.797   0.100E-11
     TRS4 it   2 1.00000000   0.237E+02       0.013     2258.184   0.100E-11
     TRS4 it   3 1.00000000   0.161E+02       0.013     2255.617   0.100E-11
     TRS4 it   4 1.00000000   0.100E+02       0.012     2277.666   0.100E-11
     TRS4 it   5 1.00000000   0.478E+01       0.013     2256.402   0.100E-11
     TRS4 it   6 1.00000000   0.157E+01       0.012     2278.880   0.100E-11
     TRS4 it   7 1.00000000   0.305E+00       0.012     2292.403   0.100E-11
     TRS4 it   8 1.00000000   0.212E-01       0.013     2267.047   0.100E-11
     TRS4 it   9 1.00000000   0.185E-03       0.013     2256.789   0.100E-11
     TRS4 it  10 1.00000000   0.262E-07       0.013     2274.451   0.100E-11
     TRS4 it  11 1.00000000   0.888E-14       0.013     2250.431   0.100E-11
     Final TRS4 iteration   11 1.00000000   0.888E-14
     Chemical potential (mu):       0.01616
 
 PAO| energy:  -188.68266257614721      penalty:   4.8851337409658111E-007
 PAO|LS| adapt:  T T F
 PAO|LS| adapt: scan_steps:    0.0000000000000000       0.10000000000000001        0.0000000000000000     
 PAO|LS| adapt: energies:   -187.19713886983470       -188.68266257614721        0.0000000000000000     
 PAO| ======================= Iteration:         3 =============================

     Lanczos converged:  F threshold:   0.100E-02
     Est. extremal eigenvalues:    0.570E+01   0.106E+00
     Est. condition number :    0.537E+02

 Order=           3
     NS sqrt iter    1 1.00000000   0.141E+01       0.021     2732.363
     NS sqrt iter    2 1.00000000   0.755E+00       0.033     3445.123
     NS sqrt iter    3 1.00000000   0.288E+00       0.033     3393.636
     NS sqrt iter    4 1.00000000   0.644E-01       0.033     3450.648
     NS sqrt iter    5 1.00000000   0.127E-02       0.033     3447.226
     NS sqrt iter    6 1.00000000   0.222E-07       0.028     3011.003
     Symmetrizing Results
     Final NS sqrt iter    6 1.00000000   0.302E-14

     Est. extremal eigenvalues     -0.84050     2.62868  converged:  T
     TRS4 it   1 1.00000000   0.279E+02       0.006     2191.061   0.100E-11
     TRS4 it   2 1.00000000   0.238E+02       0.013     2250.751   0.100E-11
     TRS4 it   3 1.00000000   0.160E+02       0.013     2251.143   0.100E-11
     TRS4 it   4 1.00000000   0.983E+01       0.012     2284.911   0.100E-11
     TRS4 it   5 1.00000000   0.457E+01       0.013     2252.550   0.100E-11
     TRS4 it   6 1.00000000   0.144E+01       0.013     2255.206   0.100E-11
     TRS4 it   7 1.00000000   0.260E+00       0.013     2272.405   0.100E-11
     TRS4 it   8 1.00000000   0.150E-01       0.013     2235.378   0.100E-11
     TRS4 it   9 1.00000000   0.841E-04       0.013     2247.441   0.100E-11
     TRS4 it  10 1.00000000   0.612E-08       0.013     2265.217   0.100E-11
     TRS4 it  11 1.00000000   0.888E-14       0.012     2280.206   0.100E-11
     Final TRS4 iteration   11 1.00000000   0.888E-14
     Chemical potential (mu):       0.02304
 
 PAO| energy:  -189.88001443280785      penalty:   7.8162139855939937E-006
 PAO|LS| adapt:  T T F
 PAO|LS| adapt: scan_steps:    0.0000000000000000       0.20000000000000001        0.0000000000000000     
 PAO|LS| adapt: energies:   -187.19713886983470       -189.88001443280785        0.0000000000000000     
 PAO| ======================= Iteration:         4 =============================

     Lanczos converged:  F threshold:   0.100E-02
     Est. extremal eigenvalues:    0.529E+01   0.115E+00
     Est. condition number :    0.459E+02

 Order=           3
     NS sqrt iter    1 1.00000000   0.133E+01       0.021     2760.394
     NS sqrt iter    2 1.00000000   0.700E+00       0.033     3458.462
     NS sqrt iter    3 1.00000000   0.250E+00       0.033     3420.771
     NS sqrt iter    4 1.00000000   0.449E-01       0.033     3448.141
     NS sqrt iter    5 1.00000000   0.518E-03       0.033     3443.231
     NS sqrt iter    6 1.00000000   0.207E-08       0.028     2939.212
     Symmetrizing Results
     Final NS sqrt iter    6 1.00000000   0.150E-13

     Est. extremal eigenvalues     -0.84567     2.63326  converged:  T
     TRS4 it   1 1.00000000   0.284E+02       0.007     2184.194   0.100E-11
     TRS4 it   2 1.00000000   0.238E+02       0.013     2270.206   0.100E-11
     TRS4 it   3 1.00000000   0.158E+02       0.013     2264.076   0.100E-11
     TRS4 it   4 1.00000000   0.949E+01       0.012     2278.277   0.100E-11
     TRS4 it   5 1.00000000   0.421E+01       0.012     2303.887   0.100E-11
     TRS4 it   6 1.00000000   0.121E+01       0.013     2264.815   0.100E-11
     TRS4 it   7 1.00000000   0.187E+00       0.012     2297.103   0.100E-11
     TRS4 it   8 1.00000000   0.722E-02       0.013     2268.120   0.100E-11
     TRS4 it   9 1.00000000   0.164E-04       0.012     2287.033   0.100E-11
     TRS4 it  10 1.00000000   0.263E-09       0.012     2280.102   0.100E-11
     TRS4 it  11 1.00000000   0.711E-14       0.013     2256.004   0.100E-11
     Final TRS4 iteration   11 1.00000000   0.711E-14
     Chemical potential (mu):       0.03871
 
 PAO| energy:  -191.36868164689071      penalty:   1.2505942376989394E-004
 PAO|LS| Need extra step
 PAO|LS| adapt:  T T F
 PAO|LS| adapt: scan_steps:    0.0000000000000000       0.40000000000000002        0.0000000000000000     
 PAO|LS| adapt: energies:   -187.19713886983470       -191.36868164689071        0.0000000000000000     
 PAO| ======================= Iteration:         5 =============================

     Lanczos converged:  T threshold:   0.100E-02
     Est. extremal eigenvalues:    0.462E+01   0.129E+00
     Est. condition number :    0.358E+02

 Order=           3
     NS sqrt iter    1 1.00000000   0.120E+01       0.021     2731.230
     NS sqrt iter    2 1.00000000   0.609E+00       0.033     3455.411
     NS sqrt iter    3 1.00000000   0.192E+00       0.033     3455.590
     NS sqrt iter    4 1.00000000   0.232E-01       0.033     3450.719
     NS sqrt iter    5 1.00000000   0.956E-04       0.033     3473.181
     NS sqrt iter    6 1.00000000   0.194E-10       0.017     2233.872
     Symmetrizing Results
     Final NS sqrt iter    6 1.00000000   0.202E-11

     Est. extremal eigenvalues     -0.84814     2.63337  converged:  T
     TRS4 it   1 1.00000000   0.290E+02       0.007     2170.094   0.100E-11
     TRS4 it   2 1.00000000   0.238E+02       0.013     2268.809   0.100E-11
     TRS4 it   3 1.00000000   0.156E+02       0.013     2258.910   0.100E-11
     TRS4 it   4 1.00000000   0.899E+01       0.012     2294.740   0.100E-11
     TRS4 it   5 1.00000000   0.367E+01       0.012     2292.215   0.100E-11
     TRS4 it   6 1.00000000   0.909E+00       0.013     2268.637   0.100E-11
     TRS4 it   7 1.00000000   0.104E+00       0.013     2275.890   0.100E-11
     TRS4 it   8 1.00000000   0.206E-02       0.013     2242.160   0.100E-11
     TRS4 it   9 1.00000000   0.126E-05       0.012     2285.223   0.100E-11
     TRS4 it  10 1.00000000   0.160E-11       0.013     2244.002   0.100E-11
     Final TRS4 iteration   10 1.00000000   0.160E-11
     Chemical potential (mu):       0.06386
 
 PAO| energy:  -190.85942859025340      penalty:   2.0009507803214165E-003
 PAO|LS| Need extra step
 PAO|LS| adapt:  T T T
 PAO|LS| adapt: scan_steps:    0.0000000000000000       0.40000000000000002       0.80000000000000004     
 PAO|LS| adapt: energies:   -187.19713886983470       -191.36868164689071       -190.85942859025340     
 PAO|LS| adapt: suggested step_size:   0.55648149804171332     
 PAO|LS| adapt: predicted energy  -191.72685701046188     
 PAO| ======================= Iteration:         6 =============================

     Lanczos converged:  F threshold:   0.100E-02
     Est. extremal eigenvalues:    0.499E+01   0.121E+00
     Est. condition number :    0.414E+02

 Order=           3
     NS sqrt iter    1 1.00000000   0.127E+01       0.021     2756.819
     NS sqrt iter    2 1.00000000   0.660E+00       0.033     3458.553
     NS sqrt iter    3 1.00000000   0.224E+00       0.033     3437.735
     NS sqrt iter    4 1.00000000   0.342E-01       0.033     3433.115
     NS sqrt iter    5 1.00000000   0.261E-03       0.033     3450.378
     NS sqrt iter    6 1.00000000   0.321E-09       0.027     2764.114
     Symmetrizing Results
     Final NS sqrt iter    6 1.00000000   0.425E-12

     Est. extremal eigenvalues     -0.84798     2.63488  converged:  T
     TRS4 it   1 1.00000000   0.286E+02       0.006     2209.525   0.100E-11
     TRS4 it   2 1.00000000   0.238E+02       0.013     2270.720   0.100E-11
     TRS4 it   3 1.00000000   0.157E+02       0.013     2247.988   0.100E-11
     TRS4 it   4 1.00000000   0.927E+01       0.012     2279.704   0.100E-11
     TRS4 it   5 1.00000000   0.397E+01       0.012     2296.812   0.100E-11
     TRS4 it   6 1.00000000   0.107E+01       0.013     2259.356   0.100E-11
     TRS4 it   7 1.00000000   0.146E+00       0.013     2262.618   0.100E-11
     TRS4 it   8 1.00000000   0.419E-02       0.012     2291.027   0.100E-11
     TRS4 it   9 1.00000000   0.520E-05       0.012     2279.700   0.100E-11
     TRS4 it  10 1.00000000   0.264E-10       0.013     2269.798   0.100E-11
     Final TRS4 iteration   10 1.00000000   0.264E-10
     Chemical potential (mu):       0.05130
 
 PAO| energy:  -191.70012299425548      penalty:   4.6846740150869578E-004
 PAO|CG| warming up with steepest descent
 PAO|CG| beta:    0.0000000000000000     
 PAO| norm of gradient:   2.1827193527768491     
 PAO| energy improvement:  -4.5029841244207773     
 PAO| step      6                 -191.700122994  0.426E-02  0.556E+00     2.391
 PAO|LS| adapt:  T F F
 PAO|LS| adapt: scan_steps:    0.0000000000000000        0.0000000000000000        0.0000000000000000     
 PAO|LS| adapt: energies:   -191.70012299425548        0.0000000000000000        0.0000000000000000     
 PAO| ======================= Iteration:         7 =============================

     Lanczos converged:  F threshold:   0.100E-02
     Est. extremal eigenvalues:    0.483E+01   0.128E+00
     Est. condition number :    0.379E+02

 Order=           3
     NS sqrt iter    1 1.00000000   0.124E+01       0.021     2738.859
     NS sqrt iter    2 1.00000000   0.634E+00       0.033     3458.222
     NS sqrt iter    3 1.00000000   0.206E+00       0.033     3451.523
     NS sqrt iter    4 1.00000000   0.274E-01       0.033     3462.959
     NS sqrt iter    5 1.00000000   0.145E-03       0.033     3455.490
     NS sqrt iter    6 1.00000000   0.613E-10       0.022     2472.305
     Symmetrizing Results
     Final NS sqrt iter    6 1.00000000   0.207E-11

     Est. extremal eigenvalues     -0.84853     2.63602  converged:  T
     TRS4 it   1 1.00000000   0.288E+02       0.007     2169.650   0.100E-11
     TRS4 it   2 1.00000000   0.239E+02       0.012     2290.621   0.100E-11
     TRS4 it   3 1.00000000   0.158E+02       0.013     2260.417   0.100E-11
     TRS4 it   4 1.00000000   0.941E+01       0.013     2258.252   0.100E-11
     TRS4 it   5 1.00000000   0.407E+01       0.012     2283.695   0.100E-11
     TRS4 it   6 1.00000000   0.111E+01       0.012     2277.784   0.100E-11
     TRS4 it   7 1.00000000   0.149E+00       0.013     2269.221   0.100E-11
     TRS4 it   8 1.00000000   0.428E-02       0.012     2298.697   0.100E-11
     TRS4 it   9 1.00000000   0.536E-05       0.012     2287.587   0.100E-11
     TRS4 it  10 1.00000000   0.264E-10       0.013     2272.258   0.100E-11
     Final TRS4 iteration   10 1.00000000   0.264E-10
     Chemical potential (mu):       0.05335
 
 PAO| energy:  -190.80720984982892      penalty:   6.8274937729158856E-004
 PAO|LS| adapt:  T F T
 PAO|LS| adapt: scan_steps:    0.0000000000000000        0.0000000000000000       0.55648149804171332     
 PAO|LS| adapt: energies:   -191.70012299425548        0.0000000000000000       -190.80720984982892     
 PAO| ======================= Iteration:         8 =============================

     Lanczos converged:  F threshold:   0.100E-02
     Est. extremal eigenvalues:    0.491E+01   0.124E+00
     Est. condition number :    0.396E+02

 Order=           3
     NS sqrt iter    1 1.00000000   0.125E+01       0.021     2749.409
     NS sqrt iter    2 1.00000000   0.647E+00       0.033     3461.274
     NS sqrt iter    3 1.00000000   0.215E+00       0.033     3443.020
     NS sqrt iter    4 1.00000000   0.307E-01       0.033     3454.503
     NS sqrt iter    5 1.00000000   0.196E-03       0.033     3446.311
     NS sqrt iter    6 1.00000000   0.143E-09       0.026     2615.190
     Symmetrizing Results
     Final NS sqrt iter    6 1.00000000   0.122E-11

     Est. extremal eigenvalues     -0.84959     2.63631  converged:  T
     TRS4 it   1 1.00000000   0.287E+02       0.007     2180.906   0.100E-11
     TRS4 it   2 1.00000000   0.238E+02       0.012     2279.547   0.100E-11
     TRS4 it   3 1.00000000   0.158E+02       0.013     2265.145   0.100E-11
     TRS4 it   4 1.00000000   0.931E+01       0.012     2280.626   0.100E-11
     TRS4 it   5 1.00000000   0.399E+01       0.013     2264.865   0.100E-11
     TRS4 it   6 1.00000000   0.108E+01       0.013     2246.615   0.100E-11
     TRS4 it   7 1.00000000   0.146E+00       0.012     2277.061   0.100E-11
     TRS4 it   8 1.00000000   0.422E-02       0.013     2254.856   0.100E-11
     TRS4 it   9 1.00000000   0.535E-05       0.013     2263.595   0.100E-11
     TRS4 it  10 1.00000000   0.281E-10       0.013     2256.907   0.100E-11
     Final TRS4 iteration   10 1.00000000   0.281E-10
     Chemical potential (mu):       0.05147
 
 PAO| energy:  -192.12555910175735      penalty:   5.0135051736043988E-004
 PAO|LS| adapt:  T T T
 PAO|LS| adapt: scan_steps:    0.0000000000000000       0.27824074902085666       0.55648149804171332     
 PAO|LS| adapt: energies:   -191.70012299425548       -192.12555910175735       -190.80720984982892     
 PAO|LS| adapt: suggested step_size:   0.20700353488431211     
 PAO|LS| adapt: predicted energy  -192.18271162623364     
 PAO| ======================= Iteration:         9 =============================

     Lanczos converged:  F threshold:   0.100E-02
     Est. extremal eigenvalues:    0.493E+01   0.123E+00
     Est. condition number :    0.401E+02

 Order=           3
     NS sqrt iter    1 1.00000000   0.126E+01       0.021     2741.333
     NS sqrt iter    2 1.00000000   0.650E+00       0.033     3422.606
     NS sqrt iter    3 1.00000000   0.217E+00       0.033     3463.448
     NS sqrt iter    4 1.00000000   0.316E-01       0.033     3440.893
     NS sqrt iter    5 1.00000000   0.211E-03       0.033     3477.270
     NS sqrt iter    6 1.00000000   0.177E-09       0.026     2664.463
     Symmetrizing Results
     Final NS sqrt iter    6 1.00000000   0.990E-12

     Est. extremal eigenvalues     -0.84945     2.63613  converged:  T
     TRS4 it   1 1.00000000   0.287E+02       0.006     2207.242   0.100E-11
     TRS4 it   2 1.00000000   0.238E+02       0.013     2268.423   0.100E-11
     TRS4 it   3 1.00000000   0.157E+02       0.013     2257.596   0.100E-11
     TRS4 it   4 1.00000000   0.930E+01       0.013     2234.123   0.100E-11
     TRS4 it   5 1.00000000   0.398E+01       0.013     2274.108   0.100E-11
     TRS4 it   6 1.00000000   0.108E+01       0.013     2261.306   0.100E-11
     TRS4 it   7 1.00000000   0.146E+00       0.013     2253.148   0.100E-11
     TRS4 it   8 1.00000000   0.421E-02       0.012     2281.637   0.100E-11
     TRS4 it   9 1.00000000   0.533E-05       0.012     2277.717   0.100E-11
     TRS4 it  10 1.00000000   0.281E-10       0.013     2248.871   0.100E-11
     Final TRS4 iteration   10 1.00000000   0.281E-10
     Chemical potential (mu):       0.05126
 
 PAO| energy:  -192.18699344361713      penalty:   4.8339889490376238E-004
 PAO|CG| trace_G_new   0.80833737153593954     
 PAO|CG| trace_G_prev    4.7642637729865864     
 PAO|CG| trace_G_mix   -4.7510276909676075E-002
 PAO|CG| trace_D    4.7642637729865864     
 PAO|CG| trace_D_Gnew   4.7510276909676075E-002
 PAO|CG| beta:   0.17963901438419061     
 PAO| norm of gradient:  0.89907584303880594     
 PAO| energy improvement: -0.48687044936164625     
 PAO| step      9                 -192.186993444  0.176E-02  0.207E+00     1.471
 PAO|LS| adapt:  T F F
 PAO|LS| adapt: scan_steps:    0.0000000000000000        0.0000000000000000        0.0000000000000000     
 PAO|LS| adapt: energies:   -192.18699344361713        0.0000000000000000        0.0000000000000000     
 PAO| ======================= Iteration:        10 =============================

     Lanczos converged:  F threshold:   0.100E-02
     Est. extremal eigenvalues:    0.488E+01   0.127E+00
     Est. condition number :    0.385E+02

 Order=           3
     NS sqrt iter    1 1.00000000   0.125E+01       0.021     2727.112
     NS sqrt iter    2 1.00000000   0.641E+00       0.033     3463.785
     NS sqrt iter    3 1.00000000   0.211E+00       0.033     3458.619
     NS sqrt iter    4 1.00000000   0.291E-01       0.033     3431.357
     NS sqrt iter    5 1.00000000   0.166E-03       0.033     3466.364
     NS sqrt iter    6 1.00000000   0.867E-10       0.024     2496.687
     Symmetrizing Results
     Final NS sqrt iter    6 1.00000000   0.184E-11

     Est. extremal eigenvalues     -0.85006     2.62300  converged:  T
     TRS4 it   1 1.00000000   0.287E+02       0.006     2194.887   0.100E-11
     TRS4 it   2 1.00000000   0.238E+02       0.013     2270.264   0.100E-11
     TRS4 it   3 1.00000000   0.157E+02       0.013     2262.030   0.100E-11
     TRS4 it   4 1.00000000   0.928E+01       0.013     2271.724   0.100E-11
     TRS4 it   5 1.00000000   0.396E+01       0.013     2253.262   0.100E-11
     TRS4 it   6 1.00000000   0.106E+01       0.013     2253.797   0.100E-11
     TRS4 it   7 1.00000000   0.142E+00       0.013     2270.885   0.100E-11
     TRS4 it   8 1.00000000   0.398E-02       0.013     2268.581   0.100E-11
     TRS4 it   9 1.00000000   0.476E-05       0.013     2270.592   0.100E-11
     TRS4 it  10 1.00000000   0.226E-10       0.013     2250.847   0.100E-11
     Final TRS4 iteration   10 1.00000000   0.226E-10
     Chemical potential (mu):       0.05220
 
 PAO| energy:  -192.29874197262382      penalty:   4.8783341440912406E-004
 PAO|LS| adapt:  T T F
 PAO|LS| adapt: scan_steps:    0.0000000000000000       0.20700353488431211        0.0000000000000000     
 PAO|LS| adapt: energies:   -192.18699344361713       -192.29874197262382        0.0000000000000000     
 PAO| ======================= Iteration:        11 =============================

     Lanczos converged:  F threshold:   0.100E-02
     Est. extremal eigenvalues:    0.482E+01   0.130E+00
     Est. condition number :    0.370E+02

 Order=           3
     NS sqrt iter    1 1.00000000   0.124E+01       0.021     2741.515
     NS sqrt iter    2 1.00000000   0.632E+00       0.033     3431.663
     NS sqrt iter    3 1.00000000   0.205E+00       0.033     3460.551
     NS sqrt iter    4 1.00000000   0.269E-01       0.033     3414.242
     NS sqrt iter    5 1.00000000   0.131E-03       0.033     3470.652
     NS sqrt iter    6 1.00000000   0.421E-10       0.020     2363.238
     Symmetrizing Results
     Final NS sqrt iter    6 1.00000000   0.225E-11

     Est. extremal eigenvalues     -0.85018     2.60959  converged:  T
     TRS4 it   1 1.00000000   0.286E+02       0.006     2192.783   0.100E-11
     TRS4 it   2 1.00000000   0.237E+02       0.012     2280.540   0.100E-11
     TRS4 it   3 1.00000000   0.157E+02       0.012     2283.215   0.100E-11
     TRS4 it   4 1.00000000   0.925E+01       0.012     2292.697   0.100E-11
     TRS4 it   5 1.00000000   0.393E+01       0.012     2280.117   0.100E-11
     TRS4 it   6 1.00000000   0.105E+01       0.013     2261.719   0.100E-11
     TRS4 it   7 1.00000000   0.137E+00       0.013     2256.411   0.100E-11
     TRS4 it   8 1.00000000   0.372E-02       0.012     2294.139   0.100E-11
     TRS4 it   9 1.00000000   0.420E-05       0.013     2274.364   0.100E-11
     TRS4 it  10 1.00000000   0.177E-10       0.013     2266.736   0.100E-11
     Final TRS4 iteration   10 1.00000000   0.177E-10
     Chemical potential (mu):       0.05321
 
 PAO| energy:  -192.30601576039879      penalty:   5.0364091310715550E-004
 PAO|LS| adapt:  T T F
 PAO|LS| adapt: scan_steps:    0.0000000000000000       0.41400706976862423        0.0000000000000000     
 PAO|LS| adapt: energies:   -192.18699344361713       -192.30601576039879        0.0000000000000000     
 PAO| ======================= Iteration:        12 =============================

     Lanczos converged:  F threshold:   0.100E-02
     Est. extremal eigenvalues:    0.472E+01   0.137E+00
     Est. condition number :    0.343E+02

 Order=           3
     NS sqrt iter    1 1.00000000   0.122E+01       0.021     2758.329
     NS sqrt iter    2 1.00000000   0.615E+00       0.033     3446.041
     NS sqrt iter    3 1.00000000   0.194E+00       0.033     3433.822
     NS sqrt iter    4 1.00000000   0.228E-01       0.033     3464.646
     NS sqrt iter    5 1.00000000   0.805E-04       0.033     3456.338
     NS sqrt iter    6 1.00000000   0.944E-11       0.014     2194.057
     Symmetrizing Results
     Final NS sqrt iter    6 1.00000000   0.156E-11

     Est. extremal eigenvalues     -0.84909     2.58314  converged:  T
     TRS4 it   1 1.00000000   0.286E+02       0.007     2173.890   0.100E-11
     TRS4 it   2 1.00000000   0.235E+02       0.013     2261.065   0.100E-11
     TRS4 it   3 1.00000000   0.157E+02       0.013     2263.127   0.100E-11
     TRS4 it   4 1.00000000   0.918E+01       0.013     2274.428   0.100E-11
     TRS4 it   5 1.00000000   0.386E+01       0.013     2264.545   0.100E-11
     TRS4 it   6 1.00000000   0.101E+01       0.013     2256.837   0.100E-11
     TRS4 it   7 1.00000000   0.127E+00       0.013     2273.047   0.100E-11
     TRS4 it   8 1.00000000   0.318E-02       0.012     2303.158   0.100E-11
     TRS4 it   9 1.00000000   0.313E-05       0.013     2272.000   0.100E-11
     TRS4 it  10 1.00000000   0.101E-10       0.013     2268.543   0.100E-11
     Final TRS4 iteration   10 1.00000000   0.101E-10
     Chemical potential (mu):       0.05536
 
 PAO| energy:  -192.02700050504674      penalty:   5.7849647452315770E-004
 PAO|LS| Need extra step
 PAO|LS| adapt:  T T T
 PAO|LS| adapt: scan_steps:    0.0000000000000000       0.41400706976862423       0.82801413953724845     
 PAO|LS| adapt: energies:   -192.18699344361713       -192.30601576039879       -192.02700050504674     
 PAO|LS| adapt: suggested step_size:   0.33080109586254319     
 PAO|LS| adapt: predicted energy  -192.31405449285285     
 PAO| ======================= Iteration:        13 =============================

     Lanczos converged:  F threshold:   0.100E-02
     Est. extremal eigenvalues:    0.484E+01   0.129E+00
     Est. condition number :    0.376E+02

 Order=           3
     NS sqrt iter    1 1.00000000   0.124E+01       0.021     2762.554
     NS sqrt iter    2 1.00000000   0.636E+00       0.033     3466.517
     NS sqrt iter    3 1.00000000   0.208E+00       0.033     3449.869
     NS sqrt iter    4 1.00000000   0.278E-01       0.033     3447.995
     NS sqrt iter    5 1.00000000   0.144E-03       0.033     3451.638
     NS sqrt iter    6 1.00000000   0.564E-10       0.022     2412.938
     Symmetrizing Results
     Final NS sqrt iter    6 1.00000000   0.211E-11

     Est. extremal eigenvalues     -0.85019     2.61500  converged:  T
     TRS4 it   1 1.00000000   0.287E+02       0.007     2172.728   0.100E-11
     TRS4 it   2 1.00000000   0.237E+02       0.013     2262.028   0.100E-11
     TRS4 it   3 1.00000000   0.157E+02       0.013     2267.348   0.100E-11
     TRS4 it   4 1.00000000   0.926E+01       0.012     2280.900   0.100E-11
     TRS4 it   5 1.00000000   0.394E+01       0.013     2271.429   0.100E-11
     TRS4 it   6 1.00000000   0.105E+01       0.012     2278.860   0.100E-11
     TRS4 it   7 1.00000000   0.139E+00       0.012     2283.204   0.100E-11
     TRS4 it   8 1.00000000   0.382E-02       0.012     2299.299   0.100E-11
     TRS4 it   9 1.00000000   0.442E-05       0.012     2278.381   0.100E-11
     TRS4 it  10 1.00000000   0.196E-10       0.012     2289.361   0.100E-11
     Final TRS4 iteration   10 1.00000000   0.196E-10
     Chemical potential (mu):       0.05279
 
 PAO| energy:  -192.31533883564978      penalty:   4.9581448103205698E-004
 PAO|CG| trace_G_new   0.31416011406220307     
 PAO|CG| trace_G_prev   0.80833737153593954     
 PAO|CG| trace_G_mix   -1.5424191474587963E-002
 PAO|CG| trace_D   0.94501160093138892     
 PAO|CG| trace_D_Gnew   1.4080121995605700E-002
 PAO|CG| beta:   0.40773112458049621     
 PAO| norm of gradient:  0.56049987873522600     
 PAO| energy improvement: -0.12834539203265649     
 PAO| step     13                 -192.315338836  0.109E-02  0.331E+00     1.890
 PAO|LS| adapt:  T F F
 PAO|LS| adapt: scan_steps:    0.0000000000000000        0.0000000000000000        0.0000000000000000     
 PAO|LS| adapt: energies:   -192.31533883564978        0.0000000000000000        0.0000000000000000     
 PAO| ======================= Iteration:        14 =============================

     Lanczos converged:  F threshold:   0.100E-02
     Est. extremal eigenvalues:    0.477E+01   0.132E+00
     Est. condition number :    0.362E+02

 Order=           3
     NS sqrt iter    1 1.00000000   0.122E+01       0.021     2739.466
     NS sqrt iter    2 1.00000000   0.624E+00       0.033     3461.750
     NS sqrt iter    3 1.00000000   0.201E+00       0.033     3452.104
     NS sqrt iter    4 1.00000000   0.254E-01       0.033     3462.695
     NS sqrt iter    5 1.00000000   0.112E-03       0.033     3450.727
     NS sqrt iter    6 1.00000000   0.268E-10       0.018     2281.162
     Symmetrizing Results
     Final NS sqrt iter    6 1.00000000   0.219E-11

     Est. extremal eigenvalues     -0.85061     2.60787  converged:  T
     TRS4 it   1 1.00000000   0.287E+02       0.007     2144.241   0.100E-11
     TRS4 it   2 1.00000000   0.237E+02       0.013     2271.507   0.100E-11
     TRS4 it   3 1.00000000   0.157E+02       0.012     2279.519   0.100E-11
     TRS4 it   4 1.00000000   0.920E+01       0.013     2255.839   0.100E-11
     TRS4 it   5 1.00000000   0.388E+01       0.012     2300.514   0.100E-11
     TRS4 it   6 1.00000000   0.102E+01       0.012     2291.957   0.100E-11
     TRS4 it   7 1.00000000   0.131E+00       0.013     2261.710   0.100E-11
     TRS4 it   8 1.00000000   0.336E-02       0.013     2263.597   0.100E-11
     TRS4 it   9 1.00000000   0.344E-05       0.013     2258.562   0.100E-11
     TRS4 it  10 1.00000000   0.121E-10       0.013     2275.495   0.100E-11
     Final TRS4 iteration   10 1.00000000   0.121E-10
     Chemical potential (mu):       0.05482
 
 PAO| energy:  -192.37373370224773      penalty:   5.0170260032068891E-004
 PAO|LS| adapt:  T T F
 PAO|LS| adapt: scan_steps:    0.0000000000000000       0.33080109586254319        0.0000000000000000     
 PAO|LS| adapt: energies:   -192.31533883564978       -192.37373370224773        0.0000000000000000     
 PAO| ======================= Iteration:        15 =============================

     Lanczos converged:  F threshold:   0.100E-02
     Est. extremal eigenvalues:    0.469E+01   0.135E+00
     Est. condition number :    0.349E+02

 Order=           3
     NS sqrt iter    1 1.00000000   0.121E+01       0.021     2757.568
     NS sqrt iter    2 1.00000000   0.613E+00       0.033     3464.333
     NS sqrt iter    3 1.00000000   0.194E+00       0.033     3431.645
     NS sqrt iter    4 1.00000000   0.233E-01       0.033     3446.804
     NS sqrt iter    5 1.00000000   0.878E-04       0.033     3447.826
     NS sqrt iter    6 1.00000000   0.127E-10       0.015     2203.843
     Symmetrizing Results
     Final NS sqrt iter    6 1.00000000   0.184E-11

     Est. extremal eigenvalues     -0.85063     2.60029  converged:  T
     TRS4 it   1 1.00000000   0.287E+02       0.007     2141.650   0.100E-11
     TRS4 it   2 1.00000000   0.236E+02       0.013     2253.660   0.100E-11
     TRS4 it   3 1.00000000   0.157E+02       0.012     2304.204   0.100E-11
     TRS4 it   4 1.00000000   0.914E+01       0.012     2276.979   0.100E-11
     TRS4 it   5 1.00000000   0.382E+01       0.012     2281.764   0.100E-11
     TRS4 it   6 1.00000000   0.987E+00       0.013     2261.056   0.100E-11
     TRS4 it   7 1.00000000   0.123E+00       0.012     2277.330   0.100E-11
     TRS4 it   8 1.00000000   0.296E-02       0.012     2278.342   0.100E-11
     TRS4 it   9 1.00000000   0.269E-05       0.012     2279.235   0.100E-11
     TRS4 it  10 1.00000000   0.750E-11       0.012     2281.665   0.100E-11
     Final TRS4 iteration   10 1.00000000   0.750E-11
     Chemical potential (mu):       0.05672
 
 PAO| energy:  -192.34623589348521      penalty:   5.2526853167006600E-004
 PAO|LS| adapt:  T T T
 PAO|LS| adapt: scan_steps:    0.0000000000000000       0.33080109586254319       0.66160219172508639     
 PAO|LS| adapt: energies:   -192.31533883564978       -192.37373370224773       -192.34623589348521     
 PAO|LS| adapt: suggested step_size:   0.39029848925490940     
 PAO|LS| adapt: predicted energy  -192.37512297697180     
 PAO| ======================= Iteration:        16 =============================

     Lanczos converged:  F threshold:   0.100E-02
     Est. extremal eigenvalues:    0.475E+01   0.132E+00
     Est. condition number :    0.359E+02

 Order=           3
     NS sqrt iter    1 1.00000000   0.122E+01       0.021     2738.826
     NS sqrt iter    2 1.00000000   0.622E+00       0.033     3428.439
     NS sqrt iter    3 1.00000000   0.199E+00       0.033     3461.481
     NS sqrt iter    4 1.00000000   0.250E-01       0.033     3439.676
     NS sqrt iter    5 1.00000000   0.107E-03       0.033     3450.497
     NS sqrt iter    6 1.00000000   0.234E-10       0.018     2250.111
     Symmetrizing Results
     Final NS sqrt iter    6 1.00000000   0.214E-11

     Est. extremal eigenvalues     -0.85065     2.60653  converged:  T
     TRS4 it   1 1.00000000   0.287E+02       0.007     2170.289   0.100E-11
     TRS4 it   2 1.00000000   0.237E+02       0.012     2293.181   0.100E-11
     TRS4 it   3 1.00000000   0.157E+02       0.013     2261.239   0.100E-11
     TRS4 it   4 1.00000000   0.919E+01       0.012     2298.496   0.100E-11
     TRS4 it   5 1.00000000   0.387E+01       0.013     2269.795   0.100E-11
     TRS4 it   6 1.00000000   0.101E+01       0.013     2262.625   0.100E-11
     TRS4 it   7 1.00000000   0.129E+00       0.013     2273.773   0.100E-11
     TRS4 it   8 1.00000000   0.328E-02       0.012     2284.957   0.100E-11
     TRS4 it   9 1.00000000   0.329E-05       0.012     2287.979   0.100E-11
     TRS4 it  10 1.00000000   0.111E-10       0.012     2288.017   0.100E-11
     Final TRS4 iteration   10 1.00000000   0.111E-10
     Chemical potential (mu):       0.05517
 
 PAO| energy:  -192.37506224740707      penalty:   5.0457551408453639E-004
 PAO|CG| trace_G_new   0.11566266752654183     
 PAO|CG| trace_G_prev   0.31416011406220307     
 PAO|CG| trace_G_mix    5.7372250268567081E-003
 PAO|CG| trace_D   0.45978144780854902     
 PAO|CG| trace_D_Gnew   9.5546000093821857E-004
 PAO|CG| beta:   0.34990260564369452     
 PAO| norm of gradient:  0.34009214564076873     
 PAO| energy improvement:  -5.9723411757289568E-002
 PAO| step     16                 -192.375062247  0.664E-03  0.390E+00     1.447
 PAO|LS| adapt:  T F F
 PAO|LS| adapt: scan_steps:    0.0000000000000000        0.0000000000000000        0.0000000000000000     
 PAO|LS| adapt: energies:   -192.37506224740707        0.0000000000000000        0.0000000000000000     
 PAO| ======================= Iteration:        17 =============================

     Lanczos converged:  F threshold:   0.100E-02
     Est. extremal eigenvalues:    0.472E+01   0.133E+00
     Est. condition number :    0.354E+02

 Order=           3
     NS sqrt iter    1 1.00000000   0.121E+01       0.021     2749.563
     NS sqrt iter    2 1.00000000   0.617E+00       0.033     3478.063
     NS sqrt iter    3 1.00000000   0.197E+00       0.033     3438.567
     NS sqrt iter    4 1.00000000   0.242E-01       0.033     3475.761
     NS sqrt iter    5 1.00000000   0.973E-04       0.033     3464.082
     NS sqrt iter    6 1.00000000   0.174E-10       0.016     2227.952
     Symmetrizing Results
     Final NS sqrt iter    6 1.00000000   0.199E-11

     Est. extremal eigenvalues     -0.85070     2.60271  converged:  T
     TRS4 it   1 1.00000000   0.287E+02       0.006     2201.468   0.100E-11
     TRS4 it   2 1.00000000   0.236E+02       0.012     2282.990   0.100E-11
     TRS4 it   3 1.00000000   0.157E+02       0.012     2287.019   0.100E-11
     TRS4 it   4 1.00000000   0.914E+01       0.013     2276.398   0.100E-11
     TRS4 it   5 1.00000000   0.383E+01       0.012     2302.554   0.100E-11
     TRS4 it   6 1.00000000   0.993E+00       0.012     2277.006   0.100E-11
     TRS4 it   7 1.00000000   0.124E+00       0.012     2292.123   0.100E-11
     TRS4 it   8 1.00000000   0.303E-02       0.013     2276.589   0.100E-11
     TRS4 it   9 1.00000000   0.282E-05       0.012     2284.551   0.100E-11
     TRS4 it  10 1.00000000   0.820E-11       0.013     2237.181   0.100E-11
     Final TRS4 iteration   10 1.00000000   0.820E-11
     Chemical potential (mu):       0.05631
 
 PAO| energy:  -192.37909381550742      penalty:   4.9973326021906692E-004
 PAO|LS| adapt:  T T F
 PAO|LS| adapt: scan_steps:    0.0000000000000000       0.39029848925490940        0.0000000000000000     
 PAO|LS| adapt: energies:   -192.37506224740707       -192.37909381550742        0.0000000000000000     
 PAO| ======================= Iteration:        18 =============================

     Lanczos converged:  F threshold:   0.100E-02
     Est. extremal eigenvalues:    0.468E+01   0.134E+00
     Est. condition number :    0.348E+02

 Order=           3
     NS sqrt iter    1 1.00000000   0.120E+01       0.021     2772.467
     NS sqrt iter    2 1.00000000   0.612E+00       0.033     3435.557
     NS sqrt iter    3 1.00000000   0.194E+00       0.033     3462.609
     NS sqrt iter    4 1.00000000   0.234E-01       0.033     3479.098
     NS sqrt iter    5 1.00000000   0.884E-04       0.033     3419.785
     NS sqrt iter    6 1.00000000   0.129E-10       0.015     2204.729
     Symmetrizing Results
     Final NS sqrt iter    6 1.00000000   0.187E-11

     Est. extremal eigenvalues     -0.85052     2.59867  converged:  T
     TRS4 it   1 1.00000000   0.287E+02       0.007     2157.623   0.100E-11
     TRS4 it   2 1.00000000   0.236E+02       0.013     2253.338   0.100E-11
     TRS4 it   3 1.00000000   0.156E+02       0.013     2266.859   0.100E-11
     TRS4 it   4 1.00000000   0.909E+01       0.012     2294.582   0.100E-11
     TRS4 it   5 1.00000000   0.378E+01       0.012     2278.404   0.100E-11
     TRS4 it   6 1.00000000   0.972E+00       0.012     2280.637   0.100E-11
     TRS4 it   7 1.00000000   0.120E+00       0.012     2281.551   0.100E-11
     TRS4 it   8 1.00000000   0.280E-02       0.013     2274.162   0.100E-11
     TRS4 it   9 1.00000000   0.242E-05       0.013     2272.327   0.100E-11
     TRS4 it  10 1.00000000   0.610E-11       0.013     2267.946   0.100E-11
     Final TRS4 iteration   10 1.00000000   0.610E-11
     Chemical potential (mu):       0.05749
 
 PAO| energy:  -192.30099135828124      penalty:   5.0308279792130040E-004
 PAO|LS| adapt:  T T T
 PAO|LS| adapt: scan_steps:    0.0000000000000000       0.39029848925490940       0.78059697850981880     
 PAO|LS| adapt: energies:   -192.37506224740707       -192.37909381550742       -192.30099135828124     
 PAO|LS| adapt: suggested step_size:   0.21430713848006164     
 PAO|LS| adapt: predicted energy  -192.38744372986093     
 PAO| ======================= Iteration:        19 =============================

     Lanczos converged:  F threshold:   0.100E-02
     Est. extremal eigenvalues:    0.473E+01   0.133E+00
     Est. condition number :    0.356E+02

 Order=           3
     NS sqrt iter    1 1.00000000   0.122E+01       0.021     2744.694
     NS sqrt iter    2 1.00000000   0.619E+00       0.033     3468.330
     NS sqrt iter    3 1.00000000   0.198E+00       0.033     3449.245
     NS sqrt iter    4 1.00000000   0.245E-01       0.033     3475.601
     NS sqrt iter    5 1.00000000   0.102E-03       0.033     3455.959
     NS sqrt iter    6 1.00000000   0.199E-10       0.017     2224.879
     Symmetrizing Results
     Final NS sqrt iter    6 1.00000000   0.203E-11

     Est. extremal eigenvalues     -0.85070     2.60446  converged:  T
     TRS4 it   1 1.00000000   0.287E+02       0.006     2198.943   0.100E-11
     TRS4 it   2 1.00000000   0.236E+02       0.012     2285.996   0.100E-11
     TRS4 it   3 1.00000000   0.157E+02       0.013     2270.881   0.100E-11
     TRS4 it   4 1.00000000   0.916E+01       0.012     2298.803   0.100E-11
     TRS4 it   5 1.00000000   0.385E+01       0.013     2253.920   0.100E-11
     TRS4 it   6 1.00000000   0.100E+01       0.012     2277.638   0.100E-11
     TRS4 it   7 1.00000000   0.127E+00       0.013     2270.852   0.100E-11
     TRS4 it   8 1.00000000   0.314E-02       0.012     2301.792   0.100E-11
     TRS4 it   9 1.00000000   0.302E-05       0.013     2265.798   0.100E-11
     TRS4 it  10 1.00000000   0.938E-11       0.013     2273.643   0.100E-11
     Final TRS4 iteration   10 1.00000000   0.938E-11
     Chemical potential (mu):       0.05579
 
 PAO| energy:  -192.38743003996223      penalty:   5.0092425322040377E-004
 PAO|CG| trace_G_new    2.0738245488911445E-002
 PAO|CG| trace_G_prev   0.11566266752654183     
 PAO|CG| trace_G_mix   -3.8332504356898621E-004
 PAO|CG| trace_D   0.17128591727388132     
 PAO|CG| trace_D_Gnew  -4.6387481888217428E-005
 PAO|CG| beta:   0.18261355184146633     
 PAO| norm of gradient:  0.14400779662543081     
 PAO| energy improvement:  -1.2367792555153301E-002
 PAO| step     19                 -192.387430040  0.281E-03  0.214E+00     1.445
 PAO|LS| adapt:  T F F
 PAO|LS| adapt: scan_steps:    0.0000000000000000        0.0000000000000000        0.0000000000000000     
 PAO|LS| adapt: energies:   -192.38743003996223        0.0000000000000000        0.0000000000000000     
 PAO| ======================= Iteration:        20 =============================

     Lanczos converged:  F threshold:   0.100E-02
     Est. extremal eigenvalues:    0.473E+01   0.133E+00
     Est. condition number :    0.356E+02

 Order=           3
     NS sqrt iter    1 1.00000000   0.122E+01       0.021     2741.831
     NS sqrt iter    2 1.00000000   0.619E+00       0.033     3440.636
     NS sqrt iter    3 1.00000000   0.198E+00       0.033     3463.577
     NS sqrt iter    4 1.00000000   0.245E-01       0.033     3449.330
     NS sqrt iter    5 1.00000000   0.101E-03       0.033     3430.481
     NS sqrt iter    6 1.00000000   0.196E-10       0.017     2255.141
     Symmetrizing Results
     Final NS sqrt iter    6 1.00000000   0.202E-11

     Est. extremal eigenvalues     -0.85070     2.60287  converged:  T
     TRS4 it   1 1.00000000   0.287E+02       0.007     2154.487   0.100E-11
     TRS4 it   2 1.00000000   0.236E+02       0.013     2270.941   0.100E-11
     TRS4 it   3 1.00000000   0.157E+02       0.012     2282.152   0.100E-11
     TRS4 it   4 1.00000000   0.915E+01       0.013     2275.049   0.100E-11
     TRS4 it   5 1.00000000   0.384E+01       0.012     2298.379   0.100E-11
     TRS4 it   6 1.00000000   0.998E+00       0.013     2268.572   0.100E-11
     TRS4 it   7 1.00000000   0.126E+00       0.013     2265.655   0.100E-11
     TRS4 it   8 1.00000000   0.310E-02       0.012     2278.311   0.100E-11
     TRS4 it   9 1.00000000   0.294E-05       0.012     2278.102   0.100E-11
     TRS4 it  10 1.00000000   0.895E-11       0.013     2252.324   0.100E-11
     Final TRS4 iteration   10 1.00000000   0.895E-11
     Chemical potential (mu):       0.05596
 
 PAO| energy:  -192.39102755382959      penalty:   4.9189121007334191E-004
 PAO|LS| adapt:  T T F
 PAO|LS| adapt: scan_steps:    0.0000000000000000       0.21430713848006164        0.0000000000000000     
 PAO|LS| adapt: energies:   -192.38743003996223       -192.39102755382959        0.0000000000000000     
 PAO| ======================= Iteration:        21 =============================

     Lanczos converged:  F threshold:   0.100E-02
     Est. extremal eigenvalues:    0.472E+01   0.133E+00
     Est. condition number :    0.355E+02

 Order=           3
     NS sqrt iter    1 1.00000000   0.121E+01       0.021     2749.430
     NS sqrt iter    2 1.00000000   0.619E+00       0.033     3443.026
     NS sqrt iter    3 1.00000000   0.198E+00       0.033     3444.295
     NS sqrt iter    4 1.00000000   0.245E-01       0.033     3479.874
     NS sqrt iter    5 1.00000000   0.101E-03       0.033     3466.992
     NS sqrt iter    6 1.00000000   0.193E-10       0.017     2211.970
     Symmetrizing Results
     Final NS sqrt iter    6 1.00000000   0.202E-11

     Est. extremal eigenvalues     -0.85070     2.60127  converged:  T
     TRS4 it   1 1.00000000   0.287E+02       0.007     2167.077   0.100E-11
     TRS4 it   2 1.00000000   0.236E+02       0.012     2283.792   0.100E-11
     TRS4 it   3 1.00000000   0.157E+02       0.012     2284.337   0.100E-11
     TRS4 it   4 1.00000000   0.914E+01       0.012     2283.989   0.100E-11
     TRS4 it   5 1.00000000   0.383E+01       0.012     2292.998   0.100E-11
     TRS4 it   6 1.00000000   0.994E+00       0.013     2267.034   0.100E-11
     TRS4 it   7 1.00000000   0.125E+00       0.012     2277.431   0.100E-11
     TRS4 it   8 1.00000000   0.306E-02       0.012     2277.985   0.100E-11
     TRS4 it   9 1.00000000   0.287E-05       0.012     2286.032   0.100E-11
     TRS4 it  10 1.00000000   0.846E-11       0.012     2286.220   0.100E-11
     Final TRS4 iteration   10 1.00000000   0.846E-11
     Chemical potential (mu):       0.05613
 
 PAO| energy:  -192.39291549335496      penalty:   4.8321884572108815E-004
 PAO|LS| adapt:  T T F
 PAO|LS| adapt: scan_steps:    0.0000000000000000       0.42861427696012327        0.0000000000000000     
 PAO|LS| adapt: energies:   -192.38743003996223       -192.39291549335496        0.0000000000000000     
 PAO| ======================= Iteration:        22 =============================

     Lanczos converged:  F threshold:   0.100E-02
     Est. extremal eigenvalues:    0.472E+01   0.133E+00
     Est. condition number :    0.354E+02

 Order=           3
     NS sqrt iter    1 1.00000000   0.121E+01       0.021     2743.051
     NS sqrt iter    2 1.00000000   0.618E+00       0.033     3435.159
     NS sqrt iter    3 1.00000000   0.198E+00       0.033     3428.208
     NS sqrt iter    4 1.00000000   0.246E-01       0.033     3408.124
     NS sqrt iter    5 1.00000000   0.101E-03       0.033     3470.823
     NS sqrt iter    6 1.00000000   0.188E-10       0.017     2217.193
     Symmetrizing Results
     Final NS sqrt iter    6 1.00000000   0.202E-11

     Est. extremal eigenvalues     -0.85070     2.59803  converged:  T
     TRS4 it   1 1.00000000   0.287E+02       0.007     2155.277   0.100E-11
     TRS4 it   2 1.00000000   0.236E+02       0.013     2272.042   0.100E-11
     TRS4 it   3 1.00000000   0.156E+02       0.012     2302.994   0.100E-11
     TRS4 it   4 1.00000000   0.912E+01       0.013     2274.789   0.100E-11
     TRS4 it   5 1.00000000   0.381E+01       0.013     2255.222   0.100E-11
     TRS4 it   6 1.00000000   0.986E+00       0.013     2275.721   0.100E-11
     TRS4 it   7 1.00000000   0.123E+00       0.013     2251.885   0.100E-11
     TRS4 it   8 1.00000000   0.298E-02       0.013     2259.957   0.100E-11
     TRS4 it   9 1.00000000   0.272E-05       0.012     2277.669   0.100E-11
     TRS4 it  10 1.00000000   0.766E-11       0.013     2260.884   0.100E-11
     Final TRS4 iteration   10 1.00000000   0.766E-11
     Chemical potential (mu):       0.05647
 
 PAO| energy:  -192.39148867398487      penalty:   4.6693566901522161E-004
 PAO|LS| Need extra step
 PAO|LS| adapt:  T T T
 PAO|LS| adapt: scan_steps:    0.0000000000000000       0.42861427696012327       0.85722855392024655     
 PAO|LS| adapt: energies:   -192.38743003996223       -192.39291549335496       -192.39148867398487     
 PAO|LS| adapt: suggested step_size:   0.55444759884622585     
 PAO|LS| adapt: predicted energy  -192.39321337855668     
 PAO| ======================= Iteration:        23 =============================

     Lanczos converged:  F threshold:   0.100E-02
     Est. extremal eigenvalues:    0.472E+01   0.133E+00
     Est. condition number :    0.355E+02

 Order=           3
     NS sqrt iter    1 1.00000000   0.121E+01       0.021     2742.194
     NS sqrt iter    2 1.00000000   0.618E+00       0.033     3458.980
     NS sqrt iter    3 1.00000000   0.198E+00       0.033     3462.524
     NS sqrt iter    4 1.00000000   0.246E-01       0.033     3463.684
     NS sqrt iter    5 1.00000000   0.101E-03       0.033     3452.796
     NS sqrt iter    6 1.00000000   0.192E-10       0.017     2240.551
     Symmetrizing Results
     Final NS sqrt iter    6 1.00000000   0.201E-11

     Est. extremal eigenvalues     -0.85070     2.60033  converged:  T
     TRS4 it   1 1.00000000   0.287E+02       0.007     2188.453   0.100E-11
     TRS4 it   2 1.00000000   0.236E+02       0.013     2242.601   0.100E-11
     TRS4 it   3 1.00000000   0.156E+02       0.013     2266.465   0.100E-11
     TRS4 it   4 1.00000000   0.914E+01       0.013     2272.630   0.100E-11
     TRS4 it   5 1.00000000   0.382E+01       0.013     2254.415   0.100E-11
     TRS4 it   6 1.00000000   0.992E+00       0.013     2260.885   0.100E-11
     TRS4 it   7 1.00000000   0.124E+00       0.012     2282.886   0.100E-11
     TRS4 it   8 1.00000000   0.304E-02       0.012     2283.536   0.100E-11
     TRS4 it   9 1.00000000   0.282E-05       0.013     2248.208   0.100E-11
     TRS4 it  10 1.00000000   0.823E-11       0.013     2259.927   0.100E-11
     Final TRS4 iteration   10 1.00000000   0.823E-11
     Chemical potential (mu):       0.05623
 
 PAO| energy:  -192.39322000751906      penalty:   4.7829256640927621E-004
 PAO|CG| trace_G_new    1.4214724288738045E-002
 PAO|CG| trace_G_prev    2.0738245488911445E-002
 PAO|CG| trace_G_mix    1.0393343351751272E-004
 PAO|CG| trace_D    2.6467180433769149E-002
 PAO|CG| trace_D_Gnew  -4.2782228445473284E-005
 PAO|CG| beta:   0.68042356151900352     
 PAO| norm of gradient:  0.11922551861383554     
 PAO| energy improvement:  -5.7899675568364728E-003
 PAO| step     23                 -192.393220008  0.233E-03  0.554E+00     1.877
 PAO|LS| adapt:  T F F
 PAO|LS| adapt: scan_steps:    0.0000000000000000        0.0000000000000000        0.0000000000000000     
 PAO|LS| adapt: energies:   -192.39322000751906        0.0000000000000000        0.0000000000000000     
 PAO| ======================= Iteration:        24 =============================

     Lanczos converged:  F threshold:   0.100E-02
     Est. extremal eigenvalues:    0.471E+01   0.133E+00
     Est. condition number :    0.355E+02

 Order=           3
     NS sqrt iter    1 1.00000000   0.121E+01       0.021     2764.498
     NS sqrt iter    2 1.00000000   0.617E+00       0.033     3433.636
     NS sqrt iter    3 1.00000000   0.198E+00       0.033     3442.707
     NS sqrt iter    4 1.00000000   0.245E-01       0.033     3442.207
     NS sqrt iter    5 1.00000000   0.101E-03       0.033     3441.901
     NS sqrt iter    6 1.00000000   0.190E-10       0.017     2229.162
     Symmetrizing Results
     Final NS sqrt iter    6 1.00000000   0.202E-11

     Est. extremal eigenvalues     -0.85070     2.59724  converged:  T
     TRS4 it   1 1.00000000   0.287E+02       0.006     2196.917   0.100E-11
     TRS4 it   2 1.00000000   0.236E+02       0.013     2269.829   0.100E-11
     TRS4 it   3 1.00000000   0.156E+02       0.012     2288.981   0.100E-11
     TRS4 it   4 1.00000000   0.912E+01       0.012     2298.870   0.100E-11
     TRS4 it   5 1.00000000   0.381E+01       0.013     2270.311   0.100E-11
     TRS4 it   6 1.00000000   0.984E+00       0.012     2292.865   0.100E-11
     TRS4 it   7 1.00000000   0.123E+00       0.012     2283.941   0.100E-11
     TRS4 it   8 1.00000000   0.296E-02       0.012     2282.236   0.100E-11
     TRS4 it   9 1.00000000   0.269E-05       0.013     2276.165   0.100E-11
     TRS4 it  10 1.00000000   0.752E-11       0.012     2287.342   0.100E-11
     Final TRS4 iteration   10 1.00000000   0.752E-11
     Chemical potential (mu):       0.05656
 
 PAO| energy:  -192.39550972906423      penalty:   4.4364870405141953E-004
 PAO|LS| adapt:  T T F
 PAO|LS| adapt: scan_steps:    0.0000000000000000       0.55444759884622585        0.0000000000000000     
 PAO|LS| adapt: energies:   -192.39322000751906       -192.39550972906423        0.0000000000000000     
 PAO| ======================= Iteration:        25 =============================

     Lanczos converged:  F threshold:   0.100E-02
     Est. extremal eigenvalues:    0.470E+01   0.133E+00
     Est. condition number :    0.354E+02

 Order=           3
     NS sqrt iter    1 1.00000000   0.121E+01       0.021     2726.118
     NS sqrt iter    2 1.00000000   0.616E+00       0.033     3419.370
     NS sqrt iter    3 1.00000000   0.197E+00       0.033     3439.560
     NS sqrt iter    4 1.00000000   0.245E-01       0.033     3454.532
     NS sqrt iter    5 1.00000000   0.101E-03       0.033     3428.942
     NS sqrt iter    6 1.00000000   0.188E-10       0.017     2230.789
     Symmetrizing Results
     Final NS sqrt iter    6 1.00000000   0.200E-11

     Est. extremal eigenvalues     -0.85069     2.59401  converged:  T
     TRS4 it   1 1.00000000   0.287E+02       0.007     2176.323   0.100E-11
     TRS4 it   2 1.00000000   0.236E+02       0.013     2254.218   0.100E-11
     TRS4 it   3 1.00000000   0.156E+02       0.013     2245.698   0.100E-11
     TRS4 it   4 1.00000000   0.909E+01       0.013     2273.608   0.100E-11
     TRS4 it   5 1.00000000   0.379E+01       0.013     2266.335   0.100E-11
     TRS4 it   6 1.00000000   0.976E+00       0.013     2269.460   0.100E-11
     TRS4 it   7 1.00000000   0.121E+00       0.013     2270.186   0.100E-11
     TRS4 it   8 1.00000000   0.288E-02       0.012     2280.067   0.100E-11
     TRS4 it   9 1.00000000   0.256E-05       0.013     2264.811   0.100E-11
     TRS4 it  10 1.00000000   0.683E-11       0.012     2286.254   0.100E-11
     Final TRS4 iteration   10 1.00000000   0.683E-11
     Chemical potential (mu):       0.05689
 
 PAO| energy:  -192.38642673138790      penalty:   4.1210012780211111E-004
 PAO|LS| adapt:  T T T
 PAO|LS| adapt: scan_steps:    0.0000000000000000       0.55444759884622585        1.1088951976924517     
 PAO|LS| adapt: energies:   -192.39322000751906       -192.39550972906423       -192.38642673138790     
 PAO|LS| adapt: suggested step_size:   0.38885326885949462     
 PAO|LS| adapt: predicted energy  -192.39601695824683     
 PAO| ======================= Iteration:        26 =============================

     Lanczos converged:  F threshold:   0.100E-02
     Est. extremal eigenvalues:    0.471E+01   0.133E+00
     Est. condition number :    0.355E+02

 Order=           3
     NS sqrt iter    1 1.00000000   0.121E+01       0.021     2760.298
     NS sqrt iter    2 1.00000000   0.618E+00       0.033     3446.916
     NS sqrt iter    3 1.00000000   0.198E+00       0.033     3427.661
     NS sqrt iter    4 1.00000000   0.245E-01       0.033     3452.157
     NS sqrt iter    5 1.00000000   0.101E-03       0.033     3455.288
     NS sqrt iter    6 1.00000000   0.190E-10       0.017     2217.143
     Symmetrizing Results
     Final NS sqrt iter    6 1.00000000   0.202E-11

     Est. extremal eigenvalues     -0.85071     2.59818  converged:  T
     TRS4 it   1 1.00000000   0.287E+02       0.006     2201.720   0.100E-11
     TRS4 it   2 1.00000000   0.236E+02       0.013     2264.927   0.100E-11
     TRS4 it   3 1.00000000   0.156E+02       0.012     2288.172   0.100E-11
     TRS4 it   4 1.00000000   0.912E+01       0.013     2275.965   0.100E-11
     TRS4 it   5 1.00000000   0.381E+01       0.012     2289.889   0.100E-11
     TRS4 it   6 1.00000000   0.986E+00       0.012     2289.335   0.100E-11
     TRS4 it   7 1.00000000   0.123E+00       0.013     2262.246   0.100E-11
     TRS4 it   8 1.00000000   0.298E-02       0.012     2303.409   0.100E-11
     TRS4 it   9 1.00000000   0.273E-05       0.012     2278.751   0.100E-11
     TRS4 it  10 1.00000000   0.769E-11       0.013     2276.012   0.100E-11
     Final TRS4 iteration   10 1.00000000   0.769E-11
     Chemical potential (mu):       0.05647
 
 PAO| energy:  -192.39600625307398      penalty:   4.5366590208012172E-004
 PAO|CG| trace_G_new    1.0133292676499516E-002
 PAO|CG| trace_G_prev    1.4214724288738045E-002
 PAO|CG| trace_G_mix    1.6967640287256241E-004
 PAO|CG| trace_D    2.6526619593779291E-002
 PAO|CG| trace_D_Gnew  -5.1955438678314119E-005
 PAO|CG| beta:   0.70093630176990962     
 PAO| norm of gradient:  0.10066425719439605     
 PAO| energy improvement:  -2.7862455549154674E-003
 PAO| step     26                 -192.396006253  0.197E-03  0.389E+00     1.448
 PAO|LS| adapt:  T F F
 PAO|LS| adapt: scan_steps:    0.0000000000000000        0.0000000000000000        0.0000000000000000     
 PAO|LS| adapt: energies:   -192.39600625307398        0.0000000000000000        0.0000000000000000     
 PAO| ======================= Iteration:        27 =============================

     Lanczos converged:  F threshold:   0.100E-02
     Est. extremal eigenvalues:    0.470E+01   0.133E+00
     Est. condition number :    0.355E+02

 Order=           3
     NS sqrt iter    1 1.00000000   0.121E+01       0.021     2727.775
     NS sqrt iter    2 1.00000000   0.616E+00       0.033     3453.157
     NS sqrt iter    3 1.00000000   0.197E+00       0.033     3461.833
     NS sqrt iter    4 1.00000000   0.244E-01       0.033     3413.074
     NS sqrt iter    5 1.00000000   0.100E-03       0.033     3429.065
     NS sqrt iter    6 1.00000000   0.189E-10       0.017     2236.824
     Symmetrizing Results
     Final NS sqrt iter    6 1.00000000   0.200E-11

     Est. extremal eigenvalues     -0.85071     2.59613  converged:  T
     TRS4 it   1 1.00000000   0.287E+02       0.006     2200.310   0.100E-11
     TRS4 it   2 1.00000000   0.236E+02       0.012     2280.440   0.100E-11
     TRS4 it   3 1.00000000   0.156E+02       0.013     2272.738   0.100E-11
     TRS4 it   4 1.00000000   0.911E+01       0.012     2288.277   0.100E-11
     TRS4 it   5 1.00000000   0.380E+01       0.012     2287.234   0.100E-11
     TRS4 it   6 1.00000000   0.980E+00       0.012     2279.963   0.100E-11
     TRS4 it   7 1.00000000   0.122E+00       0.012     2302.033   0.100E-11
     TRS4 it   8 1.00000000   0.291E-02       0.013     2260.600   0.100E-11
     TRS4 it   9 1.00000000   0.262E-05       0.013     2274.626   0.100E-11
     TRS4 it  10 1.00000000   0.715E-11       0.012     2289.654   0.100E-11
     Final TRS4 iteration   10 1.00000000   0.715E-11
     Chemical potential (mu):       0.05676
 
 PAO| energy:  -192.39799733966862      penalty:   4.2353444284873640E-004
 PAO|LS| adapt:  T T F
 PAO|LS| adapt: scan_steps:    0.0000000000000000       0.38885326885949462        0.0000000000000000     
 PAO|LS| adapt: energies:   -192.39600625307398       -192.39799733966862        0.0000000000000000     
 PAO| ======================= Iteration:        28 =============================

     Lanczos converged:  F threshold:   0.100E-02
     Est. extremal eigenvalues:    0.469E+01   0.132E+00
     Est. condition number :    0.355E+02

 Order=           3
     NS sqrt iter    1 1.00000000   0.121E+01       0.021     2747.268
     NS sqrt iter    2 1.00000000   0.615E+00       0.033     3460.477
     NS sqrt iter    3 1.00000000   0.197E+00       0.033     3424.112
     NS sqrt iter    4 1.00000000   0.243E-01       0.033     3433.641
     NS sqrt iter    5 1.00000000   0.999E-04       0.033     3417.465
     NS sqrt iter    6 1.00000000   0.188E-10       0.017     2234.658
     Symmetrizing Results
     Final NS sqrt iter    6 1.00000000   0.200E-11

     Est. extremal eigenvalues     -0.85071     2.59400  converged:  T
     TRS4 it   1 1.00000000   0.287E+02       0.007     2183.440   0.100E-11
     TRS4 it   2 1.00000000   0.236E+02       0.012     2284.922   0.100E-11
     TRS4 it   3 1.00000000   0.156E+02       0.013     2263.028   0.100E-11
     TRS4 it   4 1.00000000   0.909E+01       0.012     2277.296   0.100E-11
     TRS4 it   5 1.00000000   0.379E+01       0.012     2279.227   0.100E-11
     TRS4 it   6 1.00000000   0.974E+00       0.012     2281.828   0.100E-11
     TRS4 it   7 1.00000000   0.120E+00       0.012     2277.516   0.100E-11
     TRS4 it   8 1.00000000   0.285E-02       0.012     2300.778   0.100E-11
     TRS4 it   9 1.00000000   0.251E-05       0.012     2280.095   0.100E-11
     TRS4 it  10 1.00000000   0.662E-11       0.012     2280.895   0.100E-11
     Final TRS4 iteration   10 1.00000000   0.662E-11
     Chemical potential (mu):       0.05704
 
 PAO| energy:  -192.39603321875836      penalty:   3.9530731592233930E-004
 PAO|LS| adapt:  T T T
 PAO|LS| adapt: scan_steps:    0.0000000000000000       0.38885326885949462       0.77770653771898923     
 PAO|LS| adapt: energies:   -192.39600625307398       -192.39799733966862       -192.39603321875836     
 PAO|LS| adapt: suggested step_size:   0.39017882440958823     
 PAO|LS| adapt: predicted energy  -192.39799736264933     
 PAO| ======================= Iteration:        29 =============================

     Lanczos converged:  F threshold:   0.100E-02
     Est. extremal eigenvalues:    0.470E+01   0.133E+00
     Est. condition number :    0.355E+02

 Order=           3
     NS sqrt iter    1 1.00000000   0.121E+01       0.021     2746.422
     NS sqrt iter    2 1.00000000   0.616E+00       0.033     3466.354
     NS sqrt iter    3 1.00000000   0.197E+00       0.033     3440.843
     NS sqrt iter    4 1.00000000   0.244E-01       0.033     3399.438
     NS sqrt iter    5 1.00000000   0.100E-03       0.033     3461.522
     NS sqrt iter    6 1.00000000   0.189E-10       0.017     2229.231
     Symmetrizing Results
     Final NS sqrt iter    6 1.00000000   0.200E-11

     Est. extremal eigenvalues     -0.85071     2.59612  converged:  T
     TRS4 it   1 1.00000000   0.287E+02       0.006     2209.250   0.100E-11
     TRS4 it   2 1.00000000   0.236E+02       0.013     2240.113   0.100E-11
     TRS4 it   3 1.00000000   0.156E+02       0.012     2282.163   0.100E-11
     TRS4 it   4 1.00000000   0.911E+01       0.013     2234.379   0.100E-11
     TRS4 it   5 1.00000000   0.380E+01       0.013     2270.724   0.100E-11
     TRS4 it   6 1.00000000   0.980E+00       0.013     2265.974   0.100E-11
     TRS4 it   7 1.00000000   0.122E+00       0.012     2277.974   0.100E-11
     TRS4 it   8 1.00000000   0.291E-02       0.012     2278.149   0.100E-11
[...]
     TRS4 it   7 1.00000000   0.258E+00       0.013     2267.247   0.100E-11
     TRS4 it   8 1.00000000   0.152E-01       0.013     2265.390   0.100E-11
     TRS4 it   9 1.00000000   0.868E-04       0.013     2275.284   0.100E-11
     TRS4 it  10 1.00000000   0.609E-08       0.013     2243.685   0.100E-11
     TRS4 it  11 1.00000000   0.213E-13       0.013     2238.659   0.100E-11
     Final TRS4 iteration   11 1.00000000   0.213E-13
     Chemical potential (mu):       0.02407
 
 PAO| energy:  -192.04271623945314      penalty:   3.3255129227644684E-008
 PAO| Writing restart file.
     Est. extremal eigenvalues     -0.85078     2.57155  converged:  T
     TRS4 it   1 1.00000000   0.289E+02       0.006     2194.048   0.100E-11
     TRS4 it   2 1.00000000   0.237E+02       0.013     2258.010   0.100E-11
     TRS4 it   3 1.00000000   0.158E+02       0.013     2243.204   0.100E-11
     TRS4 it   4 1.00000000   0.947E+01       0.012     2279.309   0.100E-11
     TRS4 it   5 1.00000000   0.432E+01       0.013     2246.404   0.100E-11
     TRS4 it   6 1.00000000   0.138E+01       0.013     2260.873   0.100E-11
     TRS4 it   7 1.00000000   0.258E+00       0.013     2259.604   0.100E-11
     TRS4 it   8 1.00000000   0.152E-01       0.013     2250.461   0.100E-11
     TRS4 it   9 1.00000000   0.868E-04       0.012     2291.853   0.100E-11
     TRS4 it  10 1.00000000   0.609E-08       0.013     2267.937   0.100E-11
     TRS4 it  11 1.00000000   0.213E-13       0.012     2281.484   0.100E-11
     Final TRS4 iteration   11 1.00000000   0.213E-13
     Chemical potential (mu):       0.02407

 SCF     1     -1103.024256740     -1103.024256740    1.750226

*********************************************************
 Using MIXING_FRACTION=0.450 to mix KS matrix:  iscf=  2
 KS_nw=0.450*KS + 0.550*KS_old
*********************************************************
     Est. extremal eigenvalues     -0.85078     2.57155  converged:  T
     TRS4 it   1 1.00000000   0.289E+02       0.007     2153.310   0.100E-11
     TRS4 it   2 1.00000000   0.237E+02       0.013     2266.229   0.100E-11
     TRS4 it   3 1.00000000   0.158E+02       0.013     2244.420   0.100E-11
     TRS4 it   4 1.00000000   0.947E+01       0.013     2250.246   0.100E-11
     TRS4 it   5 1.00000000   0.432E+01       0.013     2274.539   0.100E-11
     TRS4 it   6 1.00000000   0.138E+01       0.013     2221.589   0.100E-11
     TRS4 it   7 1.00000000   0.258E+00       0.013     2213.480   0.100E-11
     TRS4 it   8 1.00000000   0.152E-01       0.013     2265.879   0.100E-11
     TRS4 it   9 1.00000000   0.868E-04       0.013     2269.362   0.100E-11
     TRS4 it  10 1.00000000   0.609E-08       0.013     2255.691   0.100E-11
     TRS4 it  11 1.00000000   0.355E-13       0.013     2229.981   0.100E-11
     Final TRS4 iteration   11 1.00000000   0.355E-13
     Chemical potential (mu):       0.02407

 SCF     2     -1103.024256740        -0.000000000    1.773531


 SCF run converged in     2 steps.

 PAO| Storing density matrix for ASPC guess in slot:           1

 ENERGY| Total FORCE_EVAL ( QS ) energy [a.u.]:            -1103.024256739804741

 -------------------------------------------------------------------------------
 -                                                                             -
 -                                DBCSR STATISTICS                             -
 -                                                                             -
 -------------------------------------------------------------------------------
 COUNTER                                    TOTAL       BLAS       SMM       ACC
 flops     5 x     5 x     4             26419200       0.0%    100.0%      0.0%     
 flops    13 x     5 x     4             34078720       0.0%    100.0%      0.0%     
 flops     5 x    13 x     4             34078720       0.0%    100.0%      0.0%     
 flops    13 x    13 x     4             44994560       0.0%    100.0%      0.0%     
 flops     4 x     4 x     5           6401556480       0.0%    100.0%      0.0%     
 flops     5 x     4 x     5           7870873600       0.0%    100.0%      0.0%     
 flops     4 x     4 x    13           8322023424       0.0%    100.0%      0.0%     
 flops    13 x     4 x     5          10232135680       0.0%    100.0%      0.0%     
 flops     5 x     4 x    13          10232135680       0.0%    100.0%      0.0%     
 flops    13 x     4 x    13          13301776384       0.0%    100.0%      0.0%     
 flops     5 x     4 x     4         392626158720       0.0%    100.0%      0.0%     
 flops    13 x     4 x     4         516784146112       0.0%    100.0%      0.0%     
 flops     4 x     4 x     4       29212731160960       0.0%    100.0%      0.0%     
 flops inhomo. stacks                           0       0.0%      0.0%      0.0%
 flops total                        30.178642E+12       0.0%    100.0%      0.0%
 flops max/rank                    952.083114E+09       0.0%    100.0%      0.0%
 matmuls inhomo. stacks                         0       0.0%      0.0%      0.0%
 matmuls total                       232069503637       0.0%    100.0%      0.0%
 number of processed stacks             237116938       0.0%    100.0%      0.0%
 average stack size                                     0.0     978.7       0.0
 marketing flops                    52.717607E+12
 -------------------------------------------------------------------------------
 # multiplications                          49506
 max memory usage/rank             617.742336E+06
 # max total images/rank                        2
 # max 3D layers                                1
 # MPI messages exchanged                20594496
 MPI messages size (bytes):
  total size                         2.426984E+12
  min size                           0.000000E+00
  max size                         541.696000E+03
  average size                     117.846266E+03
 MPI breakdown and total messages size (bytes):
             size <=      128              877293                     9600
       128 < size <=     8192              334314               1360137984
      8192 < size <=    32768               86999               2007850624
     32768 < size <=   131072             8802962             642665303808
    131072 < size <=  4194304            10492928            1781357129728
   4194304 < size <= 16777216                   0                        0
  16777216 < size                               0                        0
 -------------------------------------------------------------------------------

 *** WARNING in dbcsr_mm.F:301 :: Using a non-square number of MPI ranks ***
 *** might lead to poor performance. Used ranks: 32 Suggested: 36 64     ***

 -------------------------------------------------------------------------------
 -                                                                             -
 -                      DBCSR MESSAGE PASSING PERFORMANCE                      -
 -                                                                             -
 -------------------------------------------------------------------------------
 ROUTINE             CALLS      AVE VOLUME [Bytes]
 MP_Bcast               14                     12.
 MP_Allreduce       298329                     37.
 MP_Alltoall        127688                  14551.
 MP_ISend          1657288                  54808.
 MP_IRecv          1620740                  56102.
 -------------------------------------------------------------------------------

 -------------------------------------------------------------------------------
 -                                                                             -
 -                                DBM STATISTICS                               -
 -                                                                             -
 -------------------------------------------------------------------------------
    M  x    N  x    K                                          COUNT     PERCENT
 -------------------------------------------------------------------------------

 -------------------------------------------------------------------------------
 -                                                                             -
 -                                GRID STATISTICS                              -
 -                                                                             -
 -------------------------------------------------------------------------------
 LP    KERNEL             BACKEND                              COUNT     PERCENT
 2     collocate ortho    CPU                               13113680      28.83%
 2     integrate ortho    CPU                               13113680      28.83%
 3     collocate ortho    CPU                                8427680      18.53%
 3     integrate ortho    CPU                                8427680      18.53%
 4     collocate ortho    CPU                                1197312       2.63%
 4     integrate ortho    CPU                                1197312       2.63%
 0     collocate general  CPU                                   6144       0.01%
 -------------------------------------------------------------------------------

 MEMORY| Estimated peak process memory [MiB]                                 590

 -------------------------------------------------------------------------------
 -                                                                             -
 -                         MESSAGE PASSING PERFORMANCE                         -
 -                                                                             -
 -------------------------------------------------------------------------------

 ROUTINE             CALLS      AVE VOLUME [Bytes]
 MP_Group                5
 MP_Bcast           291051                   2222.
 MP_Allreduce       724216                    514.
 MP_Sync                 5
 MP_Alltoall           419                4970894.
 MP_SendRecv          1488                  18832.
 MP_ISendRecv         1488                  18832.
 MP_Wait              4218
 MP_ISend             2470                 108139.
 MP_IRecv             2470                 108153.
 -------------------------------------------------------------------------------


 -------------------------------------------------------------------------------
 -                                                                             -
 -                           R E F E R E N C E S                               -
 -                                                                             -
 -------------------------------------------------------------------------------
 
 CP2K version 2024.3 (Development Version), the CP2K developers group (2024).
 CP2K is freely available from https://www.cp2k.org/ .
 
 T. D. Kuehne, M. Iannuzzi, M. Del Ben, V. V. Rybkin, P. Seewald, F. Stein, T. 
 Laino, R. Z. Khaliullin, O. Schuett, F. Schiffmann, D. Golze, J. Wilhelm, S. 
 Chulkov, M. H. Bani-Hashemian, V. Weber, U. Borstnik, M. Taillefumier, A. S. 
 Jakobovits, A. Lazzaro, H. Pabst, T. Mueller, R. Schade, M. Guidon, S. 
 Andermatt, N. Holmberg, G. K. Schenter, A. Hehn, A. Bussy, F. Belleflamme, G. 
 Tabacchi, A. Gloess, M. Lass, I. Bethune, C. J. Mundy, C. Plessl, M. Watkins, 
 J. VandeVondele, M. Krack, J. Hutter.
 J. Chem. Phys. 152, 194103 (2020).
 CP2K: An electronic structure and molecular dynamics software package - 
 Quickstep: Efficient and accurate electronic structure calculations.
 https://doi.org/10.1063/5.0007045

 O. Schuett, J. VandeVondele.
 J. Chem. Theory Comput. 14, 4168-4175 (2018).
 Machine Learning Adaptive Basis Sets for Efficient Large Scale Density 
 Functional Theory Simulation.
 https://doi.org/10.1021/acs.jctc.8b00378

 O. Schuett, P. Messmer, J. Hutter, J. VandeVondele.
 Electronic Structure Calculations on Graphics Processing Units, 173-190 (2016).
 GPU-Accelerated Sparse Matrix-Matrix Multiplication for Linear Scaling Density 
 Functional Theory.
 https://doi.org/10.1002/9781118670712.ch8

 A. Heinecke, G. Henry, M. Hutchinson, H. Pabst.
 Proceedings of Intl. Supercomputing Conference, 981-991 (2016).
 LIBXSMM: Accelerating Small Matrix Multiplications by Runtime Code Generation.
 https://doi.org/10.1109/SC.2016.83

 J. Hutter, M. Iannuzzi, F. Schiffmann, J. VandeVondele.
 WIREs Comput Mol Sci. 4, 15-25 (2014).
 CP2K: atomistic simulations of condensed matter systems.
 https://doi.org/10.1002/wcms.1159

 U. Borstnik, J. VandeVondele, V. Weber, J. Hutter.
 Parallel Comput. 40, 47-58 (2014).
 Sparse matrix multiplication: The distributed block-compressed sparse row 
 library.
 https://doi.org/10.1016/j.parco.2014.03.012

 A. Marek, V. Blum, R. Johanni, V. Havu, B. Lang, T. Auckenthaler, A. Heinecke, 
 H. Bungartz, H. Lederer.
 J. Phys. Condens. Matter 26, 213201 (2014).
 The ELPA library: scalable parallel eigenvalue solutions for electronic 
 structure theory and computational science.
 https://doi.org/10.1088/0953-8984/26/21/213201

 J. VandeVondele, U. Borstnik, J. Hutter.
 J. Chem. Theory Comput. 8, 3565-3573 (2012).
 Linear Scaling Self-Consistent Field Calculations with Millions of Atoms in the 
 Condensed Phase.
 https://doi.org/10.1021/ct200897x

 J. VandeVondele, J. Hutter.
 J. Chem. Phys. 127, 114105 (2007).
 Gaussian basis sets for accurate calculations on molecular systems in gas and 
 condensed phases.
 https://doi.org/10.1063/1.2770708

 J. VandeVondele, M. Krack, F. Mohamed, M. Parrinello, T. Chassaing, J. Hutter.
 Comput. Phys. Commun. 167, 103-128 (2005).
 QUICKSTEP: Fast and accurate density functional calculations using a mixed 
 Gaussian and plane waves approach.
 https://doi.org/10.1016/j.cpc.2004.12.014

 M. Krack.
 Theor. Chem. Acc. 114, 145-152 (2005).
 Pseudopotentials for H to Kr optimized for gradient-corrected 
 exchange-correlation functionals.
 https://doi.org/10.1007/s00214-005-0655-y

 M. Frigo, S. G. Johnson.
 Proc. IEEE 93, 216-231 (2005).
 The design and implementation of FFTW3.
 https://doi.org/10.1109/JPROC.2004.840301

 A. M. N. Niklasson, C. J. Tymczak, M. Challacombe.
 J. Chem. Phys. 118, 8611-8620 (2003).
 Trace resetting density matrix purification in O(N) self-consistent-field 
 theory.
 https://doi.org/10.1063/1.1559913

 C. Hartwigsen, S. Goedecker, J. Hutter.
 Phys. Rev. B 58, 3641-3662 (1998).
 Relativistic separable dual-space Gaussian pseudopotentials from H to Rn.
 https://doi.org/10.1103/PhysRevB.58.3641

 G. Lippert, J. Hutter, M. Parrinello.
 Mol. Phys. 92, 477-487 (1997).
 A hybrid Gaussian and plane wave density functional scheme.
 https://doi.org/10.1080/002689797170220

 S. Goedecker, M. Teter, J. Hutter.
 Phys. Rev. B 54, 1703-1710 (1996).
 Separable dual-space Gaussian pseudopotentials.
 https://doi.org/10.1103/PhysRevB.54.1703

 J. P. Perdew, K. Burke, M. Ernzerhof.
 Phys. Rev. Lett. 77, 3865-3868 (1996).
 Generalized gradient approximation made simple.
 https://doi.org/10.1103/PhysRevLett.77.3865


 -------------------------------------------------------------------------------
 -                                                                             -
 -                                T I M I N G                                  -
 -                                                                             -
 -------------------------------------------------------------------------------
 SUBROUTINE                       CALLS  ASD         SELF TIME        TOTAL TIME
                                MAXIMUM       AVERAGE  MAXIMUM  AVERAGE  MAXIMUM
 CP2K                                 1  1.0    0.012    0.015  419.734  419.735
 qs_energies                          1  2.0    0.000    0.000  419.583  419.585
 ls_scf                               1  3.0    0.000    0.000  418.535  418.536
 pao_update                           7  4.0    0.006    0.024  388.778  388.779
 pao_calc_energy                    803  5.0    0.003    0.018  347.844  347.849
 dbcsr_multiply_generic           49506  8.4    1.388    1.479  333.874  334.298
 multiply_cannon                  49506  9.4    2.539    3.034  267.668  273.083
 multiply_cannon_loop             49506 10.4    1.776    2.038  257.003  263.280
 ls_scf_init_matrix_S               810  7.0    0.008    0.009  194.279  194.360
 pao_rebuild_S                      803  6.0    0.002    0.003  192.560  192.640
 matrix_sqrt_Newton_Schulz          810  8.0    0.165    0.283  179.641  179.667
 multiply_cannon_multrec         396048 11.4  174.308  176.528  175.119  177.359
 pao_dm_trs4                        803  6.0    0.006    0.007  154.903  154.924
 density_matrix_trs4                818  7.0    0.216    0.376  149.452  149.539
 mp_waitall_1                   3170132 12.6   78.791   86.533   78.791   86.533
 multiply_cannon_metrocomm3      396048 11.4    0.667    0.721   61.690   68.781
 make_m2s                         99012  9.4    0.539    0.729   49.825   51.205
 make_images                      99012 10.4    7.253    7.463   48.480   49.928
 arnoldi_extremal                  1628  8.5    0.012    0.014   47.539   47.572
 arnoldi_normal_ev                 1628  9.5    0.031    0.051   47.523   47.555
 build_subspace                    4677 10.6    0.287    0.309   42.002   42.040
 pao_calc_AB                       1062  5.8    0.002    0.002   40.482   40.484
 pao_calc_AB_equi                  1062  6.8    0.040    0.099   40.480   40.482
 pao_calc_grad_lnv_wrt_AB           258  7.0    0.019    0.025   40.073   40.120
 dbcsr_matrix_vector_mult        143566 11.6    0.615    0.930   39.622   40.031
 dbcsr_matrix_vector_mult_local  143566 12.6   33.851   34.123   34.012   34.283
 ls_scf_main                          7  4.0    0.000    0.001   26.339   26.340
 ls_scf_dm_to_ks                     15  5.0    0.000    0.000   23.426   23.430
 make_images_data                 99012 11.4    0.849    1.020   20.718   22.938
 hybrid_alltoall_any             100627 12.3    0.891    1.811   16.253   19.951
 mp_sum_l                        202439  9.5    8.901   17.881    8.901   17.881
 matrix_qs_to_ls                   1628  7.5    0.017    0.024   16.358   16.498
 qs_ks_update_qs_env                 16  6.0    0.000    0.000   13.927   13.929
 rebuild_ks_matrix                   16  7.0    0.000    0.000   13.916   13.918
 qs_ks_build_kohn_sham_matrix        16  8.0    0.003    0.003   13.916   13.918
 calculate_norms                 739488 11.4   11.383   12.430   11.383   12.430
 dbcsr_multiply_generic_mpsum_f   36424  9.5    0.026    0.033    5.441   12.254
 make_images_pack                 99012 11.4   10.957   11.279   11.092   11.419
 qs_rho_update_rho_low               16  6.0    0.000    0.000   10.964   10.967
 calculate_rho_elec                  16  7.0    0.005    0.006   10.964   10.967
 sum_up_and_integrate                16  9.0    0.000    0.001   10.537   10.539
 integrate_v_rspace                  16 10.0    0.000    0.001   10.521   10.524
 grid_collocate_task_list            16  8.0    9.724    9.867    9.724    9.867
 grid_integrate_task_list            16 11.0    9.289    9.417    9.289    9.417
 make_images_sizes                99012 11.4    0.057    0.071    4.567    8.763
 mp_alltoall_i44                  99012 12.4    4.510    8.706    4.510    8.706
 -------------------------------------------------------------------------------

 The number of warnings for this run is : 1
 
 -------------------------------------------------------------------------------
  **** **** ******  **  PROGRAM ENDED AT                 2024-09-24 05:57:11.323
 ***** ** ***  *** **   PROGRAM RAN ON                                    moritz
 **    ****   ******    PROGRAM RAN BY                                       ole
 ***** **    ** ** **   PROGRAM PROCESS ID                                169766
  **** **  *******  **  PROGRAM STOPPED IN /home/ole/git/pao_ml_equivar/64H2O_MD
                                           /Frame6100
