 DBCSR| CPU Multiplication driver                                           XSMM (U)
 DBCSR| Multrec recursion limit                                              512 (U)
 DBCSR| Multiplication stack size                                           1000 (D)
 DBCSR| Maximum elements for images                                    UNLIMITED (U)
 DBCSR| Multiplicative factor virtual images                                   1 (U)
 DBCSR| Use multiplication densification                                       T (D)
 DBCSR| Multiplication size stacks                                             3 (U)
 DBCSR| Use memory pool for CPU allocation                                     F (U)
 DBCSR| Number of 3D layers                                               SINGLE (U)
 DBCSR| Use MPI memory allocation                                              F (U)
 DBCSR| Use RMA algorithm                                                      F (U)
 DBCSR| Use Communication thread                                               T (U)
 DBCSR| Communication thread load                                             87 (D)
 DBCSR| MPI: My process id                                                     0
 DBCSR| MPI: Number of processes                                              32
 DBCSR| OMP: Current number of threads                                         1
 DBCSR| OMP: Max number of threads                                             1
 DBCSR| Split modifier for TAS multiplication algorithm                  1.0E+00 (U)


  **** **** ******  **  PROGRAM STARTED AT               2024-09-23 17:51:15.269
 ***** ** ***  *** **   PROGRAM STARTED ON                                moritz
 **    ****   ******    PROGRAM STARTED BY                                   ole
 ***** **    ** ** **   PROGRAM PROCESS ID                                160698
  **** **  *******  **  PROGRAM STARTED IN /home/ole/git/pao_ml_equivar/64H2O_MD
                                           /Frame6100

 CP2K| version string:                 CP2K version 2024.3 (Development Version)
 CP2K| source code revision number:                                  git:3f890bb
 CP2K| cp2kflags: omp libint fftw3 libxc libgrpp pexsi elpa parallel scalapack c
 CP2K|            osma quip deepmd xsmm plumed2 spglib libdftd4 sirius libvori l
 CP2K|            libbqb libvdwxc hdf5
 CP2K| is freely available from                            https://www.cp2k.org/
 CP2K| Program compiled at                          Mo 23 Sep 2024 17:17:04 CEST
 CP2K| Program compiled on                                                moritz
 CP2K| Program compiled for                                                local
 CP2K| Data directory path                               /home/ole/git/cp2k/data
 CP2K| Input file name                                             64H2O_ref.inp

 GLOBAL| Force Environment number                                              1
 GLOBAL| Basis set file name                                        BASIS_MOLOPT
 GLOBAL| Potential file name                                      GTH_POTENTIALS
 GLOBAL| MM Potential file name                                     MM_POTENTIAL
 GLOBAL| Coordinate file name                                         coords.xyz
 GLOBAL| Method name                                                        CP2K
 GLOBAL| Project name                                                  64H2O_ref
 GLOBAL| Run type                                                         ENERGY
 GLOBAL| FFT library                                                       FFTW3
 GLOBAL| Diagonalization library                                            ELPA
 GLOBAL| DGEMM library                                                      BLAS
 GLOBAL| Minimum number of eigenvectors for ELPA usage                        16
 GLOBAL| Orthonormality check for eigenvectors                          DISABLED
 GLOBAL| Matrix multiplication library                                     COSMA
 GLOBAL| All-to-all communication in single precision                          F
 GLOBAL| FFTs using library dependent lengths                                  F
 GLOBAL| Grid backend                                                       AUTO
 GLOBAL| Global print level                                                  LOW
 GLOBAL| MPI I/O enabled                                                       T
 GLOBAL| Total number of message passing processes                            32
 GLOBAL| Number of threads for this process                                    1
 GLOBAL| This output is from process                                           0
 GLOBAL| Stack size for threads created by OpenMP (OMP_STACKSIZE)        default
 GLOBAL| CPU model name           AMD Ryzen Threadripper 3970X 32-Core Processor
 GLOBAL| CPUID                                                              1002

 MEMORY| system memory details [Kb]
 MEMORY|                        rank 0           min           max       average
 MEMORY| MemTotal            131752136     131752136     131752136     131752136
 MEMORY| MemFree             117699724     117699724     117699724     117699724
 MEMORY| Buffers                260964        260964        260964        260964
 MEMORY| Cached                7753408       7753408       7753408       7753408
 MEMORY| Slab                   730504        730504        730504        730504
 MEMORY| SReclaimable           289680        289680        289680        289680
 MEMORY| MemLikelyFree       126003776     126003776     126003776     126003776


 GENERATE|  Preliminary Number of Bonds generated:                             0
 GENERATE|  Achieved consistency in connectivity generation.

 *******************************************************************************
 *******************************************************************************
 **                                                                           **
 **     #####                         ##              ##                      **
 **    ##   ##            ##          ##              ##                      **
 **   ##     ##                       ##            ######                    **
 **   ##     ##  ##   ##  ##   #####  ##  ##   ####   ##    #####    #####    **
 **   ##     ##  ##   ##  ##  ##      ## ##   ##      ##   ##   ##  ##   ##   **
 **   ##  ## ##  ##   ##  ##  ##      ####     ###    ##   ######   ######    **
 **    ##  ###   ##   ##  ##  ##      ## ##      ##   ##   ##       ##        **
 **     #######   #####   ##   #####  ##  ##  ####    ##    #####   ##        **
 **           ##                                                    ##        **
 **                                                                           **
 **                                                ... make the atoms dance   **
 **                                                                           **
 **            Copyright (C) by CP2K developers group (2000-2024)             **
 **                      J. Chem. Phys. 152, 194103 (2020)                    **
 **                                                                           **
 *******************************************************************************


 TOTAL NUMBERS AND MAXIMUM NUMBERS

  Total number of            - Atomic kinds:                                   2
                             - Atoms:                                        192
                             - Shell sets:                                   192
                             - Shells:                                       704
                             - Primitive Cartesian functions:               1344
                             - Cartesian basis functions:                   1536
                             - Spherical basis functions:                   1472

  Maximum angular momentum of- Orbital basis functions:                        2
                             - Local part of the GTH pseudopotential:          2
                             - Non-local part of the GTH pseudopotential:      0

 ------------------------------ Linear scaling SCF -----------------------------
 eps_scf:                                                              0.100E-07
 eps_filter:                                                           0.100E-11
 mixing_fraction:                                                      0.450E+00
 max_scf:                                                                     25
 fixed chemical potential (mu)                                                 F
 has unit metric:                                                              F
 Computing inv(S):                                                             T
 Computing sqrt(S):                                                            T
 Computing S preconditioner                                                    F
 S sqrt method:                                                     NEWTONSCHULZ
 S sqrt order:                                                                 3
 Extrapolation order:                                                          1
 S preconditioner type                                                      NONE
 Polarized Atomic Orbitals (PAO)                                               F
 Purification method                                   Trace resetting 4th order
 Cluster type                                                             ATOMIC
 Computing Chebyshev                                                       FALSE
 Using PAO                                                                     F
 -------------------------------------------------------------------------------


     Lanczos converged:  F threshold:   0.100E-02
     Est. extremal eigenvalues:    0.853E+01   0.534E-02
     Est. condition number :    0.160E+04

 Order=           3
     NS sqrt iter    1 1.00000000   0.220E+01       0.064     6224.382
     NS sqrt iter    2 1.00000000   0.115E+01       0.099     8051.225
     NS sqrt iter    3 1.00000000   0.574E+00       0.098     8147.538
     NS sqrt iter    4 1.00000000   0.331E+00       0.099     8055.604
     NS sqrt iter    5 1.00000000   0.225E+00       0.100     8009.328
     NS sqrt iter    6 1.00000000   0.105E+00       0.099     8059.814
     NS sqrt iter    7 1.00000000   0.132E-01       0.099     8094.157
     NS sqrt iter    8 1.00000000   0.644E-04       0.100     7956.608
     NS sqrt iter    9 1.00000000   0.316E-10       0.062     5760.328
     Symmetrizing Results
     Final NS sqrt iter    9 1.00000000   0.753E-11



 Guess for atomic kind: O

 Electronic structure
    Total number of core electrons                                          2.00
    Total number of valence electrons                                       6.00
    Total number of electrons                                               8.00
    Multiplicity                                                   not specified
    S   [  2.00] 2.00
    P      4.00


 *******************************************************************************
                  Iteration          Convergence                     Energy [au]
 *******************************************************************************
                          1        0.708315                     -15.576645311500
                          2        0.608879                     -15.587933561584
                          3        0.102828E-01                 -15.656849565404
                          4        0.113889E-02                 -15.656866888140
                          5        0.434197E-03                 -15.656867072159
                          6        0.263771E-03                 -15.656867091904
                          7        0.478536E-06                 -15.656867103452

 Energy components [Hartree]           Total Energy ::          -15.656867103452
                                        Band Energy ::           -3.000198112285
                                     Kinetic Energy ::           11.759971203220
                                   Potential Energy ::          -27.416838306672
                                      Virial (-V/T) ::            2.331369510426
                                        Core Energy ::          -26.140716385623
                                          XC Energy ::           -3.154051012914
                                     Coulomb Energy ::           13.637900295084
                       Total Pseudopotential Energy ::          -37.935781716540
                       Local Pseudopotential Energy ::          -39.218907440693
                    Nonlocal Pseudopotential Energy ::            1.283125724153
                                        Confinement ::            0.350941276976

 Orbital energies  State     L     Occupation   Energy[a.u.]          Energy[eV]

                       1     0          2.000      -0.864471          -23.523463

                       1     1          4.000      -0.317814           -8.648154


 Total Electron Density at R=0:                                         0.000068

 Guess for atomic kind: H

 Electronic structure
    Total number of core electrons                                          0.00
    Total number of valence electrons                                       1.00
    Total number of electrons                                               1.00
    Multiplicity                                                   not specified
    S      1.00


 *******************************************************************************
                  Iteration          Convergence                     Energy [au]
 *******************************************************************************
                          1        0.437545E-02                  -0.424159432110
                          2        0.531356E-03                  -0.424178438213
                          3        0.259176E-06                  -0.424178722480

 Energy components [Hartree]           Total Energy ::           -0.424178722480
                                        Band Energy ::           -0.199015229016
                                     Kinetic Energy ::            0.464007633961
                                   Potential Energy ::           -0.888186356441
                                      Virial (-V/T) ::            1.914163240935
                                        Core Energy ::           -0.479160803564
                                          XC Energy ::           -0.244352904054
                                     Coulomb Energy ::            0.299334985138
                       Total Pseudopotential Energy ::           -0.962295316385
                       Local Pseudopotential Energy ::           -0.962295316385
                    Nonlocal Pseudopotential Energy ::            0.000000000000
                                        Confinement ::            0.191268788606

 Orbital energies  State     L     Occupation   Energy[a.u.]          Energy[eV]

                       1     0          1.000      -0.199015           -5.415480


 Total Electron Density at R=0:                                         0.242907
 Re-scaling the density matrix to get the right number of electrons
                  # Electrons              Trace(P)               Scaling factor
                          512               512.001                        1.000
 Energy with the initial guess:     -1095.497236611

     Est. extremal eigenvalues     -0.94653     5.25349  converged:  F
     TRS4 it   1 1.00000000   0.566E+02       0.018     5499.784   0.100E-11
     TRS4 it   2 1.00000000   0.542E+02       0.019     5221.633   0.100E-11
     TRS4 it   3 1.00000000   0.340E+02       0.036     5575.983   0.100E-11
     TRS4 it   4 1.00000000   0.177E+02       0.036     5555.374   0.100E-11
     TRS4 it   5 1.00000000   0.107E+02       0.036     5599.838   0.100E-11
     TRS4 it   6 1.00000000   0.486E+01       0.036     5635.409   0.100E-11
     TRS4 it   7 1.00000000   0.145E+01       0.036     5532.758   0.100E-11
     TRS4 it   8 1.00000000   0.221E+00       0.036     5580.864   0.100E-11
     TRS4 it   9 1.00000000   0.960E-02       0.036     5622.887   0.100E-11
     TRS4 it  10 1.00000000   0.275E-04       0.037     5465.530   0.100E-11
     TRS4 it  11 1.00000000   0.744E-10       0.036     5576.546   0.100E-11
     Final TRS4 iteration   11 1.00000000   0.744E-10
     Chemical potential (mu):      -0.10809

 SCF     1     -1097.801466088     -1097.801466088    2.056651

*********************************************************
 Using MIXING_FRACTION=0.450 to mix KS matrix:  iscf=  2
 KS_nw=0.450*KS + 0.550*KS_old
*********************************************************
     Est. extremal eigenvalues     -0.84170     5.33990  converged:  T
     TRS4 it   1 1.00000000   0.559E+02       0.019     5319.953   0.100E-11
     TRS4 it   2 1.00000000   0.544E+02       0.018     5454.303   0.100E-11
     TRS4 it   3 1.00000000   0.352E+02       0.036     5503.377   0.100E-11
     TRS4 it   4 1.00000000   0.185E+02       0.036     5604.247   0.100E-11
     TRS4 it   5 1.00000000   0.120E+02       0.036     5606.302   0.100E-11
     TRS4 it   6 1.00000000   0.632E+01       0.036     5624.886   0.100E-11
     TRS4 it   7 1.00000000   0.256E+01       0.036     5604.837   0.100E-11
     TRS4 it   8 1.00000000   0.722E+00       0.036     5629.690   0.100E-11
     TRS4 it   9 1.00000000   0.114E+00       0.036     5624.812   0.100E-11
     TRS4 it  10 1.00000000   0.734E-02       0.036     5598.725   0.100E-11
     TRS4 it  11 1.00000000   0.285E-04       0.036     5559.339   0.100E-11
     TRS4 it  12 1.00000000   0.634E-09       0.036     5602.718   0.100E-11
     TRS4 it  13 1.00000000   0.320E-13       0.036     5645.737   0.100E-11
     Final TRS4 iteration   13 1.00000000   0.320E-13
     Chemical potential (mu):      -0.01936

 SCF     2     -1102.931527000        -5.130060912    2.104678

*********************************************************
 Using MIXING_FRACTION=0.450 to mix KS matrix:  iscf=  3
 KS_nw=0.450*KS + 0.550*KS_old
*********************************************************
     Est. extremal eigenvalues     -0.85661     5.33342  converged:  T
     TRS4 it   1 1.00000000   0.561E+02       0.018     5473.907   0.100E-11
     TRS4 it   2 1.00000000   0.544E+02       0.019     5421.666   0.100E-11
     TRS4 it   3 1.00000000   0.351E+02       0.037     5437.410   0.100E-11
     TRS4 it   4 1.00000000   0.185E+02       0.036     5587.867   0.100E-11
     TRS4 it   5 1.00000000   0.119E+02       0.037     5491.917   0.100E-11
     TRS4 it   6 1.00000000   0.617E+01       0.036     5552.705   0.100E-11
     TRS4 it   7 1.00000000   0.242E+01       0.036     5502.543   0.100E-11
     TRS4 it   8 1.00000000   0.641E+00       0.037     5485.823   0.100E-11
     TRS4 it   9 1.00000000   0.891E-01       0.036     5639.146   0.100E-11
     TRS4 it  10 1.00000000   0.408E-02       0.036     5520.496   0.100E-11
     TRS4 it  11 1.00000000   0.643E-05       0.036     5605.890   0.100E-11
     TRS4 it  12 1.00000000   0.221E-10       0.036     5647.031   0.100E-11
     Final TRS4 iteration   12 1.00000000   0.221E-10
     Chemical potential (mu):      -0.02740

 SCF     3     -1103.099560881        -0.168033881    2.070669

*********************************************************
 Using MIXING_FRACTION=0.450 to mix KS matrix:  iscf=  4
 KS_nw=0.450*KS + 0.550*KS_old
*********************************************************
     Est. extremal eigenvalues     -0.85245     5.33805  converged:  T
     TRS4 it   1 1.00000000   0.561E+02       0.018     5425.308   0.100E-11
     TRS4 it   2 1.00000000   0.544E+02       0.019     5344.577   0.100E-11
     TRS4 it   3 1.00000000   0.351E+02       0.036     5526.329   0.100E-11
     TRS4 it   4 1.00000000   0.186E+02       0.036     5508.555   0.100E-11
     TRS4 it   5 1.00000000   0.120E+02       0.036     5575.612   0.100E-11
     TRS4 it   6 1.00000000   0.626E+01       0.036     5525.044   0.100E-11
     TRS4 it   7 1.00000000   0.249E+01       0.036     5589.549   0.100E-11
     TRS4 it   8 1.00000000   0.684E+00       0.036     5595.977   0.100E-11
     TRS4 it   9 1.00000000   0.103E+00       0.036     5528.081   0.100E-11
     TRS4 it  10 1.00000000   0.599E-02       0.036     5539.086   0.100E-11
     TRS4 it  11 1.00000000   0.228E-04       0.036     5507.713   0.100E-11
     TRS4 it  12 1.00000000   0.603E-09       0.036     5608.704   0.100E-11
     TRS4 it  13 1.00000000   0.320E-13       0.036     5547.493   0.100E-11
     Final TRS4 iteration   13 1.00000000   0.320E-13
     Chemical potential (mu):      -0.02091

 SCF     4     -1103.108421545        -0.008860664    2.105874

*********************************************************
 Using MIXING_FRACTION=0.450 to mix KS matrix:  iscf=  5
 KS_nw=0.450*KS + 0.550*KS_old
*********************************************************
     Est. extremal eigenvalues     -0.85194     5.33911  converged:  T
     TRS4 it   1 1.00000000   0.561E+02       0.019     5356.574   0.100E-11
     TRS4 it   2 1.00000000   0.544E+02       0.019     5386.176   0.100E-11
     TRS4 it   3 1.00000000   0.351E+02       0.036     5519.443   0.100E-11
     TRS4 it   4 1.00000000   0.186E+02       0.035     5678.122   0.100E-11
     TRS4 it   5 1.00000000   0.120E+02       0.036     5518.856   0.100E-11
     TRS4 it   6 1.00000000   0.626E+01       0.036     5587.331   0.100E-11
     TRS4 it   7 1.00000000   0.249E+01       0.036     5551.828   0.100E-11
     TRS4 it   8 1.00000000   0.684E+00       0.036     5579.185   0.100E-11
     TRS4 it   9 1.00000000   0.103E+00       0.036     5585.303   0.100E-11
     TRS4 it  10 1.00000000   0.593E-02       0.036     5630.037   0.100E-11
     TRS4 it  11 1.00000000   0.214E-04       0.036     5609.987   0.100E-11
     TRS4 it  12 1.00000000   0.479E-09       0.036     5563.582   0.100E-11
     TRS4 it  13 1.00000000   0.355E-14       0.037     5491.189   0.100E-11
     Final TRS4 iteration   13 1.00000000   0.355E-14
     Chemical potential (mu):      -0.02061

 SCF     5     -1103.109135286        -0.000713741    2.105410

*********************************************************
 Using MIXING_FRACTION=0.450 to mix KS matrix:  iscf=  6
 KS_nw=0.450*KS + 0.550*KS_old
*********************************************************
     Est. extremal eigenvalues     -0.85147     5.33980  converged:  T
     TRS4 it   1 1.00000000   0.561E+02       0.019     5286.085   0.100E-11
     TRS4 it   2 1.00000000   0.544E+02       0.018     5508.385   0.100E-11
     TRS4 it   3 1.00000000   0.351E+02       0.036     5566.466   0.100E-11
     TRS4 it   4 1.00000000   0.186E+02       0.036     5558.127   0.100E-11
     TRS4 it   5 1.00000000   0.120E+02       0.036     5580.130   0.100E-11
     TRS4 it   6 1.00000000   0.628E+01       0.036     5618.730   0.100E-11
     TRS4 it   7 1.00000000   0.250E+01       0.036     5506.770   0.100E-11
     TRS4 it   8 1.00000000   0.690E+00       0.036     5542.661   0.100E-11
     TRS4 it   9 1.00000000   0.105E+00       0.036     5593.261   0.100E-11
     TRS4 it  10 1.00000000   0.628E-02       0.036     5509.803   0.100E-11
     TRS4 it  11 1.00000000   0.262E-04       0.036     5570.420   0.100E-11
     TRS4 it  12 1.00000000   0.820E-09       0.036     5556.797   0.100E-11
     TRS4 it  13 1.00000000   0.195E-13       0.036     5600.740   0.100E-11
     Final TRS4 iteration   13 1.00000000   0.195E-13
     Chemical potential (mu):      -0.01907

 SCF     6     -1103.109238334        -0.000103048    2.111707

*********************************************************
 Using MIXING_FRACTION=0.450 to mix KS matrix:  iscf=  7
 KS_nw=0.450*KS + 0.550*KS_old
*********************************************************
     Est. extremal eigenvalues     -0.85117     5.34016  converged:  T
     TRS4 it   1 1.00000000   0.561E+02       0.019     5300.130   0.100E-11
     TRS4 it   2 1.00000000   0.544E+02       0.019     5409.449   0.100E-11
     TRS4 it   3 1.00000000   0.351E+02       0.036     5552.995   0.100E-11
     TRS4 it   4 1.00000000   0.186E+02       0.036     5513.040   0.100E-11
     TRS4 it   5 1.00000000   0.120E+02       0.036     5547.770   0.100E-11
     TRS4 it   6 1.00000000   0.628E+01       0.036     5600.107   0.100E-11
     TRS4 it   7 1.00000000   0.250E+01       0.036     5612.914   0.100E-11
     TRS4 it   8 1.00000000   0.691E+00       0.036     5560.119   0.100E-11
     TRS4 it   9 1.00000000   0.106E+00       0.036     5520.857   0.100E-11
     TRS4 it  10 1.00000000   0.633E-02       0.036     5579.556   0.100E-11
     TRS4 it  11 1.00000000   0.267E-04       0.036     5617.660   0.100E-11
     TRS4 it  12 1.00000000   0.844E-09       0.036     5600.935   0.100E-11
     TRS4 it  13 1.00000000   0.888E-14       0.036     5580.054   0.100E-11
     Final TRS4 iteration   13 1.00000000   0.888E-14
     Chemical potential (mu):      -0.01875

 SCF     7     -1103.109259532        -0.000021197    2.104455

*********************************************************
 Using MIXING_FRACTION=0.450 to mix KS matrix:  iscf=  8
 KS_nw=0.450*KS + 0.550*KS_old
*********************************************************
     Est. extremal eigenvalues     -0.85104     5.34033  converged:  T
     TRS4 it   1 1.00000000   0.561E+02       0.019     5313.872   0.100E-11
     TRS4 it   2 1.00000000   0.544E+02       0.019     5322.239   0.100E-11
     TRS4 it   3 1.00000000   0.351E+02       0.037     5486.776   0.100E-11
     TRS4 it   4 1.00000000   0.186E+02       0.036     5525.769   0.100E-11
     TRS4 it   5 1.00000000   0.120E+02       0.036     5579.356   0.100E-11
     TRS4 it   6 1.00000000   0.628E+01       0.037     5485.465   0.100E-11
     TRS4 it   7 1.00000000   0.250E+01       0.035     5680.504   0.100E-11
     TRS4 it   8 1.00000000   0.692E+00       0.036     5621.751   0.100E-11
     TRS4 it   9 1.00000000   0.106E+00       0.036     5561.931   0.100E-11
     TRS4 it  10 1.00000000   0.639E-02       0.037     5458.020   0.100E-11
     TRS4 it  11 1.00000000   0.277E-04       0.036     5578.118   0.100E-11
     TRS4 it  12 1.00000000   0.933E-09       0.036     5611.498   0.100E-11
     TRS4 it  13 1.00000000   0.533E-14       0.036     5604.289   0.100E-11
     Final TRS4 iteration   13 1.00000000   0.533E-14
     Chemical potential (mu):      -0.01841

 SCF     8     -1103.109264588        -0.000005056    2.108389


 SCF run converged in     8 steps.

 Writing restart DM 64H2O_ref_LS_DM_SPIN_1_RESTART.dm with checksum:       0.60559604E+04

 ENERGY| Total FORCE_EVAL ( QS ) energy [a.u.]:            -1103.109264587919370

 -------------------------------------------------------------------------------
 -                                                                             -
 -                                DBCSR STATISTICS                             -
 -                                                                             -
 -------------------------------------------------------------------------------
 COUNTER                                    TOTAL       BLAS       SMM       ACC
 flops     5 x     5 x     5          82484242750       0.0%    100.0%      0.0%     
 flops     5 x    13 x     5         106797050100       0.0%    100.0%      0.0%     
 flops    13 x     5 x     5         106797086500       0.0%    100.0%      0.0%     
 flops     5 x     5 x    13         107343159300       0.0%    100.0%      0.0%     
 flops    13 x     5 x    13         139016782190       0.0%    100.0%      0.0%     
 flops     5 x    13 x    13         139024958410       0.0%    100.0%      0.0%     
 flops    13 x    13 x     5         140250186440       0.0%    100.0%      0.0%     
 flops    13 x    13 x    13         182614806972       0.0%    100.0%      0.0%     
 flops inhomo. stacks                           0       0.0%      0.0%      0.0%
 flops total                         1.004328E+12       0.0%    100.0%      0.0%
 flops max/rank                     32.246798E+09       0.0%    100.0%      0.0%
 matmuls inhomo. stacks                         0       0.0%      0.0%      0.0%
 matmuls total                         1112756711       0.0%    100.0%      0.0%
 number of processed stacks               1579504       0.0%    100.0%      0.0%
 average stack size                                     0.0     704.5       0.0
 marketing flops                     1.645785E+12
 -------------------------------------------------------------------------------
 # multiplications                            258
 max memory usage/rank             623.771648E+06
 # max total images/rank                        2
 # max 3D layers                                1
 # MPI messages exchanged                  107328
 MPI messages size (bytes):
  total size                        44.416319E+09
  min size                           0.000000E+00
  max size                         541.696000E+03
  average size                     413.837219E+03
 MPI breakdown and total messages size (bytes):
             size <=      128                 312                        0
       128 < size <=     8192                  42                   279312
      8192 < size <=    32768                  62                   841968
     32768 < size <=   131072                  12                  1508352
    131072 < size <=  4194304              106900              44413689728
   4194304 < size <= 16777216                   0                        0
  16777216 < size                               0                        0
 -------------------------------------------------------------------------------

 *** WARNING in dbcsr_mm.F:301 :: Using a non-square number of MPI ranks ***
 *** might lead to poor performance. Used ranks: 32 Suggested: 36 64     ***

 -------------------------------------------------------------------------------
 -                                                                             -
 -                      DBCSR MESSAGE PASSING PERFORMANCE                      -
 -                                                                             -
 -------------------------------------------------------------------------------
 ROUTINE             CALLS      AVE VOLUME [Bytes]
 MP_Bcast                9                     12.
 MP_Allreduce         1852                     34.
 MP_Alltoall           570                  33393.
 MP_ISend             9036                 170526.
 MP_IRecv             8646                 178843.
 -------------------------------------------------------------------------------

 -------------------------------------------------------------------------------
 -                                                                             -
 -                                DBM STATISTICS                               -
 -                                                                             -
 -------------------------------------------------------------------------------
    M  x    N  x    K                                          COUNT     PERCENT
 -------------------------------------------------------------------------------

 -------------------------------------------------------------------------------
 -                                                                             -
 -                                GRID STATISTICS                              -
 -                                                                             -
 -------------------------------------------------------------------------------
 LP    KERNEL             BACKEND                              COUNT     PERCENT
 2     collocate ortho    CPU                                7376445      28.83%
 2     integrate ortho    CPU                                7376445      28.83%
 3     collocate ortho    CPU                                4740570      18.53%
 3     integrate ortho    CPU                                4740570      18.53%
 4     collocate ortho    CPU                                 673488       2.63%
 4     integrate ortho    CPU                                 673488       2.63%
 0     collocate general  CPU                                   6144       0.02%
 -------------------------------------------------------------------------------

 MEMORY| Estimated peak process memory [MiB]                                 596

 -------------------------------------------------------------------------------
 -                                                                             -
 -                         MESSAGE PASSING PERFORMANCE                         -
 -                                                                             -
 -------------------------------------------------------------------------------

 ROUTINE             CALLS      AVE VOLUME [Bytes]
 MP_Group                5
 MP_Bcast             1991                 195505.
 MP_Allreduce         5425                    941.
 MP_Sync                 5
 MP_Alltoall           244               10387968.
 MP_SendRecv           837                  18832.
 MP_ISendRecv          837                  18832.
 MP_Wait              2391
 MP_ISend             1406                 108579.
 MP_IRecv             1406                 108603.
 -------------------------------------------------------------------------------


 -------------------------------------------------------------------------------
 -                                                                             -
 -                           R E F E R E N C E S                               -
 -                                                                             -
 -------------------------------------------------------------------------------
 
 CP2K version 2024.3 (Development Version), the CP2K developers group (2024).
 CP2K is freely available from https://www.cp2k.org/ .
 
 T. D. Kuehne, M. Iannuzzi, M. Del Ben, V. V. Rybkin, P. Seewald, F. Stein, T. 
 Laino, R. Z. Khaliullin, O. Schuett, F. Schiffmann, D. Golze, J. Wilhelm, S. 
 Chulkov, M. H. Bani-Hashemian, V. Weber, U. Borstnik, M. Taillefumier, A. S. 
 Jakobovits, A. Lazzaro, H. Pabst, T. Mueller, R. Schade, M. Guidon, S. 
 Andermatt, N. Holmberg, G. K. Schenter, A. Hehn, A. Bussy, F. Belleflamme, G. 
 Tabacchi, A. Gloess, M. Lass, I. Bethune, C. J. Mundy, C. Plessl, M. Watkins, 
 J. VandeVondele, M. Krack, J. Hutter.
 J. Chem. Phys. 152, 194103 (2020).
 CP2K: An electronic structure and molecular dynamics software package - 
 Quickstep: Efficient and accurate electronic structure calculations.
 https://doi.org/10.1063/5.0007045

 O. Schuett, P. Messmer, J. Hutter, J. VandeVondele.
 Electronic Structure Calculations on Graphics Processing Units, 173-190 (2016).
 GPU-Accelerated Sparse Matrix-Matrix Multiplication for Linear Scaling Density 
 Functional Theory.
 https://doi.org/10.1002/9781118670712.ch8

 A. Heinecke, G. Henry, M. Hutchinson, H. Pabst.
 Proceedings of Intl. Supercomputing Conference, 981-991 (2016).
 LIBXSMM: Accelerating Small Matrix Multiplications by Runtime Code Generation.
 https://doi.org/10.1109/SC.2016.83

 J. Hutter, M. Iannuzzi, F. Schiffmann, J. VandeVondele.
 WIREs Comput Mol Sci. 4, 15-25 (2014).
 CP2K: atomistic simulations of condensed matter systems.
 https://doi.org/10.1002/wcms.1159

 U. Borstnik, J. VandeVondele, V. Weber, J. Hutter.
 Parallel Comput. 40, 47-58 (2014).
 Sparse matrix multiplication: The distributed block-compressed sparse row 
 library.
 https://doi.org/10.1016/j.parco.2014.03.012

 A. Marek, V. Blum, R. Johanni, V. Havu, B. Lang, T. Auckenthaler, A. Heinecke, 
 H. Bungartz, H. Lederer.
 J. Phys. Condens. Matter 26, 213201 (2014).
 The ELPA library: scalable parallel eigenvalue solutions for electronic 
 structure theory and computational science.
 https://doi.org/10.1088/0953-8984/26/21/213201

 J. VandeVondele, U. Borstnik, J. Hutter.
 J. Chem. Theory Comput. 8, 3565-3573 (2012).
 Linear Scaling Self-Consistent Field Calculations with Millions of Atoms in the 
 Condensed Phase.
 https://doi.org/10.1021/ct200897x

 J. VandeVondele, J. Hutter.
 J. Chem. Phys. 127, 114105 (2007).
 Gaussian basis sets for accurate calculations on molecular systems in gas and 
 condensed phases.
 https://doi.org/10.1063/1.2770708

 J. VandeVondele, M. Krack, F. Mohamed, M. Parrinello, T. Chassaing, J. Hutter.
 Comput. Phys. Commun. 167, 103-128 (2005).
 QUICKSTEP: Fast and accurate density functional calculations using a mixed 
 Gaussian and plane waves approach.
 https://doi.org/10.1016/j.cpc.2004.12.014

 M. Krack.
 Theor. Chem. Acc. 114, 145-152 (2005).
 Pseudopotentials for H to Kr optimized for gradient-corrected 
 exchange-correlation functionals.
 https://doi.org/10.1007/s00214-005-0655-y

 M. Frigo, S. G. Johnson.
 Proc. IEEE 93, 216-231 (2005).
 The design and implementation of FFTW3.
 https://doi.org/10.1109/JPROC.2004.840301

 A. M. N. Niklasson, C. J. Tymczak, M. Challacombe.
 J. Chem. Phys. 118, 8611-8620 (2003).
 Trace resetting density matrix purification in O(N) self-consistent-field 
 theory.
 https://doi.org/10.1063/1.1559913

 C. Hartwigsen, S. Goedecker, J. Hutter.
 Phys. Rev. B 58, 3641-3662 (1998).
 Relativistic separable dual-space Gaussian pseudopotentials from H to Rn.
 https://doi.org/10.1103/PhysRevB.58.3641

 G. Lippert, J. Hutter, M. Parrinello.
 Mol. Phys. 92, 477-487 (1997).
 A hybrid Gaussian and plane wave density functional scheme.
 https://doi.org/10.1080/002689797170220

 S. Goedecker, M. Teter, J. Hutter.
 Phys. Rev. B 54, 1703-1710 (1996).
 Separable dual-space Gaussian pseudopotentials.
 https://doi.org/10.1103/PhysRevB.54.1703

 J. P. Perdew, K. Burke, M. Ernzerhof.
 Phys. Rev. Lett. 77, 3865-3868 (1996).
 Generalized gradient approximation made simple.
 https://doi.org/10.1103/PhysRevLett.77.3865


 -------------------------------------------------------------------------------
 -                                                                             -
 -                                T I M I N G                                  -
 -                                                                             -
 -------------------------------------------------------------------------------
 SUBROUTINE                       CALLS  ASD         SELF TIME        TOTAL TIME
                                MAXIMUM       AVERAGE  MAXIMUM  AVERAGE  MAXIMUM
 CP2K                                 1  1.0    0.013    0.017   20.670   20.670
 qs_energies                          1  2.0    0.000    0.000   20.504   20.504
 ls_scf                               1  3.0    0.000    0.000   19.314   19.315
 ls_scf_main                          1  4.0    0.000    0.000   16.768   16.769
 ls_scf_dm_to_ks                      8  5.0    0.000    0.000   12.375   12.379
 qs_ks_update_qs_env                  9  6.1    0.000    0.000    7.800    7.801
 rebuild_ks_matrix                    9  7.1    0.000    0.000    7.794    7.794
 qs_ks_build_kohn_sham_matrix         9  8.1    0.002    0.002    7.793    7.794
 qs_rho_update_rho_low                9  6.1    0.000    0.000    6.129    6.133
 calculate_rho_elec                   9  7.1    0.003    0.003    6.129    6.133
 sum_up_and_integrate                 9  9.1    0.000    0.000    5.895    5.896
 integrate_v_rspace                   9 10.1    0.000    0.000    5.887    5.889
 grid_collocate_task_list             9  8.1    5.439    5.522    5.439    5.522
 grid_integrate_task_list             9 11.1    5.207    5.277    5.207    5.277
 dbcsr_multiply_generic             258  6.1    0.013    0.013    4.844    4.848
 density_matrix_trs4                  8  5.0    0.004    0.006    4.388    4.392
 multiply_cannon                    258  7.1    0.019    0.024    3.931    4.026
 multiply_cannon_loop               258  8.1    0.020    0.022    3.854    3.925
 ls_scf_init_scf                      1  4.0    0.000    0.000    2.482    2.483
 multiply_cannon_multrec           2064  9.1    2.186    2.230    2.193    2.237
 mp_waitall_1                     17497 10.5    1.805    1.942    1.805    1.942
 fft_wrap_pw1pw2                    172 11.3    0.003    0.003    1.761    1.786
 fft_wrap_pw1pw2_200                100 12.8    0.103    0.112    1.689    1.733
 qs_vxc_create                        9  9.1    0.000    0.000    1.549    1.578
 xc_vxc_pw_create                     9 10.1    0.013    0.018    1.549    1.577
 ls_scf_initial_guess                 1  5.0    0.000    0.000    1.558    1.560
 ls_scf_qs_atomic_guess               1  6.0    0.000    0.000    1.558    1.560
 multiply_cannon_metrocomm3        2064  9.1    0.006    0.006    1.410    1.556
 fft3d_ps                           172 13.3    0.722    0.811    1.326    1.365
 qs_energies_init_hamiltonians        1  3.0    0.000    0.000    1.189    1.189
 xc_pw_derive                        54 12.1    0.001    0.001    1.099    1.180
 build_core_hamiltonian_matrix        1  4.0    0.000    0.000    0.748    0.999
 ls_scf_init_matrix_S                 1  5.0    0.000    0.000    0.924    0.925
 matrix_sqrt_Newton_Schulz            1  6.0    0.001    0.001    0.900    0.901
 xc_rho_set_and_dset_create           9 11.1    0.020    0.026    0.781    0.802
 xc_pw_divergence                     9 11.1    0.000    0.000    0.736    0.778
 build_core_ppl                       1  5.0    0.517    0.749    0.517    0.749
 mp_waitany                        1406 12.5    0.606    0.748    0.606    0.748
 density_rs2pw                        9  8.1    0.000    0.000    0.657    0.727
 make_m2s                           516  7.1    0.005    0.007    0.710    0.723
 make_images                        516  8.1    0.041    0.042    0.699    0.714
 transfer_rs2pw                      46  9.0    0.001    0.001    0.544    0.686
 mp_alltoall_z22v                   172 15.3    0.426    0.617    0.426    0.617
 potential_pw2rs                      9 11.1    0.001    0.001    0.597    0.599
 transfer_rs2pw_200                  10  9.8    0.037    0.053    0.441    0.580
 qs_env_update_s_mstruct              1  4.0    0.000    0.000    0.421    0.528
 make_images_data                   516  9.1    0.006    0.008    0.389    0.422
 -------------------------------------------------------------------------------

 The number of warnings for this run is : 1
 
 -------------------------------------------------------------------------------
  **** **** ******  **  PROGRAM ENDED AT                 2024-09-23 17:51:36.538
 ***** ** ***  *** **   PROGRAM RAN ON                                    moritz
 **    ****   ******    PROGRAM RAN BY                                       ole
 ***** **    ** ** **   PROGRAM PROCESS ID                                160698
  **** **  *******  **  PROGRAM STOPPED IN /home/ole/git/pao_ml_equivar/64H2O_MD
                                           /Frame6100
