 DBCSR| CPU Multiplication driver                                           XSMM
 DBCSR| Multrec recursion limit                                              512
 DBCSR| Multiplication stack size                                           1000
 DBCSR| Maximum elements for images                                    UNLIMITED
 DBCSR| Multiplicative factor virtual images                                   1
 DBCSR| Use multiplication densification                                       T
 DBCSR| Multiplication size stacks                                             3


  **** **** ******  **  PROGRAM STARTED AT               2019-02-14 01:10:46.361
 ***** ** ***  *** **   PROGRAM STARTED ON                                  otto
 **    ****   ******    PROGRAM STARTED BY                                   ole
 ***** **    ** ** **   PROGRAM PROCESS ID                                  6007
  **** **  *******  **  PROGRAM STARTED IN /home/ole/git/pao_ml_equivar/2H2O_MD/
                                           frame_0200

 CP2K| version string:                    CP2K version 7.0 (Development Version)
 CP2K| source code revision number:                                git:8bf305913
 CP2K| cp2kflags: libint fftw3 libxc xsmm libderiv_max_am1=5 libint_max_am=6    
 CP2K| is freely available from                            https://www.cp2k.org/
 CP2K| Program compiled at                           So Jan 13 00:02:37 CET 2019
 CP2K| Program compiled on                                                  otto
 CP2K| Program compiled for                                                local
 CP2K| Data directory path                               /home/ole/git/cp2k/data
 CP2K| Input file name                                            2H2O_pao44.inp

 GLOBAL| Force Environment number                                              1
 GLOBAL| Basis set file name                                        BASIS_MOLOPT
 GLOBAL| Potential file name                                      GTH_POTENTIALS
 GLOBAL| MM Potential file name                                     MM_POTENTIAL
 GLOBAL| Coordinate file name                                         coords.xyz
 GLOBAL| Method name                                                        CP2K
 GLOBAL| Project name                                                 2H2O_pao44
 GLOBAL| Preferred FFT library                                             FFTW3
 GLOBAL| Preferred diagonalization lib.                                       SL
 GLOBAL| Run type                                                         ENERGY
 GLOBAL| All-to-all communication in single precision                          F
 GLOBAL| FFTs using library dependent lengths                                  F
 GLOBAL| Global print level                                                  LOW
 GLOBAL| MPI I/O enabled                                                       T
 GLOBAL| Total number of message passing processes                             1
 GLOBAL| Number of threads for this process                                    1
 GLOBAL| This output is from process                                           0
 GLOBAL| CPU model name :  Intel(R) Core(TM) i5-3320M CPU @ 2.60GHz

 MEMORY| system memory details [Kb]
 MEMORY|                        rank 0           min           max       average
 MEMORY| MemTotal              7860772       7860772       7860772       7860772
 MEMORY| MemFree               2119512       2119512       2119512       2119512
 MEMORY| Buffers                280880        280880        280880        280880
 MEMORY| Cached                1929948       1929948       1929948       1929948
 MEMORY| Slab                   255640        255640        255640        255640
 MEMORY| SReclaimable           133252        133252        133252        133252
 MEMORY| MemLikelyFree         4463592       4463592       4463592       4463592


 GENERATE|  Preliminary Number of Bonds generated:                             0
 GENERATE|  Achieved consistency in connectivity generation.

 *******************************************************************************
 *******************************************************************************
 **                                                                           **
 **     #####                         ##              ##                      **
 **    ##   ##            ##          ##              ##                      **
 **   ##     ##                       ##            ######                    **
 **   ##     ##  ##   ##  ##   #####  ##  ##   ####   ##    #####    #####    **
 **   ##     ##  ##   ##  ##  ##      ## ##   ##      ##   ##   ##  ##   ##   **
 **   ##  ## ##  ##   ##  ##  ##      ####     ###    ##   ######   ######    **
 **    ##  ###   ##   ##  ##  ##      ## ##      ##   ##   ##       ##        **
 **     #######   #####   ##   #####  ##  ##  ####    ##    #####   ##        **
 **           ##                                                    ##        **
 **                                                                           **
 **                                                ... make the atoms dance   **
 **                                                                           **
 **            Copyright (C) by CP2K developers group (2000 - 2018)           **
 **                                                                           **
 *******************************************************************************


 TOTAL NUMBERS AND MAXIMUM NUMBERS

  Total number of            - Atomic kinds:                                   2
                             - Atoms:                                          6
                             - Shell sets:                                     6
                             - Shells:                                        22
                             - Primitive Cartesian functions:                 42
                             - Cartesian basis functions:                     48
                             - Spherical basis functions:                     46

  Maximum angular momentum of- Orbital basis functions:                        2
                             - Local part of the GTH pseudopotential:          2
                             - Non-local part of the GTH pseudopotential:      0

 ------------------------------ Linear scaling SCF -----------------------------
 eps_scf:                                       0.100E-07
 eps_filter:                                    0.100E-07
 mixing_fraction:                               0.450E+00
 max_scf:                                              25
 fixed chemical potential (mu)                          F
 has unit metric:                                       F
 Computing inv(S):                                      T
 Computing sqrt(S):                                     T
 Computing s preconditioner                             F
 sign sqrt order:                                       3
 Extrapolation order:                                   1
 Use single precision matrices                          F
 S preconditioner type                               NONE
 Polarized Atomic Orbitals (PAO)                        T
 Purification method                      Trace resetting 4th order
 Cluster type                                      ATOMIC
 Computing Chebyshev                                FALSE
 Using PAO                                              T
 -------------------------------------------------------------------------------

 
 PAO|                                  EPS_PAO                           0.5E-06
 PAO|                                  MIXING                            0.5E+00
 PAO|                                  MAX_PAO                              1000
 PAO|                                  MAX_CYCLES                           1000
 PAO|                                  PARAMETERIZATION                   DIRECT
 PAO|                                  PRECONDITION                            F
 PAO|                                  REGULARIZATION                    0.0E+00
 PAO|                                  EPS_PGF                           0.1E-09
 PAO|                                  PENALTY_DISTANCE                  0.1E+00
 PAO|                                  PENALTY_STRENGTH                  0.5E-02
 PAO|                                  LINPOT_PRECONDITION_DELTA         0.0E+00
 PAO|                                  LINPOT_INITGUESS_DELT             0.0E+00
 PAO|                                  LINPOT_REGULARIZATION_DELTA       0.0E+00
 PAO|                                  LINPOT_REGULARIZATION_STRENGTH    0.0E+00
 PAO|                                  OPTIMIZER                              CG
 PAO|                                  CG_INIT_STEPS                           2
 PAO|                                  CG_RESET_LIMIT                    0.1E+00
 PAO|                                  CHECK_UNITARY_TOL                -0.1E+01
 PAO|                                  CHECK_GRADIENT_TOL               -0.1E+01
 PAO|                                  NUM_GRADIENT_ORDER                      2
 PAO|                                  NUM_GRADIENT_EPS                  0.1E-07
 PAO|                                  PRINT%RESTART%WRITE_CYCLES            100
 PAO|                                  RESTART_FILE 
 PAO|                                  PREOPT_DM_FILE 2H2O_ref_LS_DM_SPIN_1_RESTART.dm
 PAO|                                  MACHINE_LEARNING%METHOD        GAUSSIAN_P
 PAO|                                  MACHINE_LEARNING%PRIOR               ZERO
 PAO|                                  MACHINE_LEARNING%DESCRIPTOR     POTENTIAL
 PAO|                                  MACHINE_LEARNING%TOLERANCE        0.1E-01
 PAO|                                  MACHINE_LEARNING%GP_NOISE_VAR     0.1E+00
 PAO|                                  MACHINE_LEARNING%GP_SCALE         0.5E-01
 

 Calculating atomic Fock matrix for atomic kind: O

 Electronic structure
    Total number of core electrons                                          2.00
    Total number of valence electrons                                       6.00
    Total number of electrons                                               8.00
    Multiplicity                                                   not specified
    S   [  2.00] 2.00
    P      4.00


 *******************************************************************************
                  Iteration          Convergence                     Energy [au]
 *******************************************************************************
                          1        0.708315                     -15.576645311500
                          2        0.608879                     -15.587933561584
                          3        0.102828E-01                 -15.656849565404
                          4        0.113889E-02                 -15.656866888140
                          5        0.434197E-03                 -15.656867072159
                          6        0.263771E-03                 -15.656867091904
                          7        0.478536E-06                 -15.656867103452

 Energy components [Hartree]           Total Energy ::          -15.656867103452
                                        Band Energy ::           -3.000198112285
                                     Kinetic Energy ::           11.759971203220
                                   Potential Energy ::          -27.416838306672
                                      Virial (-V/T) ::            2.331369510426
                                        Core Energy ::          -26.140716385623
                                          XC Energy ::           -3.154051012914
                                     Coulomb Energy ::           13.637900295084
                       Total Pseudopotential Energy ::          -37.935781716540
                       Local Pseudopotential Energy ::          -39.218907440693
                    Nonlocal Pseudopotential Energy ::            1.283125724153
                                        Confinement ::            0.350941276976

 Orbital energies  State     L     Occupation   Energy[a.u.]          Energy[eV]

                       1     0          2.000      -0.864471          -23.523463

                       1     1          4.000      -0.317814           -8.648154


 Total Electron Density at R=0:                                         0.000068

 Calculating atomic Fock matrix for atomic kind: H

 Electronic structure
    Total number of core electrons                                          0.00
    Total number of valence electrons                                       1.00
    Total number of electrons                                               1.00
    Multiplicity                                                   not specified
    S      1.00


 *******************************************************************************
                  Iteration          Convergence                     Energy [au]
 *******************************************************************************
                          1        0.437545E-02                  -0.424159432110
                          2        0.531356E-03                  -0.424178438213
                          3        0.259176E-06                  -0.424178722480

 Energy components [Hartree]           Total Energy ::           -0.424178722480
                                        Band Energy ::           -0.199015229016
                                     Kinetic Energy ::            0.464007633961
                                   Potential Energy ::           -0.888186356441
                                      Virial (-V/T) ::            1.914163240935
                                        Core Energy ::           -0.479160803564
                                          XC Energy ::           -0.244352904054
                                     Coulomb Energy ::            0.299334985138
                       Total Pseudopotential Energy ::           -0.962295316385
                       Local Pseudopotential Energy ::           -0.962295316385
                    Nonlocal Pseudopotential Energy ::            0.000000000000
                                        Confinement ::            0.191268788606

 Orbital energies  State     L     Occupation   Energy[a.u.]          Energy[eV]

                       1     0          1.000      -0.199015           -5.415480


 Total Electron Density at R=0:                                         0.242907
 PAO| Made initial guess for matrix_X with norm:   4.8989794855663558     

     Lanczos converged:  T threshold:   0.100E-02
     Est. extremal eigenvalues:    0.335E+01   0.122E+00
     Est. condition number :    0.275E+02
     NS sqrt iter    1 1.00000000   0.819E+00       0.001       46.345
     NS sqrt iter    2 1.00000000   0.433E+00       0.001       82.977
     NS sqrt iter    3 1.00000000   0.161E+00       0.001       83.145
     NS sqrt iter    4 1.00000000   0.173E-01       0.001       83.862
     NS sqrt iter    5 1.00000000   0.319E-04       0.001       65.498
     Final NS sqrt iter    5 1.00000000   0.155E-08

 PAO| Read restart DM 2H2O_ref_LS_DM_SPIN_1_RESTART.dm with checksum:    62.048265508164128     
 PAO| Quickstep energy from restart density:  -34.447326799299077     
 PAO| ======================= Iteration:         1 =============================

     Lanczos converged:  T threshold:   0.100E-02
     Est. extremal eigenvalues:    0.335E+01   0.122E+00
     Est. condition number :    0.275E+02
     NS sqrt iter    1 1.00000000   0.819E+00       0.001       64.512
     NS sqrt iter    2 1.00000000   0.433E+00       0.001       81.570
     NS sqrt iter    3 1.00000000   0.161E+00       0.001       94.244
     NS sqrt iter    4 1.00000000   0.173E-01       0.001      110.592
     NS sqrt iter    5 1.00000000   0.319E-04       0.001       84.096
     Final NS sqrt iter    5 1.00000000   0.155E-08

     Est. extremal eigenvalues     -0.90336     1.73246  converged:  T
     TRS4 it   1 1.00000000   0.844E+00       0.000       16.128   0.100E-07
     TRS4 it   2 1.00000000   0.660E+00       0.001       32.256   0.100E-07
     TRS4 it   3 1.00000000   0.486E+00       0.001       32.256   0.100E-07
     TRS4 it   4 1.00000000   0.308E+00       0.001       32.256   0.100E-07
     TRS4 it   5 1.00000000   0.154E+00       0.001       32.256   0.100E-07
     TRS4 it   6 1.00000000   0.469E-01       0.001       32.256   0.100E-07
     TRS4 it   7 1.00000000   0.608E-02       0.001       32.256   0.100E-07
     TRS4 it   8 1.00000000   0.136E-03       0.001       32.256   0.100E-07
     TRS4 it   9 1.00000000   0.764E-07       0.001       32.256   0.100E-07
     Final TRS4 iteration    9 1.00000000   0.764E-07
     Chemical potential (mu):      -0.07904
 
 PAO| energy:  -7.5669412064575319      penalty:   6.7176436460226805E-033
 PAO|CG| warming up with steepest descent
 PAO|CG| beta:    0.0000000000000000     
 PAO| norm of gradient:  0.77218556580962161     
 PAO|LS| adapt:  T F F
 PAO|LS| adapt: scan_steps:    0.0000000000000000        0.0000000000000000        0.0000000000000000     
 PAO|LS| adapt: energies:   -7.5669412064575319        0.0000000000000000        0.0000000000000000     
 PAO| ======================= Iteration:         2 =============================

     Lanczos converged:  T threshold:   0.100E-02
     Est. extremal eigenvalues:    0.327E+01   0.137E+00
     Est. condition number :    0.238E+02
     NS sqrt iter    1 1.00000000   0.803E+00       0.001       60.608
     NS sqrt iter    2 1.00000000   0.417E+00       0.001      109.770
     NS sqrt iter    3 1.00000000   0.144E+00       0.001      110.592
     NS sqrt iter    4 1.00000000   0.118E-01       0.001      110.592
     NS sqrt iter    5 1.00000000   0.927E-05       0.001       82.944
     Final NS sqrt iter    5 1.00000000   0.129E-09

     Est. extremal eigenvalues     -0.90674     1.67834  converged:  T
     TRS4 it   1 1.00000000   0.837E+00       0.000       16.128   0.100E-07
     TRS4 it   2 1.00000000   0.641E+00       0.001       32.256   0.100E-07
     TRS4 it   3 1.00000000   0.467E+00       0.001       32.256   0.100E-07
     TRS4 it   4 1.00000000   0.286E+00       0.001       32.256   0.100E-07
     TRS4 it   5 1.00000000   0.133E+00       0.001       32.256   0.100E-07
     TRS4 it   6 1.00000000   0.352E-01       0.001       32.256   0.100E-07
     TRS4 it   7 1.00000000   0.349E-02       0.001       32.256   0.100E-07
     TRS4 it   8 1.00000000   0.452E-04       0.001       32.256   0.100E-07
     TRS4 it   9 1.00000000   0.847E-08       0.001       32.256   0.100E-07
     Final TRS4 iteration    9 1.00000000   0.847E-08
     Chemical potential (mu):      -0.06837
 
 PAO| energy:  -7.6208259676860877      penalty:   2.1434727243956558E-008
 PAO|LS| adapt:  T T F
 PAO|LS| adapt: scan_steps:    0.0000000000000000       0.10000000000000001        0.0000000000000000     
 PAO|LS| adapt: energies:   -7.5669412064575319       -7.6208259676860877        0.0000000000000000     
 PAO| ======================= Iteration:         3 =============================

     Lanczos converged:  T threshold:   0.100E-02
     Est. extremal eigenvalues:    0.317E+01   0.151E+00
     Est. condition number :    0.210E+02
     NS sqrt iter    1 1.00000000   0.786E+00       0.001       54.474
     NS sqrt iter    2 1.00000000   0.401E+00       0.001      110.592
     NS sqrt iter    3 1.00000000   0.128E+00       0.001      110.592
     NS sqrt iter    4 1.00000000   0.803E-02       0.001      110.592
     NS sqrt iter    5 1.00000000   0.266E-05       0.001       82.944
     Final NS sqrt iter    5 1.00000000   0.101E-10

     Est. extremal eigenvalues     -0.90992     1.63833  converged:  T
     TRS4 it   1 1.00000000   0.832E+00       0.000       16.128   0.100E-07
     TRS4 it   2 1.00000000   0.626E+00       0.001       32.256   0.100E-07
     TRS4 it   3 1.00000000   0.449E+00       0.001       32.256   0.100E-07
     TRS4 it   4 1.00000000   0.264E+00       0.001       32.256   0.100E-07
     TRS4 it   5 1.00000000   0.113E+00       0.001       32.256   0.100E-07
     TRS4 it   6 1.00000000   0.256E-01       0.001       32.256   0.100E-07
     TRS4 it   7 1.00000000   0.185E-02       0.001       32.256   0.100E-07
     TRS4 it   8 1.00000000   0.128E-04       0.001       32.256   0.100E-07
     TRS4 it   9 1.00000000   0.681E-09       0.001       32.256   0.100E-07
     Final TRS4 iteration    9 1.00000000   0.681E-09
     Chemical potential (mu):      -0.05649
 
 PAO| energy:  -7.6625843910755487      penalty:   3.4295389211599197E-007
 PAO|LS| adapt:  T T F
 PAO|LS| adapt: scan_steps:    0.0000000000000000       0.20000000000000001        0.0000000000000000     
 PAO|LS| adapt: energies:   -7.5669412064575319       -7.6625843910755487        0.0000000000000000     
 PAO| ======================= Iteration:         4 =============================

     Lanczos converged:  T threshold:   0.100E-02
     Est. extremal eigenvalues:    0.298E+01   0.172E+00
     Est. condition number :    0.173E+02
     NS sqrt iter    1 1.00000000   0.748E+00       0.001       64.512
     NS sqrt iter    2 1.00000000   0.367E+00       0.001      110.592
     NS sqrt iter    3 1.00000000   0.990E-01       0.001       97.168
     NS sqrt iter    4 1.00000000   0.377E-02       0.001      110.592
     NS sqrt iter    5 1.00000000   0.299E-06       0.001       81.024
     Final NS sqrt iter    5 1.00000000   0.609E-09

     Est. extremal eigenvalues     -0.91499     1.59332  converged:  T
     TRS4 it   1 1.00000000   0.830E+00       0.000       16.128   0.100E-07
     TRS4 it   2 1.00000000   0.603E+00       0.001       32.256   0.100E-07
     TRS4 it   3 1.00000000   0.419E+00       0.001       32.256   0.100E-07
     TRS4 it   4 1.00000000   0.226E+00       0.001       32.256   0.100E-07
     TRS4 it   5 1.00000000   0.815E-01       0.001       32.256   0.100E-07
     TRS4 it   6 1.00000000   0.128E-01       0.001       32.256   0.100E-07
     TRS4 it   7 1.00000000   0.440E-03       0.001       32.256   0.100E-07
     TRS4 it   8 1.00000000   0.724E-06       0.001       32.256   0.100E-07
     TRS4 it   9 1.00000000   0.224E-11       0.001       32.256   0.100E-07
     Final TRS4 iteration    9 1.00000000   0.224E-11
     Chemical potential (mu):      -0.03000
 
 PAO| energy:  -7.7081523394526874      penalty:   5.4872483357808359E-006
 PAO|LS| Need extra step
 PAO|LS| adapt:  T T F
 PAO|LS| adapt: scan_steps:    0.0000000000000000       0.40000000000000002        0.0000000000000000     
 PAO|LS| adapt: energies:   -7.5669412064575319       -7.7081523394526874        0.0000000000000000     
 PAO| ======================= Iteration:         5 =============================

     Lanczos converged:  T threshold:   0.100E-02
     Est. extremal eigenvalues:    0.261E+01   0.195E+00
     Est. condition number :    0.134E+02
     NS sqrt iter    1 1.00000000   0.681E+00       0.001       43.221
     NS sqrt iter    2 1.00000000   0.304E+00       0.001      109.157
     NS sqrt iter    3 1.00000000   0.594E-01       0.001      110.592
     NS sqrt iter    4 1.00000000   0.973E-03       0.001       99.676
     NS sqrt iter    5 1.00000000   0.554E-08       0.001       37.888
     Final NS sqrt iter    5 1.00000000   0.567E-08

     Est. extremal eigenvalues     -0.91685     1.56816  converged:  T
     TRS4 it   1 1.00000000   0.840E+00       0.000       16.128   0.100E-07
     TRS4 it   2 1.00000000   0.578E+00       0.001       32.256   0.100E-07
     TRS4 it   3 1.00000000   0.379E+00       0.001       32.256   0.100E-07
     TRS4 it   4 1.00000000   0.175E+00       0.001       32.256   0.100E-07
     TRS4 it   5 1.00000000   0.449E-01       0.001       32.256   0.100E-07
     TRS4 it   6 1.00000000   0.336E-02       0.001       32.256   0.100E-07
     TRS4 it   7 1.00000000   0.234E-04       0.001       32.256   0.100E-07
     TRS4 it   8 1.00000000   0.160E-08       0.001       32.256   0.100E-07
     Final TRS4 iteration    8 1.00000000   0.160E-08
     Chemical potential (mu):       0.02245
 
 PAO| energy:  -7.6536950967348618      penalty:   8.7795861916789577E-005
 PAO|LS| Need extra step
 PAO|LS| adapt:  T T T
 PAO|LS| adapt: scan_steps:    0.0000000000000000       0.40000000000000002       0.80000000000000004     
 PAO|LS| adapt: energies:   -7.5669412064575319       -7.7081523394526874       -7.6536950967348618     
 PAO|LS| adapt: suggested step_size:   0.48867441144867080     
 PAO|LS| adapt: predicted energy  -7.7129603708034526     
 PAO| ======================= Iteration:         6 =============================

     Lanczos converged:  T threshold:   0.100E-02
     Est. extremal eigenvalues:    0.289E+01   0.177E+00
     Est. condition number :    0.163E+02
     NS sqrt iter    1 1.00000000   0.732E+00       0.001       64.512
     NS sqrt iter    2 1.00000000   0.352E+00       0.001      106.252
     NS sqrt iter    3 1.00000000   0.882E-01       0.001      110.592
     NS sqrt iter    4 1.00000000   0.274E-02       0.001      110.592
     NS sqrt iter    5 1.00000000   0.133E-06       0.001       77.824
     Final NS sqrt iter    5 1.00000000   0.587E-09

     Est. extremal eigenvalues     -0.91645     1.58334  converged:  T
     TRS4 it   1 1.00000000   0.831E+00       0.000       16.128   0.100E-07
     TRS4 it   2 1.00000000   0.596E+00       0.001       32.256   0.100E-07
     TRS4 it   3 1.00000000   0.409E+00       0.001       32.256   0.100E-07
     TRS4 it   4 1.00000000   0.213E+00       0.001       32.256   0.100E-07
     TRS4 it   5 1.00000000   0.707E-01       0.001       32.256   0.100E-07
     TRS4 it   6 1.00000000   0.937E-02       0.001       32.256   0.100E-07
     TRS4 it   7 1.00000000   0.223E-03       0.001       32.256   0.100E-07
     TRS4 it   8 1.00000000   0.184E-06       0.001       31.810   0.100E-07
     TRS4 it   9 1.00000000   0.146E-12       0.001       32.256   0.100E-07
     Final TRS4 iteration    9 1.00000000   0.146E-12
     Chemical potential (mu):      -0.01742
 
 PAO| energy:  -7.7122713708081285      penalty:   1.2223423092104433E-005
 PAO|CG| warming up with steepest descent
 PAO|CG| beta:    0.0000000000000000     
 PAO| norm of gradient:  0.40390789982883851     
 PAO| energy improvement: -0.14533016435059665     
 PAO| step      6                   -7.712271371  0.252E-01  0.489E+00     0.090
 PAO|LS| adapt:  T F F
 PAO|LS| adapt: scan_steps:    0.0000000000000000        0.0000000000000000        0.0000000000000000     
 PAO|LS| adapt: energies:   -7.7122713708081285        0.0000000000000000        0.0000000000000000     
 PAO| ======================= Iteration:         7 =============================

     Lanczos converged:  T threshold:   0.100E-02
     Est. extremal eigenvalues:    0.280E+01   0.192E+00
     Est. condition number :    0.146E+02
     NS sqrt iter    1 1.00000000   0.714E+00       0.001       64.493
     NS sqrt iter    2 1.00000000   0.331E+00       0.001      110.592
     NS sqrt iter    3 1.00000000   0.733E-01       0.001      110.592
     NS sqrt iter    4 1.00000000   0.163E-02       0.001      107.403
     NS sqrt iter    5 1.00000000   0.304E-07       0.001       60.672
     Final NS sqrt iter    5 1.00000000   0.336E-08

     Est. extremal eigenvalues     -0.91783     1.58254  converged:  T
     TRS4 it   1 1.00000000   0.835E+00       0.000       16.128   0.100E-07
     TRS4 it   2 1.00000000   0.597E+00       0.002       19.885   0.100E-07
     TRS4 it   3 1.00000000   0.411E+00       0.001       32.256   0.100E-07
     TRS4 it   4 1.00000000   0.216E+00       0.001       32.256   0.100E-07
     TRS4 it   5 1.00000000   0.723E-01       0.001       32.256   0.100E-07
     TRS4 it   6 1.00000000   0.945E-02       0.001       32.256   0.100E-07
     TRS4 it   7 1.00000000   0.209E-03       0.001       32.256   0.100E-07
     TRS4 it   8 1.00000000   0.150E-06       0.001       32.256   0.100E-07
     TRS4 it   9 1.00000000   0.985E-13       0.001       32.256   0.100E-07
     Final TRS4 iteration    9 1.00000000   0.985E-13
     Chemical potential (mu):      -0.01400
 
 PAO| energy:  -7.7060874176968479      penalty:   1.8271720589237343E-005
 PAO|LS| adapt:  T F T
 PAO|LS| adapt: scan_steps:    0.0000000000000000        0.0000000000000000       0.48867441144867080     
 PAO|LS| adapt: energies:   -7.7122713708081285        0.0000000000000000       -7.7060874176968479     
 PAO| ======================= Iteration:         8 =============================

     Lanczos converged:  T threshold:   0.100E-02
     Est. extremal eigenvalues:    0.285E+01   0.185E+00
     Est. condition number :    0.154E+02
     NS sqrt iter    1 1.00000000   0.723E+00       0.001       64.512
     NS sqrt iter    2 1.00000000   0.341E+00       0.001      110.592
     NS sqrt iter    3 1.00000000   0.806E-01       0.001      110.592
     NS sqrt iter    4 1.00000000   0.212E-02       0.001      110.592
     NS sqrt iter    5 1.00000000   0.646E-07       0.001       72.960
     Final NS sqrt iter    5 1.00000000   0.478E-09

     Est. extremal eigenvalues     -0.91772     1.58252  converged:  T
     TRS4 it   1 1.00000000   0.833E+00       0.000       16.128   0.100E-07
     TRS4 it   2 1.00000000   0.596E+00       0.001       32.256   0.100E-07
     TRS4 it   3 1.00000000   0.409E+00       0.001       32.256   0.100E-07
     TRS4 it   4 1.00000000   0.213E+00       0.001       32.256   0.100E-07
     TRS4 it   5 1.00000000   0.714E-01       0.001       32.256   0.100E-07
     TRS4 it   6 1.00000000   0.949E-02       0.001       32.256   0.100E-07
     TRS4 it   7 1.00000000   0.222E-03       0.001       32.256   0.100E-07
     TRS4 it   8 1.00000000   0.177E-06       0.001       32.256   0.100E-07
     TRS4 it   9 1.00000000   0.136E-12       0.001       32.256   0.100E-07
     Final TRS4 iteration    9 1.00000000   0.136E-12
     Chemical potential (mu):      -0.01594
 
 PAO| energy:  -7.7304791222033691      penalty:   1.3210586300100384E-005
 PAO|LS| adapt:  T T T
 PAO|LS| adapt: scan_steps:    0.0000000000000000       0.24433720572433540       0.48867441144867080     
 PAO|LS| adapt: energies:   -7.7122713708081285       -7.7304791222033691       -7.7060874176968479     
 PAO|LS| adapt: suggested step_size:   0.22660259161300675     
 PAO|LS| adapt: predicted energy  -7.7305913339537113     
 PAO| ======================= Iteration:         9 =============================

     Lanczos converged:  T threshold:   0.100E-02
     Est. extremal eigenvalues:    0.285E+01   0.184E+00
     Est. condition number :    0.155E+02
     NS sqrt iter    1 1.00000000   0.723E+00       0.002       42.275
     NS sqrt iter    2 1.00000000   0.342E+00       0.001       99.393
     NS sqrt iter    3 1.00000000   0.811E-01       0.001      110.592
     NS sqrt iter    4 1.00000000   0.216E-02       0.001      110.592
     NS sqrt iter    5 1.00000000   0.682E-07       0.001       73.088
     Final NS sqrt iter    5 1.00000000   0.494E-09

     Est. extremal eigenvalues     -0.91766     1.58255  converged:  T
     TRS4 it   1 1.00000000   0.832E+00       0.001       14.790   0.100E-07
     TRS4 it   2 1.00000000   0.596E+00       0.001       31.480   0.100E-07
     TRS4 it   3 1.00000000   0.409E+00       0.001       32.256   0.100E-07
     TRS4 it   4 1.00000000   0.213E+00       0.001       32.256   0.100E-07
     TRS4 it   5 1.00000000   0.713E-01       0.001       32.256   0.100E-07
     TRS4 it   6 1.00000000   0.948E-02       0.001       32.256   0.100E-07
     TRS4 it   7 1.00000000   0.223E-03       0.001       32.256   0.100E-07
     TRS4 it   8 1.00000000   0.178E-06       0.001       32.256   0.100E-07
     TRS4 it   9 1.00000000   0.138E-12       0.001       32.256   0.100E-07
     Final TRS4 iteration    9 1.00000000   0.138E-12
     Chemical potential (mu):      -0.01607
 
 PAO| energy:  -7.7306129175896734      penalty:   1.3040158923733610E-005
 PAO|CG| trace_G_new    3.5746841799443464E-002
 PAO|CG| trace_G_prev   0.16314159154414304     
 PAO|CG| trace_G_mix   -1.1670028586654346E-003
 PAO|CG| trace_D   0.16314159154414304     
 PAO|CG| trace_D_Gnew   1.1670028586654346E-003
 PAO|CG| beta:   0.22626875408482644     
 PAO| norm of gradient:  0.18906835218894638     
 PAO| energy improvement:  -1.8341546781544871E-002
 PAO| step      9                   -7.730612918  0.118E-01  0.227E+00     0.056
 PAO|LS| adapt:  T F F
 PAO|LS| adapt: scan_steps:    0.0000000000000000        0.0000000000000000        0.0000000000000000     
 PAO|LS| adapt: energies:   -7.7306129175896734        0.0000000000000000        0.0000000000000000     
 PAO| ======================= Iteration:        10 =============================

     Lanczos converged:  T threshold:   0.100E-02
     Est. extremal eigenvalues:    0.281E+01   0.189E+00
     Est. condition number :    0.148E+02
     NS sqrt iter    1 1.00000000   0.715E+00       0.001       50.174
     NS sqrt iter    2 1.00000000   0.333E+00       0.001      108.160
     NS sqrt iter    3 1.00000000   0.756E-01       0.001      110.592
     NS sqrt iter    4 1.00000000   0.177E-02       0.001      110.592
     NS sqrt iter    5 1.00000000   0.382E-07       0.001       65.408
     Final NS sqrt iter    5 1.00000000   0.251E-08

     Est. extremal eigenvalues     -0.91854     1.58774  converged:  T
     TRS4 it   1 1.00000000   0.834E+00       0.000       16.128   0.100E-07
     TRS4 it   2 1.00000000   0.597E+00       0.001       32.256   0.100E-07
     TRS4 it   3 1.00000000   0.410E+00       0.001       32.256   0.100E-07
     TRS4 it   4 1.00000000   0.213E+00       0.001       32.256   0.100E-07
     TRS4 it   5 1.00000000   0.705E-01       0.001       32.256   0.100E-07
     TRS4 it   6 1.00000000   0.918E-02       0.001       32.256   0.100E-07
     TRS4 it   7 1.00000000   0.204E-03       0.001       32.256   0.100E-07
     TRS4 it   8 1.00000000   0.146E-06       0.001       32.256   0.100E-07
     TRS4 it   9 1.00000000   0.919E-13       0.001       32.256   0.100E-07
     Final TRS4 iteration    9 1.00000000   0.919E-13
     Chemical potential (mu):      -0.01311
 
 PAO| energy:  -7.7352640649855644      penalty:   1.3517085060380830E-005
 PAO|LS| adapt:  T T F
 PAO|LS| adapt: scan_steps:    0.0000000000000000       0.22660259161300675        0.0000000000000000     
 PAO|LS| adapt: energies:   -7.7306129175896734       -7.7352640649855644        0.0000000000000000     
 PAO| ======================= Iteration:        11 =============================

     Lanczos converged:  T threshold:   0.100E-02
     Est. extremal eigenvalues:    0.277E+01   0.195E+00
     Est. condition number :    0.142E+02
     NS sqrt iter    1 1.00000000   0.706E+00       0.001       64.512
     NS sqrt iter    2 1.00000000   0.325E+00       0.002       65.393
     NS sqrt iter    3 1.00000000   0.702E-01       0.003       41.230
     NS sqrt iter    4 1.00000000   0.143E-02       0.001       88.646
     NS sqrt iter    5 1.00000000   0.205E-07       0.001       54.528
     Final NS sqrt iter    5 1.00000000   0.308E-08

     Est. extremal eigenvalues     -0.91819     1.59428  converged:  T
     TRS4 it   1 1.00000000   0.837E+00       0.000       16.128   0.100E-07
     TRS4 it   2 1.00000000   0.598E+00       0.001       32.256   0.100E-07
     TRS4 it   3 1.00000000   0.410E+00       0.001       32.256   0.100E-07
     TRS4 it   4 1.00000000   0.213E+00       0.001       32.256   0.100E-07
     TRS4 it   5 1.00000000   0.698E-01       0.001       32.256   0.100E-07
     TRS4 it   6 1.00000000   0.890E-02       0.001       32.256   0.100E-07
     TRS4 it   7 1.00000000   0.187E-03       0.001       32.256   0.100E-07
     TRS4 it   8 1.00000000   0.119E-06       0.001       32.256   0.100E-07
     TRS4 it   9 1.00000000   0.619E-13       0.001       32.256   0.100E-07
     Final TRS4 iteration    9 1.00000000   0.619E-13
     Chemical potential (mu):      -0.00998
 
 PAO| energy:  -7.7333924492698687      penalty:   1.4582233409750231E-005
 PAO|LS| adapt:  T T T
 PAO|LS| adapt: scan_steps:    0.0000000000000000       0.22660259161300675       0.45320518322601350     
 PAO|LS| adapt: energies:   -7.7306129175896734       -7.7352640649855644       -7.7333924492698687     
 PAO|LS| adapt: suggested step_size:   0.27488344065103737     
 PAO|LS| adapt: predicted energy  -7.7354121195030485     
 PAO| ======================= Iteration:        12 =============================

     Lanczos converged:  T threshold:   0.100E-02
     Est. extremal eigenvalues:    0.280E+01   0.190E+00
     Est. condition number :    0.147E+02
     NS sqrt iter    1 1.00000000   0.713E+00       0.001       61.563
     NS sqrt iter    2 1.00000000   0.331E+00       0.001      109.078
     NS sqrt iter    3 1.00000000   0.744E-01       0.001      110.592
     NS sqrt iter    4 1.00000000   0.169E-02       0.001      110.592
     NS sqrt iter    5 1.00000000   0.334E-07       0.001       61.312
     Final NS sqrt iter    5 1.00000000   0.464E-08

     Est. extremal eigenvalues     -0.91857     1.58904  converged:  T
     TRS4 it   1 1.00000000   0.835E+00       0.001       16.128   0.100E-07
     TRS4 it   2 1.00000000   0.597E+00       0.001       32.256   0.100E-07
     TRS4 it   3 1.00000000   0.410E+00       0.001       32.256   0.100E-07
     TRS4 it   4 1.00000000   0.213E+00       0.001       32.256   0.100E-07
     TRS4 it   5 1.00000000   0.704E-01       0.001       32.256   0.100E-07
     TRS4 it   6 1.00000000   0.912E-02       0.001       32.256   0.100E-07
     TRS4 it   7 1.00000000   0.200E-03       0.001       32.256   0.100E-07
     TRS4 it   8 1.00000000   0.140E-06       0.001       32.256   0.100E-07
     TRS4 it   9 1.00000000   0.849E-13       0.001       32.256   0.100E-07
     Final TRS4 iteration    9 1.00000000   0.849E-13
     Chemical potential (mu):      -0.01245
 
 PAO| energy:  -7.7353987682392145      penalty:   1.3689377289136758E-005
 PAO|CG| trace_G_new    1.0702974375338299E-002
 PAO|CG| trace_G_prev    3.5746841799443464E-002
 PAO|CG| trace_G_mix   -3.9506781526570827E-004
 PAO|CG| trace_D    4.3571178873027278E-002
 PAO|CG| trace_D_Gnew   2.5125651678439050E-004
 PAO|CG| beta:   0.31046217321432829     
 PAO| norm of gradient:  0.10345518051474417     
 PAO| energy improvement:  -4.7858506495410680E-003
 PAO| step     12                   -7.735398768  0.647E-02  0.275E+00     0.058
 PAO|LS| adapt:  T F F
 PAO|LS| adapt: scan_steps:    0.0000000000000000        0.0000000000000000        0.0000000000000000     
 PAO|LS| adapt: energies:   -7.7353987682392145        0.0000000000000000        0.0000000000000000     
 PAO| ======================= Iteration:        13 =============================

     Lanczos converged:  T threshold:   0.100E-02
     Est. extremal eigenvalues:    0.276E+01   0.194E+00
     Est. condition number :    0.143E+02
     NS sqrt iter    1 1.00000000   0.705E+00       0.001       64.512
     NS sqrt iter    2 1.00000000   0.325E+00       0.001      110.592
     NS sqrt iter    3 1.00000000   0.704E-01       0.001      110.592
     NS sqrt iter    4 1.00000000   0.145E-02       0.001      110.592
     NS sqrt iter    5 1.00000000   0.213E-07       0.001       54.912
     Final NS sqrt iter    5 1.00000000   0.313E-08

     Est. extremal eigenvalues     -0.91905     1.58954  converged:  T
     TRS4 it   1 1.00000000   0.836E+00       0.000       16.128   0.100E-07
     TRS4 it   2 1.00000000   0.596E+00       0.001       32.256   0.100E-07
     TRS4 it   3 1.00000000   0.407E+00       0.001       32.256   0.100E-07
     TRS4 it   4 1.00000000   0.209E+00       0.001       32.256   0.100E-07
     TRS4 it   5 1.00000000   0.677E-01       0.001       32.256   0.100E-07
     TRS4 it   6 1.00000000   0.837E-02       0.001       32.256   0.100E-07
     TRS4 it   7 1.00000000   0.165E-03       0.001       32.256   0.100E-07
     TRS4 it   8 1.00000000   0.934E-07       0.001       32.256   0.100E-07
     TRS4 it   9 1.00000000   0.378E-13       0.001       32.256   0.100E-07
     Final TRS4 iteration    9 1.00000000   0.378E-13
     Chemical potential (mu):      -0.00830
 
 PAO| energy:  -7.7372300565479435      penalty:   1.3871093807094184E-005
 PAO|LS| adapt:  T T F
 PAO|LS| adapt: scan_steps:    0.0000000000000000       0.27488344065103737        0.0000000000000000     
 PAO|LS| adapt: energies:   -7.7353987682392145       -7.7372300565479435        0.0000000000000000     
 PAO| ======================= Iteration:        14 =============================

     Lanczos converged:  T threshold:   0.100E-02
     Est. extremal eigenvalues:    0.273E+01   0.197E+00
     Est. condition number :    0.138E+02
     NS sqrt iter    1 1.00000000   0.698E+00       0.001       62.673
     NS sqrt iter    2 1.00000000   0.318E+00       0.001      110.592
     NS sqrt iter    3 1.00000000   0.666E-01       0.001      105.093
     NS sqrt iter    4 1.00000000   0.124E-02       0.001      110.592
     NS sqrt iter    5 1.00000000   0.130E-07       0.001       47.872
     Final NS sqrt iter    5 1.00000000   0.389E-08

     Est. extremal eigenvalues     -0.91907     1.59011  converged:  T
     TRS4 it   1 1.00000000   0.838E+00       0.000       16.128   0.100E-07
     TRS4 it   2 1.00000000   0.595E+00       0.001       32.256   0.100E-07
     TRS4 it   3 1.00000000   0.405E+00       0.001       32.256   0.100E-07
     TRS4 it   4 1.00000000   0.206E+00       0.001       32.256   0.100E-07
     TRS4 it   5 1.00000000   0.652E-01       0.001       32.256   0.100E-07
     TRS4 it   6 1.00000000   0.768E-02       0.001       32.256   0.100E-07
     TRS4 it   7 1.00000000   0.136E-03       0.001       32.256   0.100E-07
     TRS4 it   8 1.00000000   0.623E-07       0.001       32.256   0.100E-07
     Final TRS4 iteration    8 1.00000000   0.623E-07
     Chemical potential (mu):      -0.00428
 
 PAO| energy:  -7.7369178556822167      penalty:   1.4397226980738532E-005
 PAO|LS| adapt:  T T T
 PAO|LS| adapt: scan_steps:    0.0000000000000000       0.27488344065103737       0.54976688130207474     
 PAO|LS| adapt: energies:   -7.7353987682392145       -7.7372300565479435       -7.7369178556822167     
 PAO|LS| adapt: suggested step_size:   0.37228817400786557     
 PAO|LS| adapt: predicted energy  -7.7373646284113686     
 PAO| ======================= Iteration:        15 =============================

     Lanczos converged:  T threshold:   0.100E-02
     Est. extremal eigenvalues:    0.275E+01   0.195E+00
     Est. condition number :    0.141E+02
     NS sqrt iter    1 1.00000000   0.703E+00       0.001       64.512
     NS sqrt iter    2 1.00000000   0.322E+00       0.001      110.592
     NS sqrt iter    3 1.00000000   0.691E-01       0.001      110.592
     NS sqrt iter    4 1.00000000   0.137E-02       0.001      110.592
     NS sqrt iter    5 1.00000000   0.180E-07       0.001       45.823
     Final NS sqrt iter    5 1.00000000   0.305E-08

     Est. extremal eigenvalues     -0.91911     1.58974  converged:  T
     TRS4 it   1 1.00000000   0.837E+00       0.000       16.128   0.100E-07
     TRS4 it   2 1.00000000   0.596E+00       0.001       32.256   0.100E-07
     TRS4 it   3 1.00000000   0.407E+00       0.001       32.256   0.100E-07
     TRS4 it   4 1.00000000   0.208E+00       0.001       32.256   0.100E-07
     TRS4 it   5 1.00000000   0.668E-01       0.001       32.256   0.100E-07
     TRS4 it   6 1.00000000   0.812E-02       0.001       32.256   0.100E-07
     TRS4 it   7 1.00000000   0.154E-03       0.001       23.779   0.100E-07
     TRS4 it   8 1.00000000   0.809E-07       0.002       21.498   0.100E-07
     TRS4 it   9 1.00000000   0.285E-13       0.001       32.256   0.100E-07
     Final TRS4 iteration    9 1.00000000   0.285E-13
     Chemical potential (mu):      -0.00684
 
 PAO| energy:  -7.7373618990417006      penalty:   1.4015841867349069E-005
 PAO|CG| trace_G_new    2.1255256091921560E-003
 PAO|CG| trace_G_prev    1.0702974375338299E-002
 PAO|CG| trace_G_mix    8.9653051338864207E-005
 PAO|CG| trace_D    1.4746647891258440E-002
 PAO|CG| trace_D_Gnew   1.9920377021392187E-005
 PAO|CG| beta:   0.19021558741132108     
 PAO| norm of gradient:   4.6103422966111265E-002
 PAO| energy improvement:  -1.9631308024861127E-003
 PAO| step     15                   -7.737361899  0.288E-02  0.372E+00     0.054
 PAO|LS| adapt:  T F F
 PAO|LS| adapt: scan_steps:    0.0000000000000000        0.0000000000000000        0.0000000000000000     
 PAO|LS| adapt: energies:   -7.7373618990417006        0.0000000000000000        0.0000000000000000     
 PAO| ======================= Iteration:        16 =============================

     Lanczos converged:  T threshold:   0.100E-02
     Est. extremal eigenvalues:    0.274E+01   0.196E+00
     Est. condition number :    0.140E+02
     NS sqrt iter    1 1.00000000   0.701E+00       0.001       64.512
     NS sqrt iter    2 1.00000000   0.321E+00       0.001       98.559
     NS sqrt iter    3 1.00000000   0.683E-01       0.001      110.592
     NS sqrt iter    4 1.00000000   0.132E-02       0.001       88.839
     NS sqrt iter    5 1.00000000   0.157E-07       0.001       45.939
     Final NS sqrt iter    5 1.00000000   0.390E-08

     Est. extremal eigenvalues     -0.91914     1.58935  converged:  T
     TRS4 it   1 1.00000000   0.837E+00       0.000       16.128   0.100E-07
     TRS4 it   2 1.00000000   0.595E+00       0.001       32.256   0.100E-07
     TRS4 it   3 1.00000000   0.405E+00       0.001       32.256   0.100E-07
     TRS4 it   4 1.00000000   0.207E+00       0.001       32.256   0.100E-07
     TRS4 it   5 1.00000000   0.657E-01       0.001       32.256   0.100E-07
     TRS4 it   6 1.00000000   0.785E-02       0.001       32.256   0.100E-07
     TRS4 it   7 1.00000000   0.144E-03       0.001       32.256   0.100E-07
     TRS4 it   8 1.00000000   0.713E-07       0.001       32.256   0.100E-07
     Final TRS4 iteration    8 1.00000000   0.713E-07
     Chemical potential (mu):      -0.00569
 
 PAO| energy:  -7.7374584602110312      penalty:   1.3755872684980735E-005
 PAO|LS| adapt:  T T F
 PAO|LS| adapt: scan_steps:    0.0000000000000000       0.37228817400786557        0.0000000000000000     
 PAO|LS| adapt: energies:   -7.7373618990417006       -7.7374584602110312        0.0000000000000000     
 PAO| ======================= Iteration:        17 =============================

     Lanczos converged:  T threshold:   0.100E-02
     Est. extremal eigenvalues:    0.273E+01   0.197E+00
     Est. condition number :    0.139E+02
     NS sqrt iter    1 1.00000000   0.699E+00       0.001       64.512
     NS sqrt iter    2 1.00000000   0.320E+00       0.001      110.592
     NS sqrt iter    3 1.00000000   0.676E-01       0.001      110.592
     NS sqrt iter    4 1.00000000   0.128E-02       0.001      110.592
     NS sqrt iter    5 1.00000000   0.137E-07       0.001       48.128
     Final NS sqrt iter    5 1.00000000   0.408E-08

     Est. extremal eigenvalues     -0.91901     1.58905  converged:  T
     TRS4 it   1 1.00000000   0.838E+00       0.001       16.128   0.100E-07
     TRS4 it   2 1.00000000   0.594E+00       0.001       31.419   0.100E-07
     TRS4 it   3 1.00000000   0.404E+00       0.001       32.256   0.100E-07
     TRS4 it   4 1.00000000   0.205E+00       0.001       32.256   0.100E-07
     TRS4 it   5 1.00000000   0.645E-01       0.001       32.256   0.100E-07
     TRS4 it   6 1.00000000   0.758E-02       0.001       32.256   0.100E-07
     TRS4 it   7 1.00000000   0.135E-03       0.001       32.256   0.100E-07
     TRS4 it   8 1.00000000   0.628E-07       0.001       32.256   0.100E-07
     Final TRS4 iteration    8 1.00000000   0.628E-07
     Chemical potential (mu):      -0.00469
 
 PAO| energy:  -7.7361640121462063      penalty:   1.3586040152071717E-005
 PAO|LS| adapt:  T T T
 PAO|LS| adapt: scan_steps:    0.0000000000000000       0.37228817400786557       0.74457634801573114     
 PAO|LS| adapt: energies:   -7.7373618990417006       -7.7374584602110312       -7.7361640121462063     
 PAO|LS| adapt: suggested step_size:   0.21198761163876151     
 PAO|LS| adapt: predicted energy  -7.7375874073253978     
 PAO| ======================= Iteration:        18 =============================

     Lanczos converged:  T threshold:   0.100E-02
     Est. extremal eigenvalues:    0.275E+01   0.196E+00
     Est. condition number :    0.140E+02
     NS sqrt iter    1 1.00000000   0.701E+00       0.001       64.512
     NS sqrt iter    2 1.00000000   0.321E+00       0.001      110.592
     NS sqrt iter    3 1.00000000   0.686E-01       0.001      110.592
     NS sqrt iter    4 1.00000000   0.134E-02       0.001      110.259
     NS sqrt iter    5 1.00000000   0.168E-07       0.001       51.069
     Final NS sqrt iter    5 1.00000000   0.831E-09

     Est. extremal eigenvalues     -0.91915     1.58951  converged:  T
     TRS4 it   1 1.00000000   0.837E+00       0.000       16.128   0.100E-07
     TRS4 it   2 1.00000000   0.595E+00       0.001       32.256   0.100E-07
     TRS4 it   3 1.00000000   0.406E+00       0.001       32.256   0.100E-07
     TRS4 it   4 1.00000000   0.207E+00       0.001       32.256   0.100E-07
     TRS4 it   5 1.00000000   0.662E-01       0.001       32.256   0.100E-07
     TRS4 it   6 1.00000000   0.796E-02       0.001       32.256   0.100E-07
     TRS4 it   7 1.00000000   0.149E-03       0.001       32.256   0.100E-07
     TRS4 it   8 1.00000000   0.753E-07       0.001       32.256   0.100E-07
     Final TRS4 iteration    8 1.00000000   0.753E-07
     Chemical potential (mu):      -0.00613
 
 PAO| energy:  -7.7375869812705904      penalty:   1.3856905276125974E-005
 PAO|CG| trace_G_new    5.9665278486395110E-004
 PAO|CG| trace_G_prev    2.1255256091921560E-003
 PAO|CG| trace_G_mix    6.4559123045518297E-007
 PAO|CG| trace_D    2.6515100438520489E-003
 PAO|CG| trace_D_Gnew  -1.6689539736532312E-006
 PAO|CG| beta:   0.28040461665386335     
 PAO| norm of gradient:   2.4426477127575130E-002
 PAO| energy improvement:  -2.2508222888983909E-004
 PAO| step     18                   -7.737586981  0.153E-02  0.212E+00     0.054
 PAO|LS| adapt:  T F F
 PAO|LS| adapt: scan_steps:    0.0000000000000000        0.0000000000000000        0.0000000000000000     
 PAO|LS| adapt: energies:   -7.7375869812705904        0.0000000000000000        0.0000000000000000     
 PAO| ======================= Iteration:        19 =============================

     Lanczos converged:  T threshold:   0.100E-02
     Est. extremal eigenvalues:    0.275E+01   0.196E+00
     Est. condition number :    0.140E+02
     NS sqrt iter    1 1.00000000   0.701E+00       0.001       62.391
     NS sqrt iter    2 1.00000000   0.322E+00       0.001      110.592
     NS sqrt iter    3 1.00000000   0.688E-01       0.001      110.592
     NS sqrt iter    4 1.00000000   0.135E-02       0.001      110.592
     NS sqrt iter    5 1.00000000   0.167E-07       0.001       51.584
     Final NS sqrt iter    5 1.00000000   0.845E-09

     Est. extremal eigenvalues     -0.91915     1.58985  converged:  T
     TRS4 it   1 1.00000000   0.837E+00       0.000       16.128   0.100E-07
     TRS4 it   2 1.00000000   0.595E+00       0.001       32.256   0.100E-07
     TRS4 it   3 1.00000000   0.406E+00       0.001       32.256   0.100E-07
     TRS4 it   4 1.00000000   0.207E+00       0.001       32.256   0.100E-07
     TRS4 it   5 1.00000000   0.660E-01       0.001       32.256   0.100E-07
     TRS4 it   6 1.00000000   0.794E-02       0.001       32.256   0.100E-07
     TRS4 it   7 1.00000000   0.148E-03       0.001       32.256   0.100E-07
     TRS4 it   8 1.00000000   0.754E-07       0.001       32.256   0.100E-07
     Final TRS4 iteration    8 1.00000000   0.754E-07
     Chemical potential (mu):      -0.00615
 
 PAO| energy:  -7.7376837078894196      penalty:   1.3581901490360855E-005
 PAO|LS| adapt:  T T F
 PAO|LS| adapt: scan_steps:    0.0000000000000000       0.21198761163876151        0.0000000000000000     
 PAO|LS| adapt: energies:   -7.7375869812705904       -7.7376837078894196        0.0000000000000000     
 PAO| ======================= Iteration:        20 =============================

     Lanczos converged:  T threshold:   0.100E-02
     Est. extremal eigenvalues:    0.274E+01   0.196E+00
     Est. condition number :    0.140E+02
     NS sqrt iter    1 1.00000000   0.701E+00       0.001       64.512
     NS sqrt iter    2 1.00000000   0.322E+00       0.001       79.169
     NS sqrt iter    3 1.00000000   0.689E-01       0.002       61.155
     NS sqrt iter    4 1.00000000   0.135E-02       0.001       76.866
     NS sqrt iter    5 1.00000000   0.167E-07       0.001       48.063
     Final NS sqrt iter    5 1.00000000   0.844E-09

     Est. extremal eigenvalues     -0.91915     1.59019  converged:  T
     TRS4 it   1 1.00000000   0.837E+00       0.000       16.128   0.100E-07
     TRS4 it   2 1.00000000   0.595E+00       0.001       32.256   0.100E-07
     TRS4 it   3 1.00000000   0.406E+00       0.001       32.256   0.100E-07
     TRS4 it   4 1.00000000   0.207E+00       0.001       32.256   0.100E-07
     TRS4 it   5 1.00000000   0.659E-01       0.001       32.256   0.100E-07
     TRS4 it   6 1.00000000   0.792E-02       0.001       32.256   0.100E-07
     TRS4 it   7 1.00000000   0.148E-03       0.001       32.256   0.100E-07
     TRS4 it   8 1.00000000   0.756E-07       0.001       32.256   0.100E-07
     Final TRS4 iteration    8 1.00000000   0.756E-07
     Chemical potential (mu):      -0.00617
 
 PAO| energy:  -7.7377203899785041      penalty:   1.3316978430911259E-005
 PAO|LS| adapt:  T T F
 PAO|LS| adapt: scan_steps:    0.0000000000000000       0.42397522327752302        0.0000000000000000     
 PAO|LS| adapt: energies:   -7.7375869812705904       -7.7377203899785041        0.0000000000000000     
 PAO| ======================= Iteration:        21 =============================

     Lanczos converged:  T threshold:   0.100E-02
     Est. extremal eigenvalues:    0.274E+01   0.196E+00
     Est. condition number :    0.140E+02
     NS sqrt iter    1 1.00000000   0.701E+00       0.001       45.012
     NS sqrt iter    2 1.00000000   0.322E+00       0.001      108.207
     NS sqrt iter    3 1.00000000   0.691E-01       0.001      110.592
     NS sqrt iter    4 1.00000000   0.136E-02       0.001      110.592
     NS sqrt iter    5 1.00000000   0.166E-07       0.001       51.584
     Final NS sqrt iter    5 1.00000000   0.845E-09

     Est. extremal eigenvalues     -0.91916     1.59087  converged:  T
     TRS4 it   1 1.00000000   0.838E+00       0.000       16.128   0.100E-07
     TRS4 it   2 1.00000000   0.595E+00       0.001       32.256   0.100E-07
     TRS4 it   3 1.00000000   0.405E+00       0.001       32.256   0.100E-07
     TRS4 it   4 1.00000000   0.206E+00       0.001       32.256   0.100E-07
     TRS4 it   5 1.00000000   0.656E-01       0.001       32.256   0.100E-07
     TRS4 it   6 1.00000000   0.789E-02       0.001       32.256   0.100E-07
     TRS4 it   7 1.00000000   0.148E-03       0.001       32.256   0.100E-07
     TRS4 it   8 1.00000000   0.758E-07       0.001       32.256   0.100E-07
     Final TRS4 iteration    8 1.00000000   0.758E-07
     Chemical potential (mu):      -0.00621
 
 PAO| energy:  -7.7376116250690741      penalty:   1.2816860995110915E-005
 PAO|LS| Need extra step
 PAO|LS| adapt:  T T T
 PAO|LS| adapt: scan_steps:    0.0000000000000000       0.42397522327752302       0.84795044655504603     
 PAO|LS| adapt: energies:   -7.7375869812705904       -7.7377203899785041       -7.7376116250690741     
 PAO|LS| adapt: suggested step_size:   0.44554726749753282     
 PAO|LS| adapt: predicted energy  -7.7377207034503073     
 PAO| ======================= Iteration:        22 =============================

     Lanczos converged:  T threshold:   0.100E-02
     Est. extremal eigenvalues:    0.274E+01   0.196E+00
     Est. condition number :    0.140E+02
     NS sqrt iter    1 1.00000000   0.701E+00       0.001       64.029
     NS sqrt iter    2 1.00000000   0.322E+00       0.001       77.721
     NS sqrt iter    3 1.00000000   0.689E-01       0.002       64.329
     NS sqrt iter    4 1.00000000   0.135E-02       0.002       67.654
     NS sqrt iter    5 1.00000000   0.167E-07       0.001       51.584
     Final NS sqrt iter    5 1.00000000   0.844E-09

     Est. extremal eigenvalues     -0.91915     1.59022  converged:  T
     TRS4 it   1 1.00000000   0.837E+00       0.000       16.128   0.100E-07
     TRS4 it   2 1.00000000   0.595E+00       0.001       32.256   0.100E-07
     TRS4 it   3 1.00000000   0.406E+00       0.001       32.256   0.100E-07
     TRS4 it   4 1.00000000   0.207E+00       0.001       32.256   0.100E-07
     TRS4 it   5 1.00000000   0.659E-01       0.001       32.256   0.100E-07
     TRS4 it   6 1.00000000   0.792E-02       0.001       32.256   0.100E-07
     TRS4 it   7 1.00000000   0.148E-03       0.001       32.256   0.100E-07
     TRS4 it   8 1.00000000   0.756E-07       0.001       32.256   0.100E-07
     Final TRS4 iteration    8 1.00000000   0.756E-07
     Chemical potential (mu):      -0.00617
 
 PAO| energy:  -7.7377207372127454      penalty:   1.3290578823813678E-005
 PAO|CG| trace_G_new    1.9926889850408386E-004
 PAO|CG| trace_G_prev    5.9665278486395110E-004
 PAO|CG| trace_G_mix    2.7443574326652801E-006
 PAO|CG| trace_D    8.0606836445945703E-004
 PAO|CG| trace_D_Gnew  -1.5524082759757504E-006
 PAO|CG| beta:   0.32937840240908312     
 PAO| norm of gradient:   1.4116263616980375E-002
 PAO| energy improvement:  -1.3375594215503384E-004
 PAO| step     22                   -7.737720737  0.882E-03  0.446E+00     0.071
 PAO|LS| adapt:  T F F
 PAO|LS| adapt: scan_steps:    0.0000000000000000        0.0000000000000000        0.0000000000000000     
 PAO|LS| adapt: energies:   -7.7377207372127454        0.0000000000000000        0.0000000000000000     
 PAO| ======================= Iteration:        23 =============================

     Lanczos converged:  T threshold:   0.100E-02
     Est. extremal eigenvalues:    0.274E+01   0.196E+00
     Est. condition number :    0.140E+02
     NS sqrt iter    1 1.00000000   0.701E+00       0.001       64.512
     NS sqrt iter    2 1.00000000   0.322E+00       0.001      110.592
     NS sqrt iter    3 1.00000000   0.689E-01       0.001      110.592
     NS sqrt iter    4 1.00000000   0.135E-02       0.001      110.592
     NS sqrt iter    5 1.00000000   0.166E-07       0.001       51.584
     Final NS sqrt iter    5 1.00000000   0.836E-09

     Est. extremal eigenvalues     -0.91916     1.59039  converged:  T
     TRS4 it   1 1.00000000   0.837E+00       0.000       16.128   0.100E-07
     TRS4 it   2 1.00000000   0.595E+00       0.001       32.256   0.100E-07
     TRS4 it   3 1.00000000   0.406E+00       0.001       32.256   0.100E-07
     TRS4 it   4 1.00000000   0.207E+00       0.001       32.256   0.100E-07
     TRS4 it   5 1.00000000   0.659E-01       0.001       32.256   0.100E-07
     TRS4 it   6 1.00000000   0.793E-02       0.001       32.256   0.100E-07
     TRS4 it   7 1.00000000   0.149E-03       0.001       32.256   0.100E-07
     TRS4 it   8 1.00000000   0.763E-07       0.001       32.256   0.100E-07
     Final TRS4 iteration    8 1.00000000   0.763E-07
     Chemical potential (mu):      -0.00624
 
 PAO| energy:  -7.7377684561849334      penalty:   1.2641834106286730E-005
 PAO|LS| adapt:  T T F
 PAO|LS| adapt: scan_steps:    0.0000000000000000       0.44554726749753282        0.0000000000000000     
 PAO|LS| adapt: energies:   -7.7377207372127454       -7.7377684561849334        0.0000000000000000     
 PAO| ======================= Iteration:        24 =============================

     Lanczos converged:  T threshold:   0.100E-02
     Est. extremal eigenvalues:    0.274E+01   0.196E+00
     Est. condition number :    0.140E+02
     NS sqrt iter    1 1.00000000   0.701E+00       0.001       64.512
     NS sqrt iter    2 1.00000000   0.322E+00       0.001      110.592
     NS sqrt iter    3 1.00000000   0.689E-01       0.001      110.592
     NS sqrt iter    4 1.00000000   0.135E-02       0.001      110.592
     NS sqrt iter    5 1.00000000   0.165E-07       0.001       51.584
     Final NS sqrt iter    5 1.00000000   0.829E-09

     Est. extremal eigenvalues     -0.91916     1.59055  converged:  T
     TRS4 it   1 1.00000000   0.837E+00       0.000       16.128   0.100E-07
     TRS4 it   2 1.00000000   0.596E+00       0.001       32.256   0.100E-07
     TRS4 it   3 1.00000000   0.406E+00       0.001       32.256   0.100E-07
     TRS4 it   4 1.00000000   0.207E+00       0.001       32.256   0.100E-07
     TRS4 it   5 1.00000000   0.660E-01       0.001       32.256   0.100E-07
     TRS4 it   6 1.00000000   0.795E-02       0.001       32.256   0.100E-07
     TRS4 it   7 1.00000000   0.149E-03       0.001       32.256   0.100E-07
     TRS4 it   8 1.00000000   0.770E-07       0.001       32.256   0.100E-07
     Final TRS4 iteration    8 1.00000000   0.770E-07
     Chemical potential (mu):      -0.00631
 
 PAO| energy:  -7.7377329409110702      penalty:   1.2019250009425127E-005
 PAO|LS| adapt:  T T T
 PAO|LS| adapt: scan_steps:    0.0000000000000000       0.44554726749753282       0.89109453499506563     
 PAO|LS| adapt: energies:   -7.7377207372127454       -7.7377684561849334       -7.7377329409110702     
 PAO|LS| adapt: suggested step_size:   0.47821005174761533     
 PAO|LS| adapt: predicted energy  -7.7377686798462575     
 PAO| ======================= Iteration:        25 =============================

     Lanczos converged:  T threshold:   0.100E-02
     Est. extremal eigenvalues:    0.274E+01   0.196E+00
     Est. condition number :    0.140E+02
     NS sqrt iter    1 1.00000000   0.701E+00       0.001       44.273
     NS sqrt iter    2 1.00000000   0.322E+00       0.001      108.624
     NS sqrt iter    3 1.00000000   0.689E-01       0.001      110.592
     NS sqrt iter    4 1.00000000   0.135E-02       0.001      110.592
     NS sqrt iter    5 1.00000000   0.166E-07       0.001       51.584
     Final NS sqrt iter    5 1.00000000   0.836E-09

     Est. extremal eigenvalues     -0.91916     1.59040  converged:  T
     TRS4 it   1 1.00000000   0.837E+00       0.000       16.128   0.100E-07
     TRS4 it   2 1.00000000   0.596E+00       0.001       32.256   0.100E-07
     TRS4 it   3 1.00000000   0.406E+00       0.001       32.256   0.100E-07
     TRS4 it   4 1.00000000   0.207E+00       0.001       32.256   0.100E-07
     TRS4 it   5 1.00000000   0.659E-01       0.001       32.256   0.100E-07
     TRS4 it   6 1.00000000   0.794E-02       0.001       32.256   0.100E-07
     TRS4 it   7 1.00000000   0.149E-03       0.001       32.256   0.100E-07
     TRS4 it   8 1.00000000   0.763E-07       0.001       32.256   0.100E-07
     Final TRS4 iteration    8 1.00000000   0.763E-07
     Chemical potential (mu):      -0.00624
 
 PAO| energy:  -7.7377686916747592      penalty:   1.2595310457149393E-005
 PAO|CG| trace_G_new    5.6837575929570519E-005
 PAO|CG| trace_G_prev    1.9926889850408386E-004
 PAO|CG| trace_G_mix    8.7652250664382223E-007
 PAO|CG| trace_D    2.8774202125965702E-004
 PAO|CG| trace_D_Gnew  -3.5709276500463777E-007
 PAO|CG| beta:   0.28083185004297007     
 PAO| norm of gradient:   7.5390699644963194E-003
 PAO| energy improvement:  -4.7954462013777288E-005
 PAO| step     25                   -7.737768692  0.471E-03  0.478E+00     0.052
 PAO|LS| adapt:  T F F
 PAO|LS| adapt: scan_steps:    0.0000000000000000        0.0000000000000000        0.0000000000000000     
 PAO|LS| adapt: energies:   -7.7377686916747592        0.0000000000000000        0.0000000000000000     
 PAO| ======================= Iteration:        26 =============================

     Lanczos converged:  T threshold:   0.100E-02
     Est. extremal eigenvalues:    0.274E+01   0.196E+00
     Est. condition number :    0.140E+02
     NS sqrt iter    1 1.00000000   0.700E+00       0.001       64.512
     NS sqrt iter    2 1.00000000   0.321E+00       0.001      110.592
     NS sqrt iter    3 1.00000000   0.687E-01       0.001       98.375
     NS sqrt iter    4 1.00000000   0.134E-02       0.001      102.856
     NS sqrt iter    5 1.00000000   0.166E-07       0.001       51.584
     Final NS sqrt iter    5 1.00000000   0.829E-09

     Est. extremal eigenvalues     -0.91916     1.59020  converged:  T
     TRS4 it   1 1.00000000   0.837E+00       0.000       16.128   0.100E-07
     TRS4 it   2 1.00000000   0.595E+00       0.001       32.256   0.100E-07
     TRS4 it   3 1.00000000   0.406E+00       0.001       32.256   0.100E-07
     TRS4 it   4 1.00000000   0.207E+00       0.001       32.256   0.100E-07
     TRS4 it   5 1.00000000   0.657E-01       0.001       31.242   0.100E-07
     TRS4 it   6 1.00000000   0.789E-02       0.001       24.466   0.100E-07
     TRS4 it   7 1.00000000   0.147E-03       0.002       19.369   0.100E-07
     TRS4 it   8 1.00000000   0.739E-07       0.001       32.256   0.100E-07
     Final TRS4 iteration    8 1.00000000   0.739E-07
     Chemical potential (mu):      -0.00596
 
 PAO| energy:  -7.7377716800181702      penalty:   1.1924281033878945E-005
 PAO|LS| adapt:  T T F
 PAO|LS| adapt: scan_steps:    0.0000000000000000       0.47821005174761533        0.0000000000000000     
 PAO|LS| adapt: energies:   -7.7377686916747592       -7.7377716800181702        0.0000000000000000     
 PAO| ======================= Iteration:        27 =============================

     Lanczos converged:  T threshold:   0.100E-02
     Est. extremal eigenvalues:    0.274E+01   0.196E+00
     Est. condition number :    0.140E+02
     NS sqrt iter    1 1.00000000   0.700E+00       0.001       62.404
     NS sqrt iter    2 1.00000000   0.321E+00       0.001      110.592
     NS sqrt iter    3 1.00000000   0.686E-01       0.001      110.592
     NS sqrt iter    4 1.00000000   0.134E-02       0.001      110.592
     NS sqrt iter    5 1.00000000   0.166E-07       0.001       51.584
     Final NS sqrt iter    5 1.00000000   0.823E-09

     Est. extremal eigenvalues     -0.91917     1.59001  converged:  T
     TRS4 it   1 1.00000000   0.838E+00       0.001       16.128   0.100E-07
     TRS4 it   2 1.00000000   0.595E+00       0.001       32.256   0.100E-07
     TRS4 it   3 1.00000000   0.405E+00       0.001       32.256   0.100E-07
     TRS4 it   4 1.00000000   0.206E+00       0.001       32.256   0.100E-07
     TRS4 it   5 1.00000000   0.656E-01       0.001       32.256   0.100E-07
     TRS4 it   6 1.00000000   0.784E-02       0.001       32.256   0.100E-07
     TRS4 it   7 1.00000000   0.145E-03       0.001       32.256   0.100E-07
     TRS4 it   8 1.00000000   0.715E-07       0.001       32.256   0.100E-07
     Final TRS4 iteration    8 1.00000000   0.715E-07
     Chemical potential (mu):      -0.00567
 
 PAO| energy:  -7.7377261254980958      penalty:   1.1274654292924439E-005
 PAO|LS| adapt:  T T T
 PAO|LS| adapt: scan_steps:    0.0000000000000000       0.47821005174761533       0.95642010349523066     
 PAO|LS| adapt: energies:   -7.7377686916747592       -7.7377716800181702       -7.7377261254980958     
 PAO|LS| adapt: suggested step_size:   0.26854407735500213     
 PAO|LS| adapt: predicted energy  -7.7377763456869877     
 PAO| ======================= Iteration:        28 =============================

     Lanczos converged:  T threshold:   0.100E-02
     Est. extremal eigenvalues:    0.274E+01   0.196E+00
     Est. condition number :    0.140E+02
     NS sqrt iter    1 1.00000000   0.701E+00       0.001       64.512
     NS sqrt iter    2 1.00000000   0.322E+00       0.001      109.666
     NS sqrt iter    3 1.00000000   0.688E-01       0.001       98.939
     NS sqrt iter    4 1.00000000   0.134E-02       0.002       69.230
     NS sqrt iter    5 1.00000000   0.166E-07       0.001       44.730
     Final NS sqrt iter    5 1.00000000   0.832E-09

     Est. extremal eigenvalues     -0.91916     1.59029  converged:  T
     TRS4 it   1 1.00000000   0.837E+00       0.000       16.128   0.100E-07
     TRS4 it   2 1.00000000   0.595E+00       0.001       32.256   0.100E-07
     TRS4 it   3 1.00000000   0.406E+00       0.001       32.256   0.100E-07
     TRS4 it   4 1.00000000   0.207E+00       0.001       32.256   0.100E-07
     TRS4 it   5 1.00000000   0.658E-01       0.001       32.256   0.100E-07
     TRS4 it   6 1.00000000   0.791E-02       0.001       32.256   0.100E-07
     TRS4 it   7 1.00000000   0.148E-03       0.001       32.256   0.100E-07
     TRS4 it   8 1.00000000   0.749E-07       0.001       32.256   0.100E-07
     Final TRS4 iteration    8 1.00000000   0.749E-07
     Chemical potential (mu):      -0.00608
 
 PAO| energy:  -7.7377763406543902      penalty:   1.2215837566020518E-005
 PAO|CG| trace_G_new    3.3670676327876110E-005
 PAO|CG| trace_G_prev    5.6837575929570519E-005
 PAO|CG| trace_G_mix    6.8653632917085340E-009
 PAO|CG| trace_D    7.9731356149273145E-005
 PAO|CG| trace_D_Gnew  -6.3656248295792823E-009
 PAO|CG| beta:   0.59228090596788363     
 PAO| norm of gradient:   5.8026439084158969E-003
 PAO| energy improvement:  -7.6489796310141855E-006
 PAO| step     28                   -7.737776341  0.363E-03  0.269E+00     0.055
 PAO|LS| adapt:  T F F
 PAO|LS| adapt: scan_steps:    0.0000000000000000        0.0000000000000000        0.0000000000000000     
 PAO|LS| adapt: energies:   -7.7377763406543902        0.0000000000000000        0.0000000000000000     
 PAO| ======================= Iteration:        29 =============================

     Lanczos converged:  T threshold:   0.100E-02
     Est. extremal eigenvalues:    0.274E+01   0.196E+00
     Est. condition number :    0.140E+02
     NS sqrt iter    1 1.00000000   0.700E+00       0.001       64.512
     NS sqrt iter    2 1.00000000   0.321E+00       0.001      106.001
     NS sqrt iter    3 1.00000000   0.687E-01       0.001      110.592
     NS sqrt iter    4 1.00000000   0.134E-02       0.001      110.592
     NS sqrt iter    5 1.00000000   0.166E-07       0.001       51.584
     Final NS sqrt iter    5 1.00000000   0.830E-09

     Est. extremal eigenvalues     -0.91917     1.59035  converged:  T
     TRS4 it   1 1.00000000   0.838E+00       0.001       16.128   0.100E-07
     TRS4 it   2 1.00000000   0.595E+00       0.001       32.256   0.100E-07
     TRS4 it   3 1.00000000   0.406E+00       0.001       32.256   0.100E-07
     TRS4 it   4 1.00000000   0.207E+00       0.001       32.256   0.100E-07
     TRS4 it   5 1.00000000   0.657E-01       0.001       32.256   0.100E-07
     TRS4 it   6 1.00000000   0.787E-02       0.001       32.256   0.100E-07
     TRS4 it   7 1.00000000   0.146E-03       0.001       32.256   0.100E-07
     TRS4 it   8 1.00000000   0.732E-07       0.001       32.256   0.100E-07
     Final TRS4 iteration    8 1.00000000   0.732E-07
     Chemical potential (mu):      -0.00586
 
 PAO| energy:  -7.7377841331531290      penalty:   1.1731280361326245E-005
 PAO|LS| adapt:  T T F
 PAO|LS| adapt: scan_steps:    0.0000000000000000       0.26854407735500213        0.0000000000000000     
 PAO|LS| adapt: energies:   -7.7377763406543902       -7.7377841331531290        0.0000000000000000     
 PAO| ======================= Iteration:        30 =============================

     Lanczos converged:  T threshold:   0.100E-02
     Est. extremal eigenvalues:    0.274E+01   0.195E+00
     Est. condition number :    0.140E+02
     NS sqrt iter    1 1.00000000   0.700E+00       0.001       64.307
     NS sqrt iter    2 1.00000000   0.321E+00       0.001      110.592
     NS sqrt iter    3 1.00000000   0.686E-01       0.001      110.592
     NS sqrt iter    4 1.00000000   0.134E-02       0.001      110.592
     NS sqrt iter    5 1.00000000   0.166E-07       0.001       51.584
     Final NS sqrt iter    5 1.00000000   0.829E-09

     Est. extremal eigenvalues     -0.91917     1.59040  converged:  T
     TRS4 it   1 1.00000000   0.838E+00       0.000       16.128   0.100E-07
     TRS4 it   2 1.00000000   0.595E+00       0.001       32.256   0.100E-07
     TRS4 it   3 1.00000000   0.405E+00       0.001       32.256   0.100E-07
     TRS4 it   4 1.00000000   0.206E+00       0.001       32.256   0.100E-07
     TRS4 it   5 1.00000000   0.656E-01       0.001       32.256   0.100E-07
     TRS4 it   6 1.00000000   0.784E-02       0.001       32.256   0.100E-07
     TRS4 it   7 1.00000000   0.145E-03       0.001       32.256   0.100E-07
     TRS4 it   8 1.00000000   0.716E-07       0.001       32.256   0.100E-07
     Final TRS4 iteration    8 1.00000000   0.716E-07
     Chemical potential (mu):      -0.00564
 
 PAO| energy:  -7.7377894225474915      penalty:   1.1257537709273274E-005
 PAO|LS| adapt:  T T F
 PAO|LS| adapt: scan_steps:    0.0000000000000000       0.53708815471000426        0.0000000000000000     
 PAO|LS| adapt: energies:   -7.7377763406543902       -7.7377894225474915        0.0000000000000000     
 PAO| ======================= Iteration:        31 =============================

     Lanczos converged:  T threshold:   0.100E-02
     Est. extremal eigenvalues:    0.274E+01   0.195E+00
     Est. condition number :    0.140E+02
     NS sqrt iter    1 1.00000000   0.699E+00       0.001       46.808
     NS sqrt iter    2 1.00000000   0.321E+00       0.001      100.162
     NS sqrt iter    3 1.00000000   0.684E-01       0.001      110.592
     NS sqrt iter    4 1.00000000   0.133E-02       0.001      110.592
     NS sqrt iter    5 1.00000000   0.167E-07       0.001       51.712
     Final NS sqrt iter    5 1.00000000   0.812E-09

     Est. extremal eigenvalues     -0.91918     1.59050  converged:  T
     TRS4 it   1 1.00000000   0.838E+00       0.001       16.128   0.100E-07
     TRS4 it   2 1.00000000   0.595E+00       0.001       28.075   0.100E-07
     TRS4 it   3 1.00000000   0.405E+00       0.001       26.057   0.100E-07
     TRS4 it   4 1.00000000   0.206E+00       0.001       32.256   0.100E-07
     TRS4 it   5 1.00000000   0.653E-01       0.001       32.256   0.100E-07
     TRS4 it   6 1.00000000   0.776E-02       0.001       32.256   0.100E-07
     TRS4 it   7 1.00000000   0.141E-03       0.001       32.256   0.100E-07
     TRS4 it   8 1.00000000   0.683E-07       0.001       32.256   0.100E-07
     Final TRS4 iteration    8 1.00000000   0.683E-07
     Chemical potential (mu):      -0.00519
 
 PAO| energy:  -7.7377925016381068      penalty:   1.0342247175266131E-005
 PAO|LS| Need extra step
 PAO|LS| adapt:  T T F
 PAO|LS| adapt: scan_steps:    0.0000000000000000        1.0741763094200085        0.0000000000000000     
 PAO|LS| adapt: energies:   -7.7377763406543902       -7.7377925016381068        0.0000000000000000     
 PAO| ======================= Iteration:        32 =============================

     Lanczos converged:  T threshold:   0.100E-02
     Est. extremal eigenvalues:    0.274E+01   0.195E+00
     Est. condition number :    0.140E+02
     NS sqrt iter    1 1.00000000   0.698E+00       0.001       64.512
     NS sqrt iter    2 1.00000000   0.320E+00       0.001      106.963
     NS sqrt iter    3 1.00000000   0.680E-01       0.001      110.592
     NS sqrt iter    4 1.00000000   0.132E-02       0.001      110.592
     NS sqrt iter    5 1.00000000   0.169E-07       0.001       51.712
     Final NS sqrt iter    5 1.00000000   0.305E-08

     Est. extremal eigenvalues     -0.91919     1.59065  converged:  T
     TRS4 it   1 1.00000000   0.839E+00       0.000       16.128   0.100E-07
     TRS4 it   2 1.00000000   0.595E+00       0.001       32.256   0.100E-07
     TRS4 it   3 1.00000000   0.405E+00       0.001       32.256   0.100E-07
     TRS4 it   4 1.00000000   0.205E+00       0.001       32.256   0.100E-07
     TRS4 it   5 1.00000000   0.648E-01       0.001       32.256   0.100E-07
     TRS4 it   6 1.00000000   0.762E-02       0.001       32.256   0.100E-07
     TRS4 it   7 1.00000000   0.135E-03       0.001       32.256   0.100E-07
     TRS4 it   8 1.00000000   0.622E-07       0.001       32.256   0.100E-07
     Final TRS4 iteration    8 1.00000000   0.622E-07
     Chemical potential (mu):      -0.00429
 
 PAO| energy:  -7.7377687228120244      penalty:   8.6387146683999404E-006
 PAO|LS| Need extra step
 PAO|LS| adapt:  T T T
 PAO|LS| adapt: scan_steps:    0.0000000000000000        1.0741763094200085        2.1483526188400170     
 PAO|LS| adapt: energies:   -7.7377763406543902       -7.7377925016381068       -7.7377687228120244     
 PAO|LS| adapt: suggested step_size:   0.97173583912953354     
 PAO|LS| adapt: predicted energy  -7.7377926832599107     
 PAO| ======================= Iteration:        33 =============================

     Lanczos converged:  T threshold:   0.100E-02
     Est. extremal eigenvalues:    0.274E+01   0.195E+00
     Est. condition number :    0.140E+02
     NS sqrt iter    1 1.00000000   0.699E+00       0.001       57.070
     NS sqrt iter    2 1.00000000   0.321E+00       0.001       96.052
     NS sqrt iter    3 1.00000000   0.684E-01       0.001      106.010
     NS sqrt iter    4 1.00000000   0.133E-02       0.001      110.592
     NS sqrt iter    5 1.00000000   0.167E-07       0.001       51.712
     Final NS sqrt iter    5 1.00000000   0.812E-09

     Est. extremal eigenvalues     -0.91918     1.59048  converged:  T
     TRS4 it   1 1.00000000   0.838E+00       0.001       16.128   0.100E-07
     TRS4 it   2 1.00000000   0.595E+00       0.001       27.980   0.100E-07
     TRS4 it   3 1.00000000   0.405E+00       0.001       22.929   0.100E-07
     TRS4 it   4 1.00000000   0.206E+00       0.001       32.256   0.100E-07
     TRS4 it   5 1.00000000   0.654E-01       0.001       32.256   0.100E-07
     TRS4 it   6 1.00000000   0.778E-02       0.001       32.256   0.100E-07
     TRS4 it   7 1.00000000   0.142E-03       0.001       32.256   0.100E-07
     TRS4 it   8 1.00000000   0.689E-07       0.001       32.256   0.100E-07
     Final TRS4 iteration    8 1.00000000   0.689E-07
     Chemical potential (mu):      -0.00528
 
 PAO| energy:  -7.7377926854687464      penalty:   1.0513527132950006E-005
 PAO|CG| trace_G_new    8.5634627828951114E-005
 PAO|CG| trace_G_prev    3.3670676327876110E-005
 PAO|CG| trace_G_mix    7.5501883109638366E-008
 PAO|CG| trace_D    6.1647711161215462E-005
 PAO|CG| trace_D_Gnew   2.8127457868447384E-008
 PAO|CG| beta:    2.5410575395839814     
 PAO| norm of gradient:   9.2538979802541110E-003
 PAO| energy improvement:  -1.6344814356195059E-005
 PAO| step     33                   -7.737792685  0.578E-03  0.972E+00     0.087
 PAO|LS| adapt:  T F F
 PAO|LS| adapt: scan_steps:    0.0000000000000000        0.0000000000000000        0.0000000000000000     
 PAO|LS| adapt: energies:   -7.7377926854687464        0.0000000000000000        0.0000000000000000     
 PAO| ======================= Iteration:        34 =============================

     Lanczos converged:  T threshold:   0.100E-02
     Est. extremal eigenvalues:    0.273E+01   0.194E+00
     Est. condition number :    0.141E+02
     NS sqrt iter    1 1.00000000   0.696E+00       0.001       53.605
     NS sqrt iter    2 1.00000000   0.319E+00       0.001       82.224
     NS sqrt iter    3 1.00000000   0.676E-01       0.001      110.592
     NS sqrt iter    4 1.00000000   0.131E-02       0.001      109.667
     NS sqrt iter    5 1.00000000   0.172E-07       0.001       51.712
     Final NS sqrt iter    5 1.00000000   0.319E-08

     Est. extremal eigenvalues     -0.91921     1.59030  converged:  T
     TRS4 it   1 1.00000000   0.839E+00       0.000       16.128   0.100E-07
     TRS4 it   2 1.00000000   0.595E+00       0.001       32.256   0.100E-07
[...]
 PAO| ======================= Iteration:       943 =============================

     Lanczos converged:  T threshold:   0.100E-02
     Est. extremal eigenvalues:    0.250E+01   0.231E+00
     Est. condition number :    0.108E+02
     NS sqrt iter    1 1.00000000   0.636E+00       0.001       64.331
     NS sqrt iter    2 1.00000000   0.267E+00       0.001       95.441
     NS sqrt iter    3 1.00000000   0.394E-01       0.001       97.553
     NS sqrt iter    4 1.00000000   0.282E-03       0.001      109.824
     NS sqrt iter    5 1.00000000   0.477E-09       0.001       36.864
     Final NS sqrt iter    5 1.00000000   0.527E-10

     Est. extremal eigenvalues     -0.91901     1.39619  converged:  T
     TRS4 it   1 1.00000000   0.793E+00       0.000       16.128   0.100E-07
     TRS4 it   2 1.00000000   0.576E+00       0.001       29.325   0.100E-07
     TRS4 it   3 1.00000000   0.409E+00       0.002       18.830   0.100E-07
     TRS4 it   4 1.00000000   0.245E+00       0.002       17.842   0.100E-07
     TRS4 it   5 1.00000000   0.110E+00       0.001       32.256   0.100E-07
     TRS4 it   6 1.00000000   0.283E-01       0.001       32.256   0.100E-07
     TRS4 it   7 1.00000000   0.268E-02       0.001       32.256   0.100E-07
     TRS4 it   8 1.00000000   0.283E-04       0.001       32.256   0.100E-07
     TRS4 it   9 1.00000000   0.338E-08       0.001       32.256   0.100E-07
     Final TRS4 iteration    9 1.00000000   0.338E-08
     Chemical potential (mu):      -0.08679
 
 PAO| energy:  -7.7378237461257902      penalty:   7.0061833147789418E-012
 PAO|LS| Need extra step
 PAO|LS| adapt:  T T T
 PAO|LS| adapt: scan_steps:    0.0000000000000000       0.20000000000000001       0.40000000000000002     
 PAO|LS| adapt: energies:   -7.7378237461085497       -7.7378237461281252       -7.7378237461257902     
 PAO|LS| adapt: suggested step_size:   0.27868579999189275     
 PAO|LS| adapt: predicted energy  -7.7378237461298207     
 PAO| ======================= Iteration:       944 =============================

     Lanczos converged:  T threshold:   0.100E-02
     Est. extremal eigenvalues:    0.250E+01   0.231E+00
     Est. condition number :    0.108E+02
     NS sqrt iter    1 1.00000000   0.636E+00       0.001       64.512
     NS sqrt iter    2 1.00000000   0.267E+00       0.001      110.592
     NS sqrt iter    3 1.00000000   0.394E-01       0.001      110.592
     NS sqrt iter    4 1.00000000   0.282E-03       0.001      109.824
     NS sqrt iter    5 1.00000000   0.477E-09       0.001       36.864
     Final NS sqrt iter    5 1.00000000   0.527E-10

     Est. extremal eigenvalues     -0.91901     1.39619  converged:  T
     TRS4 it   1 1.00000000   0.793E+00       0.000       16.128   0.100E-07
     TRS4 it   2 1.00000000   0.576E+00       0.001       32.256   0.100E-07
     TRS4 it   3 1.00000000   0.409E+00       0.001       32.256   0.100E-07
     TRS4 it   4 1.00000000   0.245E+00       0.001       32.256   0.100E-07
     TRS4 it   5 1.00000000   0.110E+00       0.001       32.256   0.100E-07
     TRS4 it   6 1.00000000   0.283E-01       0.001       32.256   0.100E-07
     TRS4 it   7 1.00000000   0.268E-02       0.001       32.256   0.100E-07
     TRS4 it   8 1.00000000   0.283E-04       0.001       32.256   0.100E-07
     TRS4 it   9 1.00000000   0.338E-08       0.001       32.256   0.100E-07
     Final TRS4 iteration    9 1.00000000   0.338E-08
     Chemical potential (mu):      -0.08679
 
 PAO| energy:  -7.7378237461298198      penalty:   7.0706089918805830E-012
 PAO|CG| warming up with steepest descent
 PAO|CG| beta:    0.0000000000000000     
 PAO| norm of gradient:   7.9493917999218074E-006
 PAO| energy improvement:  -2.1270096794978599E-011
 PAO| step    944                   -7.737823746  0.497E-06  0.279E+00     0.074
 PAO| converged after          944  steps :-)
 PAO| Recalculating energy after mixing.

     Lanczos converged:  T threshold:   0.100E-02
     Est. extremal eigenvalues:    0.250E+01   0.231E+00
     Est. condition number :    0.108E+02
     NS sqrt iter    1 1.00000000   0.636E+00       0.001       64.512
     NS sqrt iter    2 1.00000000   0.267E+00       0.001       81.514
     NS sqrt iter    3 1.00000000   0.394E-01       0.001       79.019
     NS sqrt iter    4 1.00000000   0.282E-03       0.001       87.612
     NS sqrt iter    5 1.00000000   0.477E-09       0.001       36.864
     Final NS sqrt iter    5 1.00000000   0.527E-10

     Est. extremal eigenvalues     -0.91901     1.39619  converged:  T
     TRS4 it   1 1.00000000   0.793E+00       0.000       16.128   0.100E-07
     TRS4 it   2 1.00000000   0.576E+00       0.001       32.256   0.100E-07
     TRS4 it   3 1.00000000   0.409E+00       0.001       32.256   0.100E-07
     TRS4 it   4 1.00000000   0.245E+00       0.001       32.256   0.100E-07
     TRS4 it   5 1.00000000   0.110E+00       0.001       32.256   0.100E-07
     TRS4 it   6 1.00000000   0.283E-01       0.001       32.256   0.100E-07
     TRS4 it   7 1.00000000   0.268E-02       0.001       32.256   0.100E-07
     TRS4 it   8 1.00000000   0.283E-04       0.001       32.256   0.100E-07
     TRS4 it   9 1.00000000   0.338E-08       0.001       32.256   0.100E-07
     Final TRS4 iteration    9 1.00000000   0.338E-08
     Chemical potential (mu):      -0.08679
 
 PAO| energy:  -7.7378237461245014      penalty:   7.1450012728242709E-012
 PAO| Writing restart file.
     Est. extremal eigenvalues     -0.91901     1.39619  converged:  T
     TRS4 it   1 1.00000000   0.793E+00       0.000       16.128   0.100E-07
     TRS4 it   2 1.00000000   0.576E+00       0.001       32.256   0.100E-07
     TRS4 it   3 1.00000000   0.409E+00       0.001       32.256   0.100E-07
     TRS4 it   4 1.00000000   0.245E+00       0.001       32.256   0.100E-07
     TRS4 it   5 1.00000000   0.110E+00       0.001       32.256   0.100E-07
     TRS4 it   6 1.00000000   0.283E-01       0.001       32.256   0.100E-07
     TRS4 it   7 1.00000000   0.268E-02       0.001       32.256   0.100E-07
     TRS4 it   8 1.00000000   0.283E-04       0.001       32.256   0.100E-07
     TRS4 it   9 1.00000000   0.338E-08       0.001       32.256   0.100E-07
     Final TRS4 iteration    9 1.00000000   0.338E-08
     Chemical potential (mu):      -0.08679

 SCF     1       -34.446867681       -34.446867681    2.288650

*********************************************************
 Using MIXING_FRACTION=0.450 to mix KS matrix:  iscf=  2
 KS_nw=0.450*KS + 0.550*KS_old
*********************************************************
     Est. extremal eigenvalues     -0.91901     1.39619  converged:  T
     TRS4 it   1 1.00000000   0.793E+00       0.000       16.128   0.100E-07
     TRS4 it   2 1.00000000   0.576E+00       0.001       32.256   0.100E-07
     TRS4 it   3 1.00000000   0.409E+00       0.001       32.256   0.100E-07
     TRS4 it   4 1.00000000   0.245E+00       0.001       32.256   0.100E-07
     TRS4 it   5 1.00000000   0.110E+00       0.001       32.256   0.100E-07
     TRS4 it   6 1.00000000   0.283E-01       0.001       32.256   0.100E-07
     TRS4 it   7 1.00000000   0.268E-02       0.001       32.256   0.100E-07
     TRS4 it   8 1.00000000   0.283E-04       0.001       32.256   0.100E-07
     TRS4 it   9 1.00000000   0.338E-08       0.001       32.256   0.100E-07
     Final TRS4 iteration    9 1.00000000   0.338E-08
     Chemical potential (mu):      -0.08679

 SCF     2       -34.446867681        -0.000000000    2.285420

 PAO| Storing density matrix for ASPC guess in slot:           1

 ENERGY| Total FORCE_EVAL ( QS ) energy (a.u.):              -34.446867681123351


 -------------------------------------------------------------------------------
 -                                                                             -
 -                                DBCSR STATISTICS                             -
 -                                                                             -
 -------------------------------------------------------------------------------
 COUNTER                                    TOTAL       BLAS       SMM       ACC
 flops     5 x     5 x     4                32000       0.0%    100.0%      0.0%
 flops    13 x     5 x     4                33280       0.0%    100.0%      0.0%
 flops     5 x    13 x     4                33280       0.0%    100.0%      0.0%
 flops    13 x    13 x     4                64896       0.0%    100.0%      0.0%
 flops     4 x     4 x     5              7380480       0.0%    100.0%      0.0%
 flops     5 x     4 x     5              9001600       0.0%    100.0%      0.0%
 flops     4 x     4 x    13              9594624       0.0%    100.0%      0.0%
 flops    13 x     4 x     5             11702080       0.0%    100.0%      0.0%
 flops     5 x     4 x    13             11702080       0.0%    100.0%      0.0%
 flops     5 x     4 x     4             13956640       0.0%    100.0%      0.0%
 flops    13 x     4 x    13             15212704       0.0%    100.0%      0.0%
 flops    13 x     4 x     4             18281536       0.0%    100.0%      0.0%
 flops     4 x     4 x     4            933769856       0.0%    100.0%      0.0%
 flops inhomo. stacks                           0       0.0%      0.0%      0.0%
 flops total                         1.030765E+09       0.0%    100.0%      0.0%
 flops max/rank                      1.030765E+09       0.0%    100.0%      0.0%
 matmuls inhomo. stacks                         0       0.0%      0.0%      0.0%
 matmuls total                            7597048       0.0%    100.0%      0.0%
 number of processed stacks                 60579       0.0%    100.0%      0.0%
 average stack size                                     0.0     125.4       0.0
 marketing flops                     1.684517E+09
 -------------------------------------------------------------------------------
 # multiplications                          50768
 max memory usage/rank             321.384448E+06
 # max total images/rank                        1
 # max 3D layers                                1
 # MPI messages exchanged                       0
 MPI messages size (bytes):
  total size                         0.000000E+00
  min size                           0.000000E+00
  max size                           0.000000E+00
  average size                       0.000000E+00
 MPI breakdown and total messages size (bytes):
             size <=      128                   0                        0
       128 < size <=     8192                   0                        0
      8192 < size <=    32768                   0                        0
     32768 < size <=   131072                   0                        0
    131072 < size <=  4194304                   0                        0
   4194304 < size <= 16777216                   0                        0
  16777216 < size                               0                        0
 -------------------------------------------------------------------------------

 MEMORY| Estimated peak process memory [MiB]                                 307

 -------------------------------------------------------------------------------
 -                                                                             -
 -                           R E F E R E N C E S                               -
 -                                                                             -
 -------------------------------------------------------------------------------
 
 CP2K version 7.0 (Development Version), the CP2K developers group (2018).
 CP2K is freely available from https://www.cp2k.org/ .

 Schuett, O; VandeVondele, J. 
 Journal of Chemical Theory and Computation, 14, (2018). 
 Machine Learning Adaptive Basis Sets for Efficient Large Scale Density Functional Theory Simulation.
 https://dx.doi.org/10.1021/acs.jctc.8b00378


 Schuett, Ole; Messmer, Peter; Hutter, Juerg; VandeVondele, Joost. 
 Electronic Structure Calculations on Graphics Processing Units, John Wiley & Sons, Ltd, 173-190 (2016). 
 GPU-Accelerated Sparse Matrix-Matrix Multiplication for Linear Scaling Density Functional Theory.
 https://dx.doi.org/10.1002/9781118670712.ch8


 Borstnik, U; VandeVondele, J; Weber, V; Hutter, J. 
 PARALLEL COMPUTING, 40 (5-6), 47-58 (2014). 
 Sparse matrix multiplication: The distributed block-compressed sparse
 row library.
 https://dx.doi.org/10.1016/j.parco.2014.03.012


 Hutter, J; Iannuzzi, M; Schiffmann, F; VandeVondele, J. 
 WILEY INTERDISCIPLINARY REVIEWS-COMPUTATIONAL MOLECULAR SCIENCE, 4 (1), 15-25 (2014). 
 CP2K: atomistic simulations of condensed matter systems.
 https://dx.doi.org/10.1002/wcms.1159


 VandeVondele, J; Borstnik, U; Hutter, J. 
 JOURNAL OF CHEMICAL THEORY AND COMPUTATION, 8 (10), 3565-3573 (2012). 
 Linear Scaling Self-Consistent Field Calculations with Millions of Atoms
 in the Condensed Phase.
 https://dx.doi.org/10.1021/ct200897x


 VandeVondele, J; Hutter, J. 
 JOURNAL OF CHEMICAL PHYSICS, 127 (11), 114105 (2007). 
 Gaussian basis sets for accurate calculations on molecular systems in
 gas and condensed phases.
 https://dx.doi.org/10.1063/1.2770708


 Krack, M. 
 THEORETICAL CHEMISTRY ACCOUNTS, 114 (1-3), 145-152 (2005). 
 Pseudopotentials for H to Kr optimized for gradient-corrected
 exchange-correlation functionals.
 https://dx.doi.org/10.1007/s00214-005-0655-y


 VandeVondele, J; Krack, M; Mohamed, F; Parrinello, M; Chassaing, T;
 Hutter, J. COMPUTER PHYSICS COMMUNICATIONS, 167 (2), 103-128 (2005). 
 QUICKSTEP: Fast and accurate density functional calculations using a
 mixed Gaussian and plane waves approach.
 https://dx.doi.org/10.1016/j.cpc.2004.12.014


 Frigo, M; Johnson, SG. 
 PROCEEDINGS OF THE IEEE, 93 (2), 216-231 (2005). 
 The design and implementation of FFTW3.
 https://dx.doi.org/10.1109/JPROC.2004.840301


 Niklasson, AMN; Tymczak, CJ; Challacombe, M. 
 JOURNAL OF CHEMICAL PHYSICS, 118 (19), 8611-8620 (2003). 
 Trace resetting density matrix purification in O(N)
 self-consistent-field theory.
 https://dx.doi.org/10.1063/1.1559913


 Hartwigsen, C; Goedecker, S; Hutter, J. 
 PHYSICAL REVIEW B, 58 (7), 3641-3662 (1998). 
 Relativistic separable dual-space Gaussian pseudopotentials from H to Rn.
 https://dx.doi.org/10.1103/PhysRevB.58.3641


 Lippert, G; Hutter, J; Parrinello, M. 
 MOLECULAR PHYSICS, 92 (3), 477-487 (1997). 
 A hybrid Gaussian and plane wave density functional scheme.
 https://dx.doi.org/10.1080/002689797170220


 Perdew, JP; Burke, K; Ernzerhof, M. 
 PHYSICAL REVIEW LETTERS, 77 (18), 3865-3868 (1996). 
 Generalized gradient approximation made simple.
 https://dx.doi.org/10.1103/PhysRevLett.77.3865


 Goedecker, S; Teter, M; Hutter, J. 
 PHYSICAL REVIEW B, 54 (3), 1703-1710 (1996). 
 Separable dual-space Gaussian pseudopotentials.
 https://dx.doi.org/10.1103/PhysRevB.54.1703


 -------------------------------------------------------------------------------
 -                                                                             -
 -                                T I M I N G                                  -
 -                                                                             -
 -------------------------------------------------------------------------------
 SUBROUTINE                       CALLS  ASD         SELF TIME        TOTAL TIME
                                MAXIMUM       AVERAGE  MAXIMUM  AVERAGE  MAXIMUM
 CP2K                                 1  1.0    0.025    0.025   55.416   55.416
 qs_energies                          1  2.0    0.000    0.000   54.987   54.987
 ls_scf                               1  3.0    0.000    0.000   54.865   54.865
 ls_scf_main                          7  4.0    0.001    0.001   34.465   34.465
 ls_scf_dm_to_ks                     15  5.0    0.000    0.000   34.327   34.327
 qs_ks_update_qs_env                 16  6.0    0.000    0.000   26.376   26.376
 rebuild_ks_matrix                   16  7.0    0.000    0.000   26.375   26.375
 qs_ks_build_kohn_sham_matrix        16  8.0    0.003    0.003   26.375   26.375
 pao_update                           7  4.0    0.026    0.026   17.936   17.936
 pao_calc_energy                    950  5.0    0.010    0.010   16.238   16.238
 qs_vxc_create                       16  9.0    0.000    0.000   15.301   15.301
 xc_vxc_pw_create                    16 10.0    0.290    0.290   15.301   15.301
 dbcsr_multiply_generic           50768  8.4    1.008    1.008   12.994   12.994
 xc_rho_set_and_dset_create          16 11.0    0.103    0.103   10.599   10.599
 qs_rho_update_rho                   16  6.0    0.000    0.000   10.322   10.322
 calculate_rho_elec                  16  7.0    8.049    8.049   10.322   10.322
 pw_transfer                        305 10.6    0.027    0.027   10.260   10.260
 fft_wrap_pw1pw2                    273 11.7    0.004    0.004   10.002   10.002
 fft_wrap_pw1pw2_200                177 12.8    1.035    1.035    9.569    9.569
 sum_up_and_integrate                16  9.0    0.059    0.059    9.147    9.147
 integrate_v_rspace                  16 10.0    7.852    7.852    9.088    9.088
 pao_dm_trs4                        950  6.0    0.011    0.011    8.415    8.415
 density_matrix_trs4                965  7.0    0.504    0.504    8.019    8.019
 ls_scf_init_matrix_S               957  7.0    0.010    0.010    7.770    7.770
 pao_rebuild_S                      950  6.0    0.008    0.008    7.721    7.721
 matrix_sqrt_Newton_Schulz          957  8.0    0.354    0.354    6.966    6.966
 xc_functional_eval                  16 12.0    0.000    0.000    6.739    6.739
 pbe_lda_eval                        16 13.0    6.739    6.739    6.739    6.739
 fft3d_s                            274 13.6    5.142    5.142    5.155    5.155
 multiply_cannon                  50768  9.4    2.358    2.358    5.052    5.052
 make_m2s                        101536  9.4    0.344    0.344    4.729    4.729
 make_images                     101536 10.4    1.215    1.215    4.188    4.188
 pao_guess_initial_P                  1  4.0    0.000    0.000    2.380    2.380
 pao_read_preopt_dm                   1  5.0    0.000    0.000    2.380    2.380
 density_rs2pw                       16  8.0    0.001    0.001    2.228    2.228
 arnoldi_extremal                  1922  8.5    0.014    0.014    2.153    2.153
 arnoldi_normal_ev                 1922  9.5    0.031    0.031    2.139    2.139
 pw_scatter_s                       144 14.2    1.984    1.984    1.984    1.984
 pw_gather_s                        129 13.1    1.782    1.782    1.782    1.782
 pao_calc_AB                       1248  5.8    0.003    0.003    1.656    1.656
 pao_calc_AB_direct                1248  6.8    0.060    0.060    1.654    1.654
 build_subspace                    1922 10.5    0.127    0.127    1.527    1.527
 pao_calc_grad_lnv_wrt_AB           297  7.0    0.018    0.018    1.523    1.523
 dbcsr_create_new                388326 10.7    0.759    0.759    1.372    1.372
 pw_derive                           96 11.5    1.355    1.355    1.355    1.355
 dbcsr_matrix_vector_mult         46123 11.5    0.245    0.245    1.355    1.355
 dbcsr_finalize                  119896  9.7    0.247    0.247    1.354    1.354
 potential_pw2rs                     16 11.0    0.006    0.006    1.233    1.233
 -------------------------------------------------------------------------------

 The number of warnings for this run is : 0
 
 -------------------------------------------------------------------------------
  **** **** ******  **  PROGRAM ENDED AT                 2019-02-14 01:11:41.845
 ***** ** ***  *** **   PROGRAM RAN ON                                      otto
 **    ****   ******    PROGRAM RAN BY                                       ole
 ***** **    ** ** **   PROGRAM PROCESS ID                                  6007
  **** **  *******  **  PROGRAM STOPPED IN /home/ole/git/pao_ml_equivar/2H2O_MD/
                                           frame_0200
