 DBCSR| CPU Multiplication driver                                           BLAS
 DBCSR| Multrec recursion limit                                              512
 DBCSR| Multiplication stack size                                           1000
 DBCSR| Maximum elements for images                                    UNLIMITED
 DBCSR| Multiplicative factor virtual images                                   1
 DBCSR| Use multiplication densification                                       T
 DBCSR| Multiplication size stacks                                             3


  **** **** ******  **  PROGRAM STARTED AT               2019-03-28 17:34:06.819
 ***** ** ***  *** **   PROGRAM STARTED ON        oleschuett.zrh.corp.google.com
 **    ****   ******    PROGRAM STARTED BY                            oleschuett
 ***** **    ** ** **   PROGRAM PROCESS ID                                 36030
  **** **  *******  **  PROGRAM STARTED IN /usr/local/google/home/oleschuett/git
                                           /pao_ml_equivar/2H2O_rotations/rand_1
                                           3

 CP2K| version string:                    CP2K version 7.0 (Development Version)
 CP2K| source code revision number:                                git:d9814d431
 CP2K| cp2kflags: libint fftw3 libxc libderiv_max_am1=5 libint_max_am=6         
 CP2K| is freely available from                            https://www.cp2k.org/
 CP2K| Program compiled at                          Mon Mar 25 16:50:07 CET 2019
 CP2K| Program compiled on                        oleschuett.zrh.corp.google.com
 CP2K| Program compiled for                                                local
 CP2K| Data directory path       /usr/local/google/home/oleschuett/git/cp2k/data
 CP2K| Input file name                                            2H2O_pao44.inp

 GLOBAL| Force Environment number                                              1
 GLOBAL| Basis set file name                                        BASIS_MOLOPT
 GLOBAL| Potential file name                                      GTH_POTENTIALS
 GLOBAL| MM Potential file name                                     MM_POTENTIAL
 GLOBAL| Coordinate file name                                         coords.xyz
 GLOBAL| Method name                                                        CP2K
 GLOBAL| Project name                                                 2H2O_pao44
 GLOBAL| Preferred FFT library                                             FFTW3
 GLOBAL| Preferred diagonalization lib.                                       SL
 GLOBAL| Run type                                                         ENERGY
 GLOBAL| All-to-all communication in single precision                          F
 GLOBAL| FFTs using library dependent lengths                                  F
 GLOBAL| Global print level                                                  LOW
 GLOBAL| MPI I/O enabled                                                       T
 GLOBAL| Total number of message passing processes                             1
 GLOBAL| Number of threads for this process                                    1
 GLOBAL| This output is from process                                           0
 GLOBAL| CPU model name :  Intel(R) Xeon(R) CPU E5-1650 v4 @ 3.60GHz

 MEMORY| system memory details [Kb]
 MEMORY|                        rank 0           min           max       average
 MEMORY| MemTotal             65953612      65953612      65953612      65953612
 MEMORY| MemFree               4265908       4265908       4265908       4265908
 MEMORY| Buffers               2543220       2543220       2543220       2543220
 MEMORY| Cached               25348628      25348628      25348628      25348628
 MEMORY| Slab                  3623236       3623236       3623236       3623236
 MEMORY| SReclaimable          2422200       2422200       2422200       2422200
 MEMORY| MemLikelyFree        34579956      34579956      34579956      34579956


 GENERATE|  Preliminary Number of Bonds generated:                             0
 GENERATE|  Achieved consistency in connectivity generation.

 *******************************************************************************
 *******************************************************************************
 **                                                                           **
 **     #####                         ##              ##                      **
 **    ##   ##            ##          ##              ##                      **
 **   ##     ##                       ##            ######                    **
 **   ##     ##  ##   ##  ##   #####  ##  ##   ####   ##    #####    #####    **
 **   ##     ##  ##   ##  ##  ##      ## ##   ##      ##   ##   ##  ##   ##   **
 **   ##  ## ##  ##   ##  ##  ##      ####     ###    ##   ######   ######    **
 **    ##  ###   ##   ##  ##  ##      ## ##      ##   ##   ##       ##        **
 **     #######   #####   ##   #####  ##  ##  ####    ##    #####   ##        **
 **           ##                                                    ##        **
 **                                                                           **
 **                                                ... make the atoms dance   **
 **                                                                           **
 **            Copyright (C) by CP2K developers group (2000 - 2018)           **
 **                                                                           **
 *******************************************************************************


 TOTAL NUMBERS AND MAXIMUM NUMBERS

  Total number of            - Atomic kinds:                                   2
                             - Atoms:                                          6
                             - Shell sets:                                     6
                             - Shells:                                        22
                             - Primitive Cartesian functions:                 42
                             - Cartesian basis functions:                     48
                             - Spherical basis functions:                     46

  Maximum angular momentum of- Orbital basis functions:                        2
                             - Local part of the GTH pseudopotential:          2
                             - Non-local part of the GTH pseudopotential:      0

 ------------------------------ Linear scaling SCF -----------------------------
 eps_scf:                                                              0.100E-07
 eps_filter:                                                           0.100E-07
 mixing_fraction:                                                      0.450E+00
 max_scf:                                                                     25
 fixed chemical potential (mu)                                                 F
 has unit metric:                                                              F
 Computing inv(S):                                                             T
 Computing sqrt(S):                                                            T
 Computing s preconditioner                                                    F
 sign sqrt order:                                                              3
 Extrapolation order:                                                          1
 Use single precision matrices                                                 F
 S preconditioner type                                                      NONE
 Polarized Atomic Orbitals (PAO)                                               T
 Purification method                                   Trace resetting 4th order
 Cluster type                                                             ATOMIC
 Computing Chebyshev                                                       FALSE
 Using PAO                                                                     T
 -------------------------------------------------------------------------------

 
 PAO|                                  EPS_PAO                           0.1E-04
 PAO|                                  MIXING                            0.5E+00
 PAO|                                  MAX_PAO                              1000
 PAO|                                  MAX_CYCLES                           1000
 PAO|                                  PARAMETERIZATION                   DIRECT
 PAO|                                  PRECONDITION                            F
 PAO|                                  REGULARIZATION                    0.0E+00
 PAO|                                  EPS_PGF                           0.1E-09
 PAO|                                  PENALTY_DISTANCE                  0.1E+00
 PAO|                                  PENALTY_STRENGTH                  0.5E-02
 PAO|                                  LINPOT_PRECONDITION_DELTA         0.0E+00
 PAO|                                  LINPOT_INITGUESS_DELT             0.0E+00
 PAO|                                  LINPOT_REGULARIZATION_DELTA       0.0E+00
 PAO|                                  LINPOT_REGULARIZATION_STRENGTH    0.0E+00
 PAO|                                  OPTIMIZER                              CG
 PAO|                                  CG_INIT_STEPS                           2
 PAO|                                  CG_RESET_LIMIT                    0.1E+00
 PAO|                                  CHECK_UNITARY_TOL                -0.1E+01
 PAO|                                  CHECK_GRADIENT_TOL               -0.1E+01
 PAO|                                  NUM_GRADIENT_ORDER                      2
 PAO|                                  NUM_GRADIENT_EPS                  0.1E-07
 PAO|                                  PRINT%RESTART%WRITE_CYCLES            100
 PAO|                                  RESTART_FILE 
 PAO|                                  PREOPT_DM_FILE 2H2O_ref_LS_DM_SPIN_1_RESTART.dm
 PAO|                                  MACHINE_LEARNING%METHOD        GAUSSIAN_P
 PAO|                                  MACHINE_LEARNING%PRIOR               ZERO
 PAO|                                  MACHINE_LEARNING%DESCRIPTOR     POTENTIAL
 PAO|                                  MACHINE_LEARNING%TOLERANCE        0.1E-01
 PAO|                                  MACHINE_LEARNING%GP_NOISE_VAR     0.1E+00
 PAO|                                  MACHINE_LEARNING%GP_SCALE         0.5E-01
 

 Calculating atomic Fock matrix for atomic kind: O

 Electronic structure
    Total number of core electrons                                          2.00
    Total number of valence electrons                                       6.00
    Total number of electrons                                               8.00
    Multiplicity                                                   not specified
    S   [  2.00] 2.00
    P      4.00


 *******************************************************************************
                  Iteration          Convergence                     Energy [au]
 *******************************************************************************
                          1        0.708315                     -15.576645311500
                          2        0.608879                     -15.587933561584
                          3        0.102828E-01                 -15.656849565404
                          4        0.113889E-02                 -15.656866888140
                          5        0.434197E-03                 -15.656867072159
                          6        0.263771E-03                 -15.656867091904
                          7        0.478536E-06                 -15.656867103452

 Energy components [Hartree]           Total Energy ::          -15.656867103452
                                        Band Energy ::           -3.000198112285
                                     Kinetic Energy ::           11.759971203220
                                   Potential Energy ::          -27.416838306672
                                      Virial (-V/T) ::            2.331369510426
                                        Core Energy ::          -26.140716385623
                                          XC Energy ::           -3.154051012914
                                     Coulomb Energy ::           13.637900295084
                       Total Pseudopotential Energy ::          -37.935781716540
                       Local Pseudopotential Energy ::          -39.218907440693
                    Nonlocal Pseudopotential Energy ::            1.283125724153
                                        Confinement ::            0.350941276976

 Orbital energies  State     L     Occupation   Energy[a.u.]          Energy[eV]

                       1     0          2.000      -0.864471          -23.523463

                       1     1          4.000      -0.317814           -8.648154


 Total Electron Density at R=0:                                         0.000068

 Calculating atomic Fock matrix for atomic kind: H

 Electronic structure
    Total number of core electrons                                          0.00
    Total number of valence electrons                                       1.00
    Total number of electrons                                               1.00
    Multiplicity                                                   not specified
    S      1.00


 *******************************************************************************
                  Iteration          Convergence                     Energy [au]
 *******************************************************************************
                          1        0.437545E-02                  -0.424159432110
                          2        0.531356E-03                  -0.424178438213
                          3        0.259176E-06                  -0.424178722480

 Energy components [Hartree]           Total Energy ::           -0.424178722480
                                        Band Energy ::           -0.199015229016
                                     Kinetic Energy ::            0.464007633961
                                   Potential Energy ::           -0.888186356441
                                      Virial (-V/T) ::            1.914163240935
                                        Core Energy ::           -0.479160803564
                                          XC Energy ::           -0.244352904054
                                     Coulomb Energy ::            0.299334985138
                       Total Pseudopotential Energy ::           -0.962295316385
                       Local Pseudopotential Energy ::           -0.962295316385
                    Nonlocal Pseudopotential Energy ::            0.000000000000
                                        Confinement ::            0.191268788606

 Orbital energies  State     L     Occupation   Energy[a.u.]          Energy[eV]

                       1     0          1.000      -0.199015           -5.415480


 Total Electron Density at R=0:                                         0.242907
 PAO| Made initial guess for matrix_X with norm:   4.8989794855663558     

     Lanczos converged:  T threshold:   0.100E-02
     Est. extremal eigenvalues:    0.336E+01   0.109E+00
     Est. condition number :    0.308E+02
     NS sqrt iter    1 1.00000000   0.821E+00       0.002       40.818
     NS sqrt iter    2 1.00000000   0.440E+00       0.010       10.737
     NS sqrt iter    3 1.00000000   0.171E+00       0.002       64.315
     NS sqrt iter    4 1.00000000   0.214E-01       0.002       63.928
     NS sqrt iter    5 1.00000000   0.667E-04       0.002       59.445
     Final NS sqrt iter    5 1.00000000   0.288E-08

 PAO| Read restart DM 2H2O_ref_LS_DM_SPIN_1_RESTART.dm with checksum:    69.657353041226429     
 PAO| Quickstep energy from restart density:  -34.449808365479868     
 PAO| ======================= Iteration:         1 =============================

     Lanczos converged:  T threshold:   0.100E-02
     Est. extremal eigenvalues:    0.336E+01   0.109E+00
     Est. condition number :    0.308E+02
     NS sqrt iter    1 1.00000000   0.821E+00       0.001       58.788
     NS sqrt iter    2 1.00000000   0.440E+00       0.001       96.384
     NS sqrt iter    3 1.00000000   0.171E+00       0.001       80.358
     NS sqrt iter    4 1.00000000   0.214E-01       0.002       63.719
     NS sqrt iter    5 1.00000000   0.667E-04       0.002       59.433
     Final NS sqrt iter    5 1.00000000   0.288E-08

     Est. extremal eigenvalues     -0.92061     1.97026  converged:  T
     TRS4 it   1 1.00000000   0.906E+00       0.001       16.128   0.100E-07
     TRS4 it   2 1.00000000   0.714E+00       0.001       32.256   0.100E-07
     TRS4 it   3 1.00000000   0.508E+00       0.001       32.256   0.100E-07
     TRS4 it   4 1.00000000   0.320E+00       0.001       32.256   0.100E-07
     TRS4 it   5 1.00000000   0.161E+00       0.001       32.256   0.100E-07
     TRS4 it   6 1.00000000   0.520E-01       0.001       32.256   0.100E-07
     TRS4 it   7 1.00000000   0.758E-02       0.001       32.256   0.100E-07
     TRS4 it   8 1.00000000   0.229E-03       0.001       32.256   0.100E-07
     TRS4 it   9 1.00000000   0.234E-06       0.001       32.256   0.100E-07
     TRS4 it  10 1.00000000   0.246E-12       0.001       32.256   0.100E-07
     Final TRS4 iteration   10 1.00000000   0.246E-12
     Chemical potential (mu):      -0.06512
 
 PAO| energy:  -7.6218056019068881      penalty:   3.0198581527991858E-033
 PAO|CG| warming up with steepest descent
 PAO|CG| beta:    0.0000000000000000     
 PAO| norm of gradient:  0.78363635406184895     
 PAO|LS| adapt:  T F F
 PAO|LS| adapt: scan_steps:    0.0000000000000000        0.0000000000000000        0.0000000000000000     
 PAO|LS| adapt: energies:   -7.6218056019068881        0.0000000000000000        0.0000000000000000     
 PAO| ======================= Iteration:         2 =============================

     Lanczos converged:  T threshold:   0.100E-02
     Est. extremal eigenvalues:    0.328E+01   0.122E+00
     Est. condition number :    0.270E+02
     NS sqrt iter    1 1.00000000   0.804E+00       0.001       59.257
     NS sqrt iter    2 1.00000000   0.424E+00       0.002       70.098
     NS sqrt iter    3 1.00000000   0.153E+00       0.002       65.616
     NS sqrt iter    4 1.00000000   0.150E-01       0.002       64.066
     NS sqrt iter    5 1.00000000   0.230E-04       0.001       56.551
     Final NS sqrt iter    5 1.00000000   0.836E-09

     Est. extremal eigenvalues     -0.92429     1.90959  converged:  T
     TRS4 it   1 1.00000000   0.903E+00       0.001       16.128   0.100E-07
     TRS4 it   2 1.00000000   0.694E+00       0.001       32.183   0.100E-07
     TRS4 it   3 1.00000000   0.493E+00       0.001       32.256   0.100E-07
     TRS4 it   4 1.00000000   0.302E+00       0.001       32.256   0.100E-07
     TRS4 it   5 1.00000000   0.142E+00       0.001       32.256   0.100E-07
     TRS4 it   6 1.00000000   0.408E-01       0.001       32.256   0.100E-07
     TRS4 it   7 1.00000000   0.472E-02       0.001       31.894   0.100E-07
     TRS4 it   8 1.00000000   0.895E-04       0.001       32.256   0.100E-07
     TRS4 it   9 1.00000000   0.357E-07       0.001       32.165   0.100E-07
     Final TRS4 iteration    9 1.00000000   0.357E-07
     Chemical potential (mu):      -0.05327
 
 PAO| energy:  -7.6773108666065681      penalty:   2.2548206064926866E-008
 PAO|LS| adapt:  T T F
 PAO|LS| adapt: scan_steps:    0.0000000000000000       0.10000000000000001        0.0000000000000000     
 PAO|LS| adapt: energies:   -7.6218056019068881       -7.6773108666065681        0.0000000000000000     
 PAO| ======================= Iteration:         3 =============================

     Lanczos converged:  T threshold:   0.100E-02
     Est. extremal eigenvalues:    0.319E+01   0.133E+00
     Est. condition number :    0.240E+02
     NS sqrt iter    1 1.00000000   0.786E+00       0.002       39.277
     NS sqrt iter    2 1.00000000   0.408E+00       0.002       59.104
     NS sqrt iter    3 1.00000000   0.137E+00       0.002       62.123
     NS sqrt iter    4 1.00000000   0.104E-01       0.002       59.985
     NS sqrt iter    5 1.00000000   0.812E-05       0.002       50.272
     Final NS sqrt iter    5 1.00000000   0.105E-09

     Est. extremal eigenvalues     -0.92772     1.85884  converged:  T
     TRS4 it   1 1.00000000   0.901E+00       0.001       16.128   0.100E-07
     TRS4 it   2 1.00000000   0.677E+00       0.001       23.634   0.100E-07
     TRS4 it   3 1.00000000   0.479E+00       0.001       29.541   0.100E-07
     TRS4 it   4 1.00000000   0.282E+00       0.001       32.256   0.100E-07
     TRS4 it   5 1.00000000   0.124E+00       0.001       32.228   0.100E-07
     TRS4 it   6 1.00000000   0.310E-01       0.001       32.256   0.100E-07
     TRS4 it   7 1.00000000   0.273E-02       0.001       32.256   0.100E-07
     TRS4 it   8 1.00000000   0.299E-04       0.001       28.648   0.100E-07
     TRS4 it   9 1.00000000   0.399E-08       0.001       32.036   0.100E-07
     Final TRS4 iteration    9 1.00000000   0.399E-08
     Chemical potential (mu):      -0.04046
 
 PAO| energy:  -7.7203545585017608      penalty:   3.6077125066299556E-007
 PAO|LS| adapt:  T T F
 PAO|LS| adapt: scan_steps:    0.0000000000000000       0.20000000000000001        0.0000000000000000     
 PAO|LS| adapt: energies:   -7.6218056019068881       -7.7203545585017608        0.0000000000000000     
 PAO| ======================= Iteration:         4 =============================

     Lanczos converged:  T threshold:   0.100E-02
     Est. extremal eigenvalues:    0.299E+01   0.152E+00
     Est. condition number :    0.196E+02
     NS sqrt iter    1 1.00000000   0.749E+00       0.002       39.460
     NS sqrt iter    2 1.00000000   0.373E+00       0.002       60.938
     NS sqrt iter    3 1.00000000   0.107E+00       0.001       78.576
     NS sqrt iter    4 1.00000000   0.515E-02       0.001       91.878
     NS sqrt iter    5 1.00000000   0.112E-05       0.001       71.373
     Final NS sqrt iter    5 1.00000000   0.208E-11

     Est. extremal eigenvalues     -0.93305     1.78082  converged:  T
     TRS4 it   1 1.00000000   0.895E+00       0.000       16.128   0.100E-07
     TRS4 it   2 1.00000000   0.647E+00       0.001       32.256   0.100E-07
     TRS4 it   3 1.00000000   0.450E+00       0.001       32.256   0.100E-07
     TRS4 it   4 1.00000000   0.246E+00       0.001       32.256   0.100E-07
     TRS4 it   5 1.00000000   0.922E-01       0.001       32.256   0.100E-07
     TRS4 it   6 1.00000000   0.166E-01       0.001       32.256   0.100E-07
     TRS4 it   7 1.00000000   0.744E-03       0.001       32.256   0.100E-07
     TRS4 it   8 1.00000000   0.215E-05       0.001       32.256   0.100E-07
     TRS4 it   9 1.00000000   0.206E-10       0.001       32.256   0.100E-07
     Final TRS4 iteration    9 1.00000000   0.206E-10
     Chemical potential (mu):      -0.01214
 
 PAO| energy:  -7.7674812261480257      penalty:   5.7723396396024946E-006
 PAO|LS| Need extra step
 PAO|LS| adapt:  T T F
 PAO|LS| adapt: scan_steps:    0.0000000000000000       0.40000000000000002        0.0000000000000000     
 PAO|LS| adapt: energies:   -7.6218056019068881       -7.7674812261480257        0.0000000000000000     
 PAO| ======================= Iteration:         5 =============================

     Lanczos converged:  T threshold:   0.100E-02
     Est. extremal eigenvalues:    0.263E+01   0.183E+00
     Est. condition number :    0.144E+02
     NS sqrt iter    1 1.00000000   0.684E+00       0.001       60.566
     NS sqrt iter    2 1.00000000   0.311E+00       0.001       83.281
     NS sqrt iter    3 1.00000000   0.660E-01       0.002       71.798
     NS sqrt iter    4 1.00000000   0.138E-02       0.001       86.227
     NS sqrt iter    5 1.00000000   0.241E-07       0.001       44.777
     Final NS sqrt iter    5 1.00000000   0.461E-08

     Est. extremal eigenvalues     -0.93424     1.68483  converged:  T
     TRS4 it   1 1.00000000   0.885E+00       0.000       16.128   0.100E-07
     TRS4 it   2 1.00000000   0.604E+00       0.001       32.256   0.100E-07
     TRS4 it   3 1.00000000   0.399E+00       0.001       32.256   0.100E-07
     TRS4 it   4 1.00000000   0.186E+00       0.001       32.256   0.100E-07
     TRS4 it   5 1.00000000   0.495E-01       0.001       32.256   0.100E-07
     TRS4 it   6 1.00000000   0.437E-02       0.001       32.256   0.100E-07
     TRS4 it   7 1.00000000   0.440E-04       0.001       32.256   0.100E-07
     TRS4 it   8 1.00000000   0.572E-08       0.001       32.256   0.100E-07
     Final TRS4 iteration    8 1.00000000   0.572E-08
     Chemical potential (mu):       0.03689
 
 PAO| energy:  -7.7125404078990556      penalty:   9.2357431265603724E-005
 PAO|LS| Need extra step
 PAO|LS| adapt:  T T T
 PAO|LS| adapt: scan_steps:    0.0000000000000000       0.40000000000000002       0.80000000000000004     
 PAO|LS| adapt: energies:   -7.6218056019068881       -7.7674812261480257       -7.7125404078990556     
 PAO|LS| adapt: suggested step_size:   0.49045600137849288     
 PAO|LS| adapt: predicted energy  -7.7726109184829664     
 PAO| ======================= Iteration:         6 =============================

     Lanczos converged:  T threshold:   0.100E-02
     Est. extremal eigenvalues:    0.290E+01   0.160E+00
     Est. condition number :    0.182E+02
     NS sqrt iter    1 1.00000000   0.733E+00       0.001       49.014
     NS sqrt iter    2 1.00000000   0.358E+00       0.002       67.138
     NS sqrt iter    3 1.00000000   0.956E-01       0.001       95.297
     NS sqrt iter    4 1.00000000   0.378E-02       0.001       88.835
     NS sqrt iter    5 1.00000000   0.468E-06       0.001       66.714
     Final NS sqrt iter    5 1.00000000   0.122E-09

     Est. extremal eigenvalues     -0.93452     1.75343  converged:  T
     TRS4 it   1 1.00000000   0.893E+00       0.000       16.128   0.100E-07
     TRS4 it   2 1.00000000   0.635E+00       0.001       32.256   0.100E-07
     TRS4 it   3 1.00000000   0.437E+00       0.001       32.256   0.100E-07
     TRS4 it   4 1.00000000   0.231E+00       0.001       32.256   0.100E-07
     TRS4 it   5 1.00000000   0.799E-01       0.001       32.256   0.100E-07
     TRS4 it   6 1.00000000   0.122E-01       0.001       32.256   0.100E-07
     TRS4 it   7 1.00000000   0.386E-03       0.001       32.256   0.100E-07
     TRS4 it   8 1.00000000   0.553E-06       0.001       32.256   0.100E-07
     TRS4 it   9 1.00000000   0.134E-11       0.001       32.256   0.100E-07
     Final TRS4 iteration    9 1.00000000   0.134E-11
     Chemical potential (mu):       0.00157
 
 PAO| energy:  -7.7718635446106772      penalty:   1.3047043744932617E-005
 PAO|CG| warming up with steepest descent
 PAO|CG| beta:    0.0000000000000000     
 PAO| norm of gradient:  0.41606951013240689     
 PAO| energy improvement: -0.15005794270378914     
 PAO| step      6                   -7.771863545  0.260E-01  0.490E+00     0.114
 PAO|LS| adapt:  T F F
 PAO|LS| adapt: scan_steps:    0.0000000000000000        0.0000000000000000        0.0000000000000000     
 PAO|LS| adapt: energies:   -7.7718635446106772        0.0000000000000000        0.0000000000000000     
 PAO| ======================= Iteration:         7 =============================

     Lanczos converged:  T threshold:   0.100E-02
     Est. extremal eigenvalues:    0.281E+01   0.173E+00
     Est. condition number :    0.163E+02
     NS sqrt iter    1 1.00000000   0.715E+00       0.002       42.421
     NS sqrt iter    2 1.00000000   0.337E+00       0.002       66.107
     NS sqrt iter    3 1.00000000   0.801E-01       0.002       66.465
     NS sqrt iter    4 1.00000000   0.233E-02       0.001       76.742
     NS sqrt iter    5 1.00000000   0.123E-06       0.002       51.766
     Final NS sqrt iter    5 1.00000000   0.103E-08

     Est. extremal eigenvalues     -0.93624     1.74038  converged:  T
     TRS4 it   1 1.00000000   0.892E+00       0.000       16.128   0.100E-07
     TRS4 it   2 1.00000000   0.634E+00       0.001       32.256   0.100E-07
     TRS4 it   3 1.00000000   0.437E+00       0.001       32.256   0.100E-07
     TRS4 it   4 1.00000000   0.232E+00       0.001       32.256   0.100E-07
     TRS4 it   5 1.00000000   0.809E-01       0.001       32.256   0.100E-07
     TRS4 it   6 1.00000000   0.122E-01       0.001       32.256   0.100E-07
     TRS4 it   7 1.00000000   0.369E-03       0.001       32.256   0.100E-07
     TRS4 it   8 1.00000000   0.483E-06       0.001       32.256   0.100E-07
     TRS4 it   9 1.00000000   0.101E-11       0.001       32.256   0.100E-07
     Final TRS4 iteration    9 1.00000000   0.101E-11
     Chemical potential (mu):       0.00302
 
 PAO| energy:  -7.7661300608144659      penalty:   1.9665334592502588E-005
 PAO|LS| adapt:  T F T
 PAO|LS| adapt: scan_steps:    0.0000000000000000        0.0000000000000000       0.49045600137849288     
 PAO|LS| adapt: energies:   -7.7718635446106772        0.0000000000000000       -7.7661300608144659     
 PAO| ======================= Iteration:         8 =============================

     Lanczos converged:  T threshold:   0.100E-02
     Est. extremal eigenvalues:    0.286E+01   0.166E+00
     Est. condition number :    0.172E+02
     NS sqrt iter    1 1.00000000   0.724E+00       0.001       46.070
     NS sqrt iter    2 1.00000000   0.348E+00       0.002       71.443
     NS sqrt iter    3 1.00000000   0.877E-01       0.002       70.437
     NS sqrt iter    4 1.00000000   0.299E-02       0.002       71.169
     NS sqrt iter    5 1.00000000   0.244E-06       0.001       58.024
     Final NS sqrt iter    5 1.00000000   0.514E-09

     Est. extremal eigenvalues     -0.93634     1.74631  converged:  T
     TRS4 it   1 1.00000000   0.892E+00       0.000       16.128   0.100E-07
     TRS4 it   2 1.00000000   0.634E+00       0.001       32.256   0.100E-07
     TRS4 it   3 1.00000000   0.437E+00       0.001       32.256   0.100E-07
     TRS4 it   4 1.00000000   0.230E+00       0.001       32.256   0.100E-07
     TRS4 it   5 1.00000000   0.802E-01       0.001       32.256   0.100E-07
     TRS4 it   6 1.00000000   0.123E-01       0.001       32.256   0.100E-07
     TRS4 it   7 1.00000000   0.388E-03       0.001       27.567   0.100E-07
     TRS4 it   8 1.00000000   0.550E-06       0.001       32.256   0.100E-07
     TRS4 it   9 1.00000000   0.132E-11       0.001       32.256   0.100E-07
     Final TRS4 iteration    9 1.00000000   0.132E-11
     Chemical potential (mu):       0.00179
 
 PAO| energy:  -7.7914229927009169      penalty:   1.4130916239906462E-005
 PAO|LS| adapt:  T T T
 PAO|LS| adapt: scan_steps:    0.0000000000000000       0.24522800068924644       0.49045600137849288     
 PAO|LS| adapt: energies:   -7.7718635446106772       -7.7914229927009169       -7.7661300608144659     
 PAO|LS| adapt: suggested step_size:   0.22955424191591292     
 PAO|LS| adapt: predicted energy  -7.7915146066700602     
 PAO| ======================= Iteration:         9 =============================

     Lanczos converged:  T threshold:   0.100E-02
     Est. extremal eigenvalues:    0.286E+01   0.166E+00
     Est. condition number :    0.172E+02
     NS sqrt iter    1 1.00000000   0.724E+00       0.002       41.852
     NS sqrt iter    2 1.00000000   0.348E+00       0.002       64.457
     NS sqrt iter    3 1.00000000   0.882E-01       0.002       60.186
     NS sqrt iter    4 1.00000000   0.303E-02       0.002       57.213
     NS sqrt iter    5 1.00000000   0.255E-06       0.002       51.018
     Final NS sqrt iter    5 1.00000000   0.507E-09

     Est. extremal eigenvalues     -0.93628     1.74673  converged:  T
     TRS4 it   1 1.00000000   0.892E+00       0.001       16.128   0.100E-07
     TRS4 it   2 1.00000000   0.634E+00       0.001       32.256   0.100E-07
     TRS4 it   3 1.00000000   0.437E+00       0.001       32.256   0.100E-07
     TRS4 it   4 1.00000000   0.230E+00       0.001       32.256   0.100E-07
     TRS4 it   5 1.00000000   0.801E-01       0.001       32.256   0.100E-07
     TRS4 it   6 1.00000000   0.123E-01       0.001       32.256   0.100E-07
     TRS4 it   7 1.00000000   0.388E-03       0.001       32.256   0.100E-07
     TRS4 it   8 1.00000000   0.553E-06       0.001       32.256   0.100E-07
     TRS4 it   9 1.00000000   0.134E-11       0.001       31.611   0.100E-07
     Final TRS4 iteration    9 1.00000000   0.134E-11
     Chemical potential (mu):       0.00175
 
 PAO| energy:  -7.7915376070304800      penalty:   1.3965496193207928E-005
 PAO|CG| trace_G_new    3.6593155641085763E-002
 PAO|CG| trace_G_prev   0.17311383726182103     
 PAO|CG| trace_G_mix   -1.4216254815023785E-003
 PAO|CG| trace_D   0.17311383726182103     
 PAO|CG| trace_D_Gnew   1.4216254815023785E-003
 PAO|CG| beta:   0.21959412213302038     
 PAO| norm of gradient:  0.19129337584214923     
 PAO| energy improvement:  -1.9674062419802851E-002
 PAO| step      9                   -7.791537607  0.120E-01  0.230E+00     0.083
 PAO|LS| adapt:  T F F
 PAO|LS| adapt: scan_steps:    0.0000000000000000        0.0000000000000000        0.0000000000000000     
 PAO|LS| adapt: energies:   -7.7915376070304800        0.0000000000000000        0.0000000000000000     
 PAO| ======================= Iteration:        10 =============================

     Lanczos converged:  T threshold:   0.100E-02
     Est. extremal eigenvalues:    0.282E+01   0.172E+00
     Est. condition number :    0.164E+02
     NS sqrt iter    1 1.00000000   0.717E+00       0.002       38.640
     NS sqrt iter    2 1.00000000   0.340E+00       0.002       60.378
     NS sqrt iter    3 1.00000000   0.825E-01       0.001       96.814
     NS sqrt iter    4 1.00000000   0.250E-02       0.002       67.573
     NS sqrt iter    5 1.00000000   0.140E-06       0.002       50.209
     Final NS sqrt iter    5 1.00000000   0.903E-09

     Est. extremal eigenvalues     -0.93717     1.73747  converged:  T
     TRS4 it   1 1.00000000   0.889E+00       0.001       16.128   0.100E-07
     TRS4 it   2 1.00000000   0.631E+00       0.001       32.256   0.100E-07
     TRS4 it   3 1.00000000   0.434E+00       0.001       32.256   0.100E-07
     TRS4 it   4 1.00000000   0.227E+00       0.001       31.871   0.100E-07
     TRS4 it   5 1.00000000   0.776E-01       0.001       32.256   0.100E-07
     TRS4 it   6 1.00000000   0.114E-01       0.001       30.395   0.100E-07
     TRS4 it   7 1.00000000   0.334E-03       0.001       32.256   0.100E-07
     TRS4 it   8 1.00000000   0.400E-06       0.001       32.256   0.100E-07
     TRS4 it   9 1.00000000   0.693E-12       0.001       32.256   0.100E-07
     Final TRS4 iteration    9 1.00000000   0.693E-12
     Chemical potential (mu):       0.00483
 
 PAO| energy:  -7.7965224357231193      penalty:   1.4494761101454322E-005
 PAO|LS| adapt:  T T F
 PAO|LS| adapt: scan_steps:    0.0000000000000000       0.22955424191591292        0.0000000000000000     
 PAO|LS| adapt: energies:   -7.7915376070304800       -7.7965224357231193        0.0000000000000000     
 PAO| ======================= Iteration:        11 =============================

     Lanczos converged:  T threshold:   0.100E-02
     Est. extremal eigenvalues:    0.278E+01   0.178E+00
     Est. condition number :    0.157E+02
     NS sqrt iter    1 1.00000000   0.709E+00       0.002       40.606
     NS sqrt iter    2 1.00000000   0.332E+00       0.002       69.311
     NS sqrt iter    3 1.00000000   0.771E-01       0.001       84.280
     NS sqrt iter    4 1.00000000   0.205E-02       0.001       94.441
     NS sqrt iter    5 1.00000000   0.761E-07       0.001       66.940
     Final NS sqrt iter    5 1.00000000   0.572E-09

     Est. extremal eigenvalues     -0.93708     1.72920  converged:  T
     TRS4 it   1 1.00000000   0.886E+00       0.001       16.128   0.100E-07
     TRS4 it   2 1.00000000   0.629E+00       0.001       32.256   0.100E-07
     TRS4 it   3 1.00000000   0.431E+00       0.001       32.256   0.100E-07
     TRS4 it   4 1.00000000   0.224E+00       0.001       32.256   0.100E-07
     TRS4 it   5 1.00000000   0.752E-01       0.001       32.256   0.100E-07
     TRS4 it   6 1.00000000   0.107E-01       0.001       32.256   0.100E-07
     TRS4 it   7 1.00000000   0.286E-03       0.001       32.256   0.100E-07
     TRS4 it   8 1.00000000   0.285E-06       0.001       32.256   0.100E-07
     TRS4 it   9 1.00000000   0.347E-12       0.001       32.256   0.100E-07
     Final TRS4 iteration    9 1.00000000   0.347E-12
     Chemical potential (mu):       0.00805
 
 PAO| energy:  -7.7950636970461478      penalty:   1.5686072571053769E-005
 PAO|LS| adapt:  T T T
 PAO|LS| adapt: scan_steps:    0.0000000000000000       0.22955424191591292       0.45910848383182584     
 PAO|LS| adapt: energies:   -7.7915376070304800       -7.7965224357231193       -7.7950636970461478     
 PAO|LS| adapt: suggested step_size:   0.29236330978500247     
 PAO|LS| adapt: predicted energy  -7.7967636319054012     
 PAO| ======================= Iteration:        12 =============================

     Lanczos converged:  T threshold:   0.100E-02
     Est. extremal eigenvalues:    0.281E+01   0.174E+00
     Est. condition number :    0.162E+02
     NS sqrt iter    1 1.00000000   0.714E+00       0.001       60.708
     NS sqrt iter    2 1.00000000   0.338E+00       0.001       92.240
     NS sqrt iter    3 1.00000000   0.810E-01       0.001       78.685
     NS sqrt iter    4 1.00000000   0.237E-02       0.001       85.917
     NS sqrt iter    5 1.00000000   0.119E-06       0.001       75.323
     Final NS sqrt iter    5 1.00000000   0.976E-09

     Est. extremal eigenvalues     -0.93724     1.73511  converged:  T
     TRS4 it   1 1.00000000   0.888E+00       0.001       16.128   0.100E-07
     TRS4 it   2 1.00000000   0.631E+00       0.001       32.256   0.100E-07
     TRS4 it   3 1.00000000   0.433E+00       0.001       32.256   0.100E-07
     TRS4 it   4 1.00000000   0.226E+00       0.001       32.256   0.100E-07
     TRS4 it   5 1.00000000   0.770E-01       0.001       32.256   0.100E-07
     TRS4 it   6 1.00000000   0.112E-01       0.001       32.256   0.100E-07
     TRS4 it   7 1.00000000   0.320E-03       0.001       32.256   0.100E-07
     TRS4 it   8 1.00000000   0.365E-06       0.001       32.256   0.100E-07
     TRS4 it   9 1.00000000   0.576E-12       0.001       32.256   0.100E-07
     Final TRS4 iteration    9 1.00000000   0.576E-12
     Chemical potential (mu):       0.00571
 
 PAO| energy:  -7.7967477897650701      penalty:   1.4747501273596457E-005
 PAO|CG| trace_G_new    1.1708741557525132E-002
 PAO|CG| trace_G_prev    3.6593155641085763E-002
 PAO|CG| trace_G_mix   -4.6209029130801988E-004
 PAO|CG| trace_D    4.4316616930554505E-002
 PAO|CG| trace_D_Gnew   2.1260747766317797E-004
 PAO|CG| beta:   0.33259858669220876     
 PAO| norm of gradient:  0.10820693858309241     
 PAO| energy improvement:  -5.2101827345900631E-003
 PAO| step     12                   -7.796747790  0.676E-02  0.292E+00     0.076
 PAO|LS| adapt:  T F F
 PAO|LS| adapt: scan_steps:    0.0000000000000000        0.0000000000000000        0.0000000000000000     
 PAO|LS| adapt: energies:   -7.7967477897650701        0.0000000000000000        0.0000000000000000     
 PAO| ======================= Iteration:        13 =============================

     Lanczos converged:  T threshold:   0.100E-02
     Est. extremal eigenvalues:    0.278E+01   0.178E+00
     Est. condition number :    0.156E+02
     NS sqrt iter    1 1.00000000   0.707E+00       0.001       49.196
     NS sqrt iter    2 1.00000000   0.331E+00       0.001       87.181
     NS sqrt iter    3 1.00000000   0.767E-01       0.001       96.432
     NS sqrt iter    4 1.00000000   0.202E-02       0.001       99.451
     NS sqrt iter    5 1.00000000   0.743E-07       0.001       63.441
     Final NS sqrt iter    5 1.00000000   0.569E-09

     Est. extremal eigenvalues     -0.93772     1.72636  converged:  T
     TRS4 it   1 1.00000000   0.887E+00       0.000       16.128   0.100E-07
     TRS4 it   2 1.00000000   0.627E+00       0.001       32.256   0.100E-07
     TRS4 it   3 1.00000000   0.429E+00       0.001       32.256   0.100E-07
     TRS4 it   4 1.00000000   0.221E+00       0.001       32.256   0.100E-07
     TRS4 it   5 1.00000000   0.732E-01       0.001       32.256   0.100E-07
     TRS4 it   6 1.00000000   0.101E-01       0.001       32.256   0.100E-07
     TRS4 it   7 1.00000000   0.256E-03       0.001       32.256   0.100E-07
     TRS4 it   8 1.00000000   0.228E-06       0.001       32.256   0.100E-07
     TRS4 it   9 1.00000000   0.220E-12       0.001       32.256   0.100E-07
     Final TRS4 iteration    9 1.00000000   0.220E-12
     Chemical potential (mu):       0.01017
 
 PAO| energy:  -7.7987948783029903      penalty:   1.5040578141311229E-005
 PAO|LS| adapt:  T T F
 PAO|LS| adapt: scan_steps:    0.0000000000000000       0.29236330978500247        0.0000000000000000     
 PAO|LS| adapt: energies:   -7.7967477897650701       -7.7987948783029903        0.0000000000000000     
 PAO| ======================= Iteration:        14 =============================

     Lanczos converged:  T threshold:   0.100E-02
     Est. extremal eigenvalues:    0.274E+01   0.182E+00
     Est. condition number :    0.151E+02
     NS sqrt iter    1 1.00000000   0.700E+00       0.001       58.056
     NS sqrt iter    2 1.00000000   0.324E+00       0.001       93.644
     NS sqrt iter    3 1.00000000   0.726E-01       0.001       90.009
     NS sqrt iter    4 1.00000000   0.172E-02       0.001       95.780
     NS sqrt iter    5 1.00000000   0.462E-07       0.001       67.189
     Final NS sqrt iter    5 1.00000000   0.760E-09

     Est. extremal eigenvalues     -0.93771     1.71794  converged:  T
     TRS4 it   1 1.00000000   0.885E+00       0.000       16.128   0.100E-07
     TRS4 it   2 1.00000000   0.623E+00       0.001       32.256   0.100E-07
     TRS4 it   3 1.00000000   0.424E+00       0.001       32.256   0.100E-07
     TRS4 it   4 1.00000000   0.216E+00       0.001       32.256   0.100E-07
     TRS4 it   5 1.00000000   0.696E-01       0.001       32.256   0.100E-07
     TRS4 it   6 1.00000000   0.909E-02       0.001       32.256   0.100E-07
     TRS4 it   7 1.00000000   0.205E-03       0.001       32.256   0.100E-07
     TRS4 it   8 1.00000000   0.142E-06       0.001       32.256   0.100E-07
     TRS4 it   9 1.00000000   0.842E-13       0.001       32.256   0.100E-07
     Final TRS4 iteration    9 1.00000000   0.842E-13
     Chemical potential (mu):       0.01454
 
 PAO| energy:  -7.7981800670973023      penalty:   1.5802243126325271E-005
 PAO|LS| adapt:  T T T
 PAO|LS| adapt: scan_steps:    0.0000000000000000       0.29236330978500247       0.58472661957000494     
 PAO|LS| adapt: energies:   -7.7967477897650701       -7.7987948783029903       -7.7981800670973023     
 PAO|LS| adapt: suggested step_size:   0.37101866530447908     
 PAO|LS| adapt: predicted energy  -7.7988912107419441     
 PAO| ======================= Iteration:        15 =============================

     Lanczos converged:  T threshold:   0.100E-02
     Est. extremal eigenvalues:    0.277E+01   0.179E+00
     Est. condition number :    0.155E+02
     NS sqrt iter    1 1.00000000   0.705E+00       0.002       41.713
     NS sqrt iter    2 1.00000000   0.329E+00       0.002       64.521
     NS sqrt iter    3 1.00000000   0.756E-01       0.002       73.158
     NS sqrt iter    4 1.00000000   0.193E-02       0.001       78.024
     NS sqrt iter    5 1.00000000   0.654E-07       0.002       48.779
     Final NS sqrt iter    5 1.00000000   0.525E-09

     Est. extremal eigenvalues     -0.93777     1.72406  converged:  T
     TRS4 it   1 1.00000000   0.886E+00       0.000       16.128   0.100E-07
     TRS4 it   2 1.00000000   0.626E+00       0.001       32.256   0.100E-07
     TRS4 it   3 1.00000000   0.428E+00       0.001       32.256   0.100E-07
     TRS4 it   4 1.00000000   0.220E+00       0.001       32.256   0.100E-07
     TRS4 it   5 1.00000000   0.722E-01       0.001       32.256   0.100E-07
     TRS4 it   6 1.00000000   0.982E-02       0.001       32.256   0.100E-07
     TRS4 it   7 1.00000000   0.241E-03       0.001       32.256   0.100E-07
     TRS4 it   8 1.00000000   0.201E-06       0.001       32.256   0.100E-07
     TRS4 it   9 1.00000000   0.170E-12       0.001       32.256   0.100E-07
     Final TRS4 iteration    9 1.00000000   0.170E-12
     Chemical potential (mu):       0.01135
 
 PAO| energy:  -7.7988881296316208      penalty:   1.5196385886447523E-005
 PAO|CG| trace_G_new    2.6005974421820692E-003
 PAO|CG| trace_G_prev    1.1708741557525132E-002
 PAO|CG| trace_G_mix    6.4118205824731429E-005
 PAO|CG| trace_D    1.6469700479667490E-002
 PAO|CG| trace_D_Gnew   3.3159000616352739E-005
 PAO|CG| beta:   0.21663124289622390     
 PAO| norm of gradient:   5.0996053202008382E-002
 PAO| energy improvement:  -2.1403398665507112E-003
 PAO| step     15                   -7.798888130  0.319E-02  0.371E+00     0.063
 PAO|LS| adapt:  T F F
 PAO|LS| adapt: scan_steps:    0.0000000000000000        0.0000000000000000        0.0000000000000000     
 PAO|LS| adapt: energies:   -7.7988881296316208        0.0000000000000000        0.0000000000000000     
 PAO| ======================= Iteration:        16 =============================

     Lanczos converged:  T threshold:   0.100E-02
     Est. extremal eigenvalues:    0.276E+01   0.179E+00
     Est. condition number :    0.154E+02
     NS sqrt iter    1 1.00000000   0.703E+00       0.002       40.022
     NS sqrt iter    2 1.00000000   0.328E+00       0.002       64.857
     NS sqrt iter    3 1.00000000   0.748E-01       0.002       63.380
     NS sqrt iter    4 1.00000000   0.188E-02       0.002       69.478
     NS sqrt iter    5 1.00000000   0.599E-07       0.001       60.974
     Final NS sqrt iter    5 1.00000000   0.490E-09

     Est. extremal eigenvalues     -0.93780     1.72265  converged:  T
     TRS4 it   1 1.00000000   0.886E+00       0.000       16.128   0.100E-07
     TRS4 it   2 1.00000000   0.625E+00       0.001       32.256   0.100E-07
     TRS4 it   3 1.00000000   0.426E+00       0.001       32.256   0.100E-07
     TRS4 it   4 1.00000000   0.218E+00       0.001       32.256   0.100E-07
     TRS4 it   5 1.00000000   0.710E-01       0.001       32.256   0.100E-07
     TRS4 it   6 1.00000000   0.950E-02       0.001       32.256   0.100E-07
     TRS4 it   7 1.00000000   0.227E-03       0.001       32.256   0.100E-07
     TRS4 it   8 1.00000000   0.179E-06       0.001       32.256   0.100E-07
     TRS4 it   9 1.00000000   0.136E-12       0.001       32.256   0.100E-07
     Final TRS4 iteration    9 1.00000000   0.136E-12
     Chemical potential (mu):       0.01217
 
 PAO| energy:  -7.7990118673092867      penalty:   1.4974249687360895E-005
 PAO|LS| adapt:  T T F
 PAO|LS| adapt: scan_steps:    0.0000000000000000       0.37101866530447908        0.0000000000000000     
 PAO|LS| adapt: energies:   -7.7988881296316208       -7.7990118673092867        0.0000000000000000     
 PAO| ======================= Iteration:        17 =============================

     Lanczos converged:  T threshold:   0.100E-02
     Est. extremal eigenvalues:    0.275E+01   0.180E+00
     Est. condition number :    0.153E+02
     NS sqrt iter    1 1.00000000   0.701E+00       0.002       34.994
     NS sqrt iter    2 1.00000000   0.326E+00       0.003       40.398
     NS sqrt iter    3 1.00000000   0.742E-01       0.002       61.432
     NS sqrt iter    4 1.00000000   0.182E-02       0.002       66.488
     NS sqrt iter    5 1.00000000   0.551E-07       0.001       56.880
     Final NS sqrt iter    5 1.00000000   0.480E-09

     Est. extremal eigenvalues     -0.93770     1.72129  converged:  T
     TRS4 it   1 1.00000000   0.886E+00       0.000       16.128   0.100E-07
     TRS4 it   2 1.00000000   0.624E+00       0.001       32.256   0.100E-07
     TRS4 it   3 1.00000000   0.425E+00       0.001       31.139   0.100E-07
     TRS4 it   4 1.00000000   0.216E+00       0.001       32.256   0.100E-07
     TRS4 it   5 1.00000000   0.698E-01       0.001       32.256   0.100E-07
     TRS4 it   6 1.00000000   0.919E-02       0.001       32.256   0.100E-07
     TRS4 it   7 1.00000000   0.214E-03       0.001       32.256   0.100E-07
     TRS4 it   8 1.00000000   0.160E-06       0.001       32.256   0.100E-07
     TRS4 it   9 1.00000000   0.110E-12       0.001       32.256   0.100E-07
     Final TRS4 iteration    9 1.00000000   0.110E-12
     Chemical potential (mu):       0.01296
 
 PAO| energy:  -7.7974533972960245      penalty:   1.4877323339977133E-005
 PAO|LS| adapt:  T T T
 PAO|LS| adapt: scan_steps:    0.0000000000000000       0.37101866530447908       0.74203733060895816     
 PAO|LS| adapt: energies:   -7.7988881296316208       -7.7990118673092867       -7.7974533972960245     
 PAO|LS| adapt: suggested step_size:   0.21280024819320945     
 PAO|LS| adapt: predicted energy  -7.7991648253005845     
 PAO| ======================= Iteration:        18 =============================

     Lanczos converged:  T threshold:   0.100E-02
     Est. extremal eigenvalues:    0.276E+01   0.179E+00
     Est. condition number :    0.154E+02
     NS sqrt iter    1 1.00000000   0.704E+00       0.001       60.522
     NS sqrt iter    2 1.00000000   0.328E+00       0.001       84.265
     NS sqrt iter    3 1.00000000   0.751E-01       0.001       95.165
     NS sqrt iter    4 1.00000000   0.190E-02       0.001       92.342
     NS sqrt iter    5 1.00000000   0.622E-07       0.001       67.360
     Final NS sqrt iter    5 1.00000000   0.505E-09

     Est. extremal eigenvalues     -0.93780     1.72324  converged:  T
     TRS4 it   1 1.00000000   0.886E+00       0.000       16.128   0.100E-07
     TRS4 it   2 1.00000000   0.625E+00       0.001       32.256   0.100E-07
     TRS4 it   3 1.00000000   0.427E+00       0.001       32.256   0.100E-07
     TRS4 it   4 1.00000000   0.219E+00       0.001       32.256   0.100E-07
     TRS4 it   5 1.00000000   0.715E-01       0.001       32.256   0.100E-07
     TRS4 it   6 1.00000000   0.964E-02       0.001       32.256   0.100E-07
     TRS4 it   7 1.00000000   0.233E-03       0.001       32.256   0.100E-07
     TRS4 it   8 1.00000000   0.188E-06       0.001       32.256   0.100E-07
     TRS4 it   9 1.00000000   0.150E-12       0.001       32.256   0.100E-07
     Final TRS4 iteration    9 1.00000000   0.150E-12
     Chemical potential (mu):       0.01183
 
 PAO| energy:  -7.7991643926087404      penalty:   1.5053944416581731E-005
 PAO|CG| trace_G_new    7.1718175368980697E-004
 PAO|CG| trace_G_prev    2.6005974421820692E-003
 PAO|CG| trace_G_mix    1.1178037241262910E-006
 PAO|CG| trace_D    3.3591390361479997E-003
 PAO|CG| trace_D_Gnew  -1.6484545472901756E-006
 PAO|CG| beta:   0.27534594103301768     
 PAO| norm of gradient:   2.6780249320904521E-002
 PAO| energy improvement:  -2.7626297711957903E-004
 PAO| step     18                   -7.799164393  0.167E-02  0.213E+00     0.068
 PAO|LS| adapt:  T F F
 PAO|LS| adapt: scan_steps:    0.0000000000000000        0.0000000000000000        0.0000000000000000     
 PAO|LS| adapt: energies:   -7.7991643926087404        0.0000000000000000        0.0000000000000000     
 PAO| ======================= Iteration:        19 =============================

     Lanczos converged:  T threshold:   0.100E-02
     Est. extremal eigenvalues:    0.276E+01   0.179E+00
     Est. condition number :    0.154E+02
     NS sqrt iter    1 1.00000000   0.704E+00       0.001       54.326
     NS sqrt iter    2 1.00000000   0.328E+00       0.001       96.469
     NS sqrt iter    3 1.00000000   0.754E-01       0.001       98.196
     NS sqrt iter    4 1.00000000   0.191E-02       0.001       94.948
     NS sqrt iter    5 1.00000000   0.631E-07       0.001       59.225
     Final NS sqrt iter    5 1.00000000   0.517E-09

     Est. extremal eigenvalues     -0.93780     1.72342  converged:  T
     TRS4 it   1 1.00000000   0.886E+00       0.001       16.128   0.100E-07
     TRS4 it   2 1.00000000   0.625E+00       0.001       32.256   0.100E-07
     TRS4 it   3 1.00000000   0.427E+00       0.001       32.256   0.100E-07
     TRS4 it   4 1.00000000   0.219E+00       0.001       31.250   0.100E-07
     TRS4 it   5 1.00000000   0.714E-01       0.001       32.256   0.100E-07
     TRS4 it   6 1.00000000   0.963E-02       0.001       32.256   0.100E-07
     TRS4 it   7 1.00000000   0.234E-03       0.001       32.256   0.100E-07
     TRS4 it   8 1.00000000   0.191E-06       0.001       32.256   0.100E-07
     TRS4 it   9 1.00000000   0.156E-12       0.001       32.256   0.100E-07
     Final TRS4 iteration    9 1.00000000   0.156E-12
     Chemical potential (mu):       0.01152
 
 PAO| energy:  -7.7992807860042070      penalty:   1.4765059904842148E-005
 PAO|LS| adapt:  T T F
 PAO|LS| adapt: scan_steps:    0.0000000000000000       0.21280024819320945        0.0000000000000000     
 PAO|LS| adapt: energies:   -7.7991643926087404       -7.7992807860042070        0.0000000000000000     
 PAO| ======================= Iteration:        20 =============================

     Lanczos converged:  T threshold:   0.100E-02
     Est. extremal eigenvalues:    0.276E+01   0.179E+00
     Est. condition number :    0.155E+02
     NS sqrt iter    1 1.00000000   0.704E+00       0.001       57.455
     NS sqrt iter    2 1.00000000   0.329E+00       0.001       94.599
     NS sqrt iter    3 1.00000000   0.756E-01       0.001       98.303
     NS sqrt iter    4 1.00000000   0.192E-02       0.001       94.824
     NS sqrt iter    5 1.00000000   0.641E-07       0.001       68.930
     Final NS sqrt iter    5 1.00000000   0.533E-09

     Est. extremal eigenvalues     -0.93780     1.72360  converged:  T
     TRS4 it   1 1.00000000   0.886E+00       0.000       16.128   0.100E-07
     TRS4 it   2 1.00000000   0.625E+00       0.001       32.256   0.100E-07
     TRS4 it   3 1.00000000   0.426E+00       0.001       32.256   0.100E-07
     TRS4 it   4 1.00000000   0.218E+00       0.001       32.256   0.100E-07
     TRS4 it   5 1.00000000   0.713E-01       0.001       32.256   0.100E-07
     TRS4 it   6 1.00000000   0.962E-02       0.001       32.256   0.100E-07
     TRS4 it   7 1.00000000   0.235E-03       0.001       32.256   0.100E-07
     TRS4 it   8 1.00000000   0.194E-06       0.001       32.256   0.100E-07
     TRS4 it   9 1.00000000   0.162E-12       0.001       32.256   0.100E-07
     Final TRS4 iteration    9 1.00000000   0.162E-12
     Chemical potential (mu):       0.01123
 
 PAO| energy:  -7.7993241613041437      penalty:   1.4488527782476156E-005
 PAO|LS| adapt:  T T F
 PAO|LS| adapt: scan_steps:    0.0000000000000000       0.42560049638641889        0.0000000000000000     
 PAO|LS| adapt: energies:   -7.7991643926087404       -7.7993241613041437        0.0000000000000000     
 PAO| ======================= Iteration:        21 =============================

     Lanczos converged:  T threshold:   0.100E-02
     Est. extremal eigenvalues:    0.276E+01   0.178E+00
     Est. condition number :    0.155E+02
     NS sqrt iter    1 1.00000000   0.704E+00       0.001       43.283
     NS sqrt iter    2 1.00000000   0.329E+00       0.001       81.940
     NS sqrt iter    3 1.00000000   0.760E-01       0.001       77.228
     NS sqrt iter    4 1.00000000   0.195E-02       0.001       77.403
     NS sqrt iter    5 1.00000000   0.662E-07       0.001       71.179
     Final NS sqrt iter    5 1.00000000   0.558E-09

     Est. extremal eigenvalues     -0.93779     1.72398  converged:  T
     TRS4 it   1 1.00000000   0.886E+00       0.000       16.128   0.100E-07
     TRS4 it   2 1.00000000   0.625E+00       0.001       32.256   0.100E-07
     TRS4 it   3 1.00000000   0.426E+00       0.001       32.256   0.100E-07
     TRS4 it   4 1.00000000   0.218E+00       0.001       32.256   0.100E-07
     TRS4 it   5 1.00000000   0.711E-01       0.001       32.256   0.100E-07
     TRS4 it   6 1.00000000   0.961E-02       0.001       32.256   0.100E-07
     TRS4 it   7 1.00000000   0.237E-03       0.001       32.256   0.100E-07
     TRS4 it   8 1.00000000   0.201E-06       0.001       32.256   0.100E-07
     TRS4 it   9 1.00000000   0.175E-12       0.001       32.256   0.100E-07
     Final TRS4 iteration    9 1.00000000   0.175E-12
     Chemical potential (mu):       0.01062
 
 PAO| energy:  -7.7991895787392345      penalty:   1.3971934205289789E-005
 PAO|LS| Need extra step
 PAO|LS| adapt:  T T T
 PAO|LS| adapt: scan_steps:    0.0000000000000000       0.42560049638641889       0.85120099277283778     
 PAO|LS| adapt: energies:   -7.7991643926087404       -7.7993241613041437       -7.7991895787392345     
 PAO|LS| adapt: suggested step_size:   0.44380872425156304     
 PAO|LS| adapt: predicted energy  -7.7993244306851750     
 PAO| ======================= Iteration:        22 =============================

     Lanczos converged:  T threshold:   0.100E-02
     Est. extremal eigenvalues:    0.276E+01   0.179E+00
     Est. condition number :    0.155E+02
     NS sqrt iter    1 1.00000000   0.704E+00       0.001       60.109
     NS sqrt iter    2 1.00000000   0.329E+00       0.001       81.063
     NS sqrt iter    3 1.00000000   0.756E-01       0.001       76.286
     NS sqrt iter    4 1.00000000   0.192E-02       0.002       65.756
     NS sqrt iter    5 1.00000000   0.642E-07       0.002       45.466
     Final NS sqrt iter    5 1.00000000   0.534E-09

     Est. extremal eigenvalues     -0.93780     1.72362  converged:  T
     TRS4 it   1 1.00000000   0.886E+00       0.000       16.128   0.100E-07
     TRS4 it   2 1.00000000   0.625E+00       0.001       32.256   0.100E-07
     TRS4 it   3 1.00000000   0.426E+00       0.001       32.256   0.100E-07
     TRS4 it   4 1.00000000   0.218E+00       0.001       32.256   0.100E-07
     TRS4 it   5 1.00000000   0.713E-01       0.001       32.256   0.100E-07
     TRS4 it   6 1.00000000   0.962E-02       0.001       32.256   0.100E-07
     TRS4 it   7 1.00000000   0.235E-03       0.001       32.256   0.100E-07
     TRS4 it   8 1.00000000   0.195E-06       0.001       32.256   0.100E-07
     TRS4 it   9 1.00000000   0.162E-12       0.001       32.256   0.100E-07
     Final TRS4 iteration    9 1.00000000   0.162E-12
     Chemical potential (mu):       0.01120
 
 PAO| energy:  -7.7993244631309393      penalty:   1.4465434286028025E-005
 PAO|CG| trace_G_new    2.1752629466301651E-004
 PAO|CG| trace_G_prev    7.1718175368980697E-004
 PAO|CG| trace_G_mix    2.8307535759167301E-006
 PAO|CG| trace_D    9.7276397105679571E-004
 PAO|CG| trace_D_Gnew  -1.7756387315830064E-006
 PAO|CG| beta:   0.29936001575963012     
 PAO| norm of gradient:   1.4748772649377184E-002
 PAO| energy improvement:  -1.6007052219890738E-004
 PAO| step     22                   -7.799324463  0.922E-03  0.444E+00     0.081
 PAO|LS| adapt:  T F F
 PAO|LS| adapt: scan_steps:    0.0000000000000000        0.0000000000000000        0.0000000000000000     
 PAO|LS| adapt: energies:   -7.7993244631309393        0.0000000000000000        0.0000000000000000     
 PAO| ======================= Iteration:        23 =============================

     Lanczos converged:  T threshold:   0.100E-02
     Est. extremal eigenvalues:    0.276E+01   0.179E+00
     Est. condition number :    0.155E+02
     NS sqrt iter    1 1.00000000   0.704E+00       0.001       61.278
     NS sqrt iter    2 1.00000000   0.329E+00       0.001       85.120
     NS sqrt iter    3 1.00000000   0.756E-01       0.002       63.939
     NS sqrt iter    4 1.00000000   0.192E-02       0.002       64.167
     NS sqrt iter    5 1.00000000   0.642E-07       0.002       49.334
     Final NS sqrt iter    5 1.00000000   0.540E-09

     Est. extremal eigenvalues     -0.93780     1.72342  converged:  T
     TRS4 it   1 1.00000000   0.886E+00       0.000       16.128   0.100E-07
     TRS4 it   2 1.00000000   0.625E+00       0.001       32.256   0.100E-07
     TRS4 it   3 1.00000000   0.427E+00       0.001       29.342   0.100E-07
     TRS4 it   4 1.00000000   0.218E+00       0.001       32.256   0.100E-07
     TRS4 it   5 1.00000000   0.714E-01       0.001       32.256   0.100E-07
     TRS4 it   6 1.00000000   0.967E-02       0.001       32.256   0.100E-07
     TRS4 it   7 1.00000000   0.238E-03       0.001       32.256   0.100E-07
     TRS4 it   8 1.00000000   0.200E-06       0.001       32.256   0.100E-07
     TRS4 it   9 1.00000000   0.172E-12       0.001       32.256   0.100E-07
     Final TRS4 iteration    9 1.00000000   0.172E-12
     Chemical potential (mu):       0.01085
 
 PAO| energy:  -7.7993730144624651      penalty:   1.3787704558391000E-005
 PAO|LS| adapt:  T T F
 PAO|LS| adapt: scan_steps:    0.0000000000000000       0.44380872425156304        0.0000000000000000     
 PAO|LS| adapt: energies:   -7.7993244631309393       -7.7993730144624651        0.0000000000000000     
 PAO| ======================= Iteration:        24 =============================

     Lanczos converged:  T threshold:   0.100E-02
     Est. extremal eigenvalues:    0.276E+01   0.179E+00
     Est. condition number :    0.155E+02
     NS sqrt iter    1 1.00000000   0.704E+00       0.001       50.490
     NS sqrt iter    2 1.00000000   0.329E+00       0.001       88.910
     NS sqrt iter    3 1.00000000   0.757E-01       0.001       91.631
     NS sqrt iter    4 1.00000000   0.193E-02       0.001       92.716
     NS sqrt iter    5 1.00000000   0.642E-07       0.001       62.352
     Final NS sqrt iter    5 1.00000000   0.544E-09

     Est. extremal eigenvalues     -0.93779     1.72321  converged:  T
     TRS4 it   1 1.00000000   0.886E+00       0.000       16.128   0.100E-07
     TRS4 it   2 1.00000000   0.625E+00       0.001       32.256   0.100E-07
     TRS4 it   3 1.00000000   0.427E+00       0.001       32.256   0.100E-07
     TRS4 it   4 1.00000000   0.219E+00       0.001       32.256   0.100E-07
     TRS4 it   5 1.00000000   0.716E-01       0.001       32.256   0.100E-07
     TRS4 it   6 1.00000000   0.972E-02       0.001       32.256   0.100E-07
     TRS4 it   7 1.00000000   0.241E-03       0.001       32.256   0.100E-07
     TRS4 it   8 1.00000000   0.206E-06       0.001       32.256   0.100E-07
     TRS4 it   9 1.00000000   0.182E-12       0.001       32.256   0.100E-07
     Final TRS4 iteration    9 1.00000000   0.182E-12
     Chemical potential (mu):       0.01049
 
 PAO| energy:  -7.7993245218748184      penalty:   1.3137910704752541E-005
 PAO|LS| adapt:  T T T
 PAO|LS| adapt: scan_steps:    0.0000000000000000       0.44380872425156304       0.88761744850312607     
 PAO|LS| adapt: energies:   -7.7993244631309393       -7.7993730144624651       -7.7993245218748184     
 PAO|LS| adapt: suggested step_size:   0.44394305026735459     
 PAO|LS| adapt: predicted energy  -7.7993730144669104     
 PAO| ======================= Iteration:        25 =============================

     Lanczos converged:  T threshold:   0.100E-02
     Est. extremal eigenvalues:    0.276E+01   0.179E+00
     Est. condition number :    0.155E+02
     NS sqrt iter    1 1.00000000   0.704E+00       0.001       53.522
     NS sqrt iter    2 1.00000000   0.329E+00       0.001       90.187
     NS sqrt iter    3 1.00000000   0.756E-01       0.002       73.256
     NS sqrt iter    4 1.00000000   0.192E-02       0.001       95.349
     NS sqrt iter    5 1.00000000   0.642E-07       0.001       66.725
     Final NS sqrt iter    5 1.00000000   0.540E-09

     Est. extremal eigenvalues     -0.93780     1.72342  converged:  T
     TRS4 it   1 1.00000000   0.886E+00       0.000       16.128   0.100E-07
     TRS4 it   2 1.00000000   0.625E+00       0.001       32.256   0.100E-07
     TRS4 it   3 1.00000000   0.427E+00       0.001       32.256   0.100E-07
     TRS4 it   4 1.00000000   0.218E+00       0.001       32.256   0.100E-07
     TRS4 it   5 1.00000000   0.714E-01       0.001       32.256   0.100E-07
     TRS4 it   6 1.00000000   0.967E-02       0.001       32.256   0.100E-07
     TRS4 it   7 1.00000000   0.238E-03       0.001       32.256   0.100E-07
     TRS4 it   8 1.00000000   0.200E-06       0.001       32.256   0.100E-07
     TRS4 it   9 1.00000000   0.172E-12       0.001       32.256   0.100E-07
     Final TRS4 iteration    9 1.00000000   0.172E-12
     Chemical potential (mu):       0.01085
 
 PAO| energy:  -7.7993730145119038      penalty:   1.3787503691810573E-005
 PAO|CG| trace_G_new    7.7062512531113838E-005
 PAO|CG| trace_G_prev    2.1752629466301651E-004
 PAO|CG| trace_G_mix    6.4558555196141120E-007
 PAO|CG| trace_D    3.0576502879332254E-004
 PAO|CG| trace_D_Gnew  -3.3505966038109978E-007
 PAO|CG| beta:   0.35129972262679615     
 PAO| norm of gradient:   8.7785256467765617E-003
 PAO| energy improvement:  -4.8551380964489965E-005
 PAO| step     25                   -7.799373015  0.549E-03  0.444E+00     0.065
 PAO|LS| adapt:  T F F
 PAO|LS| adapt: scan_steps:    0.0000000000000000        0.0000000000000000        0.0000000000000000     
 PAO|LS| adapt: energies:   -7.7993730145119038        0.0000000000000000        0.0000000000000000     
 PAO| ======================= Iteration:        26 =============================

     Lanczos converged:  T threshold:   0.100E-02
     Est. extremal eigenvalues:    0.276E+01   0.179E+00
     Est. condition number :    0.154E+02
     NS sqrt iter    1 1.00000000   0.704E+00       0.001       55.012
     NS sqrt iter    2 1.00000000   0.328E+00       0.001       86.891
     NS sqrt iter    3 1.00000000   0.755E-01       0.001       92.809
     NS sqrt iter    4 1.00000000   0.192E-02       0.001       92.377
     NS sqrt iter    5 1.00000000   0.632E-07       0.001       61.842
     Final NS sqrt iter    5 1.00000000   0.534E-09

     Est. extremal eigenvalues     -0.93780     1.72284  converged:  T
     TRS4 it   1 1.00000000   0.886E+00       0.001       16.128   0.100E-07
     TRS4 it   2 1.00000000   0.625E+00       0.001       32.256   0.100E-07
     TRS4 it   3 1.00000000   0.426E+00       0.001       32.256   0.100E-07
     TRS4 it   4 1.00000000   0.218E+00       0.001       32.256   0.100E-07
     TRS4 it   5 1.00000000   0.713E-01       0.001       32.256   0.100E-07
     TRS4 it   6 1.00000000   0.965E-02       0.001       32.256   0.100E-07
     TRS4 it   7 1.00000000   0.237E-03       0.001       32.256   0.100E-07
     TRS4 it   8 1.00000000   0.198E-06       0.001       32.256   0.100E-07
     TRS4 it   9 1.00000000   0.168E-12       0.001       32.256   0.100E-07
     Final TRS4 iteration    9 1.00000000   0.168E-12
     Chemical potential (mu):       0.01092
 
 PAO| energy:  -7.7993761868082805      penalty:   1.3067043828487618E-005
 PAO|LS| adapt:  T T F
 PAO|LS| adapt: scan_steps:    0.0000000000000000       0.44394305026735459        0.0000000000000000     
 PAO|LS| adapt: energies:   -7.7993730145119038       -7.7993761868082805        0.0000000000000000     
 PAO| ======================= Iteration:        27 =============================

     Lanczos converged:  T threshold:   0.100E-02
     Est. extremal eigenvalues:    0.276E+01   0.179E+00
     Est. condition number :    0.154E+02
     NS sqrt iter    1 1.00000000   0.703E+00       0.001       58.211
     NS sqrt iter    2 1.00000000   0.328E+00       0.001       82.579
     NS sqrt iter    3 1.00000000   0.754E-01       0.002       62.763
     NS sqrt iter    4 1.00000000   0.191E-02       0.002       65.134
     NS sqrt iter    5 1.00000000   0.622E-07       0.001       49.910
     Final NS sqrt iter    5 1.00000000   0.528E-09

     Est. extremal eigenvalues     -0.93780     1.72227  converged:  T
     TRS4 it   1 1.00000000   0.886E+00       0.000       16.128   0.100E-07
     TRS4 it   2 1.00000000   0.625E+00       0.001       32.256   0.100E-07
     TRS4 it   3 1.00000000   0.426E+00       0.001       32.256   0.100E-07
     TRS4 it   4 1.00000000   0.218E+00       0.001       32.256   0.100E-07
     TRS4 it   5 1.00000000   0.713E-01       0.001       32.256   0.100E-07
     TRS4 it   6 1.00000000   0.963E-02       0.001       32.256   0.100E-07
     TRS4 it   7 1.00000000   0.235E-03       0.001       32.256   0.100E-07
     TRS4 it   8 1.00000000   0.196E-06       0.001       32.256   0.100E-07
     TRS4 it   9 1.00000000   0.164E-12       0.001       32.256   0.100E-07
     Final TRS4 iteration    9 1.00000000   0.164E-12
     Chemical potential (mu):       0.01101
 
 PAO| energy:  -7.7993170761937236      penalty:   1.2370066107025150E-005
 PAO|LS| adapt:  T T T
 PAO|LS| adapt: scan_steps:    0.0000000000000000       0.44394305026735459       0.88788610053470918     
 PAO|LS| adapt: energies:   -7.7993730145119038       -7.7993761868082805       -7.7993170761937236     
 PAO|LS| adapt: suggested step_size:   0.24458316785738968     
 PAO|LS| adapt: predicted energy  -7.7993824668122853     
 PAO| ======================= Iteration:        28 =============================

     Lanczos converged:  T threshold:   0.100E-02
     Est. extremal eigenvalues:    0.276E+01   0.179E+00
     Est. condition number :    0.154E+02
     NS sqrt iter    1 1.00000000   0.704E+00       0.002       40.467
     NS sqrt iter    2 1.00000000   0.329E+00       0.002       62.819
     NS sqrt iter    3 1.00000000   0.756E-01       0.002       65.177
     NS sqrt iter    4 1.00000000   0.192E-02       0.002       60.317
     NS sqrt iter    5 1.00000000   0.636E-07       0.001       58.950
     Final NS sqrt iter    5 1.00000000   0.536E-09

     Est. extremal eigenvalues     -0.93780     1.72310  converged:  T
     TRS4 it   1 1.00000000   0.886E+00       0.000       16.128   0.100E-07
     TRS4 it   2 1.00000000   0.625E+00       0.001       32.256   0.100E-07
     TRS4 it   3 1.00000000   0.426E+00       0.001       32.256   0.100E-07
     TRS4 it   4 1.00000000   0.218E+00       0.001       32.256   0.100E-07
     TRS4 it   5 1.00000000   0.714E-01       0.001       32.256   0.100E-07
     TRS4 it   6 1.00000000   0.966E-02       0.001       32.256   0.100E-07
     TRS4 it   7 1.00000000   0.237E-03       0.001       32.256   0.100E-07
     TRS4 it   8 1.00000000   0.199E-06       0.001       32.256   0.100E-07
     TRS4 it   9 1.00000000   0.169E-12       0.001       32.256   0.100E-07
     Final TRS4 iteration    9 1.00000000   0.169E-12
     Chemical potential (mu):       0.01089
 
 PAO| energy:  -7.7993824578455575      penalty:   1.3387654547370158E-005
 PAO|CG| trace_G_new    2.9573210148254158E-005
 PAO|CG| trace_G_prev    7.7062512531113838E-005
 PAO|CG| trace_G_mix    4.1208967030630982E-008
 PAO|CG| trace_D    1.1503284462070391E-004
 PAO|CG| trace_D_Gnew  -2.2381174722337511E-008
 PAO|CG| beta:   0.38322136420480762     
 PAO| norm of gradient:   5.4381256098268048E-003
 PAO| energy improvement:  -9.4433336537136370E-006
 PAO| step     28                   -7.799382458  0.340E-03  0.245E+00     0.064
 PAO|LS| adapt:  T F F
 PAO|LS| adapt: scan_steps:    0.0000000000000000        0.0000000000000000        0.0000000000000000     
 PAO|LS| adapt: energies:   -7.7993824578455575        0.0000000000000000        0.0000000000000000     
 PAO| ======================= Iteration:        29 =============================

     Lanczos converged:  T threshold:   0.100E-02
     Est. extremal eigenvalues:    0.276E+01   0.179E+00
     Est. condition number :    0.154E+02
     NS sqrt iter    1 1.00000000   0.704E+00       0.002       41.876
     NS sqrt iter    2 1.00000000   0.328E+00       0.002       61.754
     NS sqrt iter    3 1.00000000   0.755E-01       0.002       64.668
     NS sqrt iter    4 1.00000000   0.192E-02       0.001       74.092
     NS sqrt iter    5 1.00000000   0.631E-07       0.001       61.202
     Final NS sqrt iter    5 1.00000000   0.533E-09

     Est. extremal eigenvalues     -0.93780     1.72285  converged:  T
     TRS4 it   1 1.00000000   0.886E+00       0.000       16.128   0.100E-07
     TRS4 it   2 1.00000000   0.625E+00       0.001       32.256   0.100E-07
     TRS4 it   3 1.00000000   0.426E+00       0.001       32.256   0.100E-07
     TRS4 it   4 1.00000000   0.218E+00       0.001       32.256   0.100E-07
     TRS4 it   5 1.00000000   0.713E-01       0.001       32.256   0.100E-07
     TRS4 it   6 1.00000000   0.964E-02       0.001       32.256   0.100E-07
     TRS4 it   7 1.00000000   0.236E-03       0.001       32.256   0.100E-07
     TRS4 it   8 1.00000000   0.197E-06       0.001       32.256   0.100E-07
     TRS4 it   9 1.00000000   0.166E-12       0.001       32.256   0.100E-07
     Final TRS4 iteration    9 1.00000000   0.166E-12
     Chemical potential (mu):       0.01100
 
 PAO| energy:  -7.7993888294692786      penalty:   1.2972510938425794E-005
 PAO|LS| adapt:  T T F
 PAO|LS| adapt: scan_steps:    0.0000000000000000       0.24458316785738968        0.0000000000000000     
 PAO|LS| adapt: energies:   -7.7993824578455575       -7.7993888294692786        0.0000000000000000     
 PAO| ======================= Iteration:        30 =============================

     Lanczos converged:  T threshold:   0.100E-02
     Est. extremal eigenvalues:    0.276E+01   0.179E+00
     Est. condition number :    0.154E+02
     NS sqrt iter    1 1.00000000   0.703E+00       0.001       59.225
     NS sqrt iter    2 1.00000000   0.328E+00       0.001       92.692
     NS sqrt iter    3 1.00000000   0.754E-01       0.001       91.462
     NS sqrt iter    4 1.00000000   0.191E-02       0.001       88.906
     NS sqrt iter    5 1.00000000   0.626E-07       0.001       66.044
     Final NS sqrt iter    5 1.00000000   0.529E-09

     Est. extremal eigenvalues     -0.93780     1.72261  converged:  T
     TRS4 it   1 1.00000000   0.886E+00       0.000       16.128   0.100E-07
     TRS4 it   2 1.00000000   0.625E+00       0.001       32.256   0.100E-07
     TRS4 it   3 1.00000000   0.426E+00       0.001       32.256   0.100E-07
     TRS4 it   4 1.00000000   0.218E+00       0.001       32.256   0.100E-07
     TRS4 it   5 1.00000000   0.712E-01       0.001       32.256   0.100E-07
     TRS4 it   6 1.00000000   0.961E-02       0.001       32.256   0.100E-07
     TRS4 it   7 1.00000000   0.235E-03       0.001       32.256   0.100E-07
     TRS4 it   8 1.00000000   0.194E-06       0.001       32.256   0.100E-07
     TRS4 it   9 1.00000000   0.162E-12       0.001       32.256   0.100E-07
     Final TRS4 iteration    9 1.00000000   0.162E-12
     Chemical potential (mu):       0.01111
 
 PAO| energy:  -7.7993934739732227      penalty:   1.2564601142461246E-005
 PAO|LS| adapt:  T T F
 PAO|LS| adapt: scan_steps:    0.0000000000000000       0.48916633571477935        0.0000000000000000     
 PAO|LS| adapt: energies:   -7.7993824578455575       -7.7993934739732227        0.0000000000000000     
 PAO| ======================= Iteration:        31 =============================

     Lanczos converged:  T threshold:   0.100E-02
     Est. extremal eigenvalues:    0.276E+01   0.179E+00
     Est. condition number :    0.154E+02
     NS sqrt iter    1 1.00000000   0.703E+00       0.001       61.058
     NS sqrt iter    2 1.00000000   0.328E+00       0.001       92.999
     NS sqrt iter    3 1.00000000   0.753E-01       0.001       94.546
     NS sqrt iter    4 1.00000000   0.190E-02       0.001       74.649
     NS sqrt iter    5 1.00000000   0.617E-07       0.002       46.468
     Final NS sqrt iter    5 1.00000000   0.524E-09

     Est. extremal eigenvalues     -0.93780     1.72211  converged:  T
     TRS4 it   1 1.00000000   0.886E+00       0.001       16.128   0.100E-07
     TRS4 it   2 1.00000000   0.625E+00       0.001       32.102   0.100E-07
     TRS4 it   3 1.00000000   0.426E+00       0.001       32.256   0.100E-07
     TRS4 it   4 1.00000000   0.218E+00       0.001       32.256   0.100E-07
     TRS4 it   5 1.00000000   0.710E-01       0.001       32.256   0.100E-07
     TRS4 it   6 1.00000000   0.957E-02       0.001       32.256   0.100E-07
     TRS4 it   7 1.00000000   0.232E-03       0.001       32.256   0.100E-07
     TRS4 it   8 1.00000000   0.190E-06       0.001       32.256   0.100E-07
     TRS4 it   9 1.00000000   0.155E-12       0.001       32.256   0.100E-07
     Final TRS4 iteration    9 1.00000000   0.155E-12
     Chemical potential (mu):       0.01132
 
 PAO| energy:  -7.7993975814442651      penalty:   1.1770351173600569E-005
 PAO|LS| Need extra step
 PAO|LS| adapt:  T T F
 PAO|LS| adapt: scan_steps:    0.0000000000000000       0.97833267142955871        0.0000000000000000     
 PAO|LS| adapt: energies:   -7.7993824578455575       -7.7993975814442651        0.0000000000000000     
 PAO| ======================= Iteration:        32 =============================

     Lanczos converged:  T threshold:   0.100E-02
     Est. extremal eigenvalues:    0.276E+01   0.179E+00
     Est. condition number :    0.154E+02
     NS sqrt iter    1 1.00000000   0.702E+00       0.002       42.334
     NS sqrt iter    2 1.00000000   0.327E+00       0.002       67.362
     NS sqrt iter    3 1.00000000   0.750E-01       0.002       66.656
     NS sqrt iter    4 1.00000000   0.189E-02       0.002       67.796
     NS sqrt iter    5 1.00000000   0.598E-07       0.002       46.381
     Final NS sqrt iter    5 1.00000000   0.521E-09

     Est. extremal eigenvalues     -0.93781     1.72110  converged:  T
     TRS4 it   1 1.00000000   0.886E+00       0.001       16.128   0.100E-07
     TRS4 it   2 1.00000000   0.624E+00       0.001       32.256   0.100E-07
     TRS4 it   3 1.00000000   0.425E+00       0.001       32.256   0.100E-07
     TRS4 it   4 1.00000000   0.217E+00       0.001       32.256   0.100E-07
     TRS4 it   5 1.00000000   0.707E-01       0.001       32.256   0.100E-07
     TRS4 it   6 1.00000000   0.948E-02       0.001       32.256   0.100E-07
     TRS4 it   7 1.00000000   0.227E-03       0.001       32.256   0.100E-07
     TRS4 it   8 1.00000000   0.181E-06       0.001       32.256   0.100E-07
     TRS4 it   9 1.00000000   0.140E-12       0.001       32.256   0.100E-07
     Final TRS4 iteration    9 1.00000000   0.140E-12
     Chemical potential (mu):       0.01175
 
 PAO| energy:  -7.7993850640915934      penalty:   1.0267215163934336E-005
 PAO|LS| Need extra step
 PAO|LS| adapt:  T T T
 PAO|LS| adapt: scan_steps:    0.0000000000000000       0.97833267142955871        1.9566653428591174     
 PAO|LS| adapt: energies:   -7.7993824578455575       -7.7993975814442651       -7.7993850640915934     
 PAO|LS| adapt: suggested step_size:    1.0244558242054951     
 PAO|LS| adapt: predicted energy  -7.7993976121619051     
 PAO| ======================= Iteration:        33 =============================

     Lanczos converged:  T threshold:   0.100E-02
     Est. extremal eigenvalues:    0.276E+01   0.179E+00
     Est. condition number :    0.154E+02
     NS sqrt iter    1 1.00000000   0.703E+00       0.001       59.546
     NS sqrt iter    2 1.00000000   0.328E+00       0.001       75.663
     NS sqrt iter    3 1.00000000   0.753E-01       0.002       65.608
     NS sqrt iter    4 1.00000000   0.190E-02       0.002       64.846
     NS sqrt iter    5 1.00000000   0.616E-07       0.002       47.955
     Final NS sqrt iter    5 1.00000000   0.523E-09

     Est. extremal eigenvalues     -0.93780     1.72206  converged:  T
     TRS4 it   1 1.00000000   0.886E+00       0.001       16.128   0.100E-07
     TRS4 it   2 1.00000000   0.625E+00       0.002       20.196   0.100E-07
     TRS4 it   3 1.00000000   0.426E+00       0.001       32.256   0.100E-07
     TRS4 it   4 1.00000000   0.218E+00       0.001       32.256   0.100E-07
     TRS4 it   5 1.00000000   0.710E-01       0.001       32.256   0.100E-07
     TRS4 it   6 1.00000000   0.956E-02       0.001       32.256   0.100E-07
[...]
     NS sqrt iter    4 1.00000000   0.752E-03       0.002       66.480
     NS sqrt iter    5 1.00000000   0.561E-08       0.001       28.215
     Final NS sqrt iter    5 1.00000000   0.328E-09

     Est. extremal eigenvalues     -0.93751     1.63328  converged:  T
     TRS4 it   1 1.00000000   0.884E+00       0.001       16.128   0.100E-07
     TRS4 it   2 1.00000000   0.635E+00       0.001       32.256   0.100E-07
     TRS4 it   3 1.00000000   0.456E+00       0.001       32.256   0.100E-07
     TRS4 it   4 1.00000000   0.279E+00       0.001       32.256   0.100E-07
     TRS4 it   5 1.00000000   0.139E+00       0.001       32.256   0.100E-07
     TRS4 it   6 1.00000000   0.442E-01       0.001       32.256   0.100E-07
     TRS4 it   7 1.00000000   0.626E-02       0.001       32.256   0.100E-07
     TRS4 it   8 1.00000000   0.168E-03       0.001       32.256   0.100E-07
     TRS4 it   9 1.00000000   0.127E-06       0.001       32.256   0.100E-07
     TRS4 it  10 1.00000000   0.718E-13       0.001       32.256   0.100E-07
     Final TRS4 iteration   10 1.00000000   0.718E-13
     Chemical potential (mu):      -0.07568
 
 PAO| energy:  -7.7987535311851151      penalty:   3.4875810621641238E-008
 PAO|LS| Need extra step
 PAO|LS| adapt:  T T T
 PAO|LS| adapt: scan_steps:    0.0000000000000000       0.20000000000000001       0.40000000000000002     
 PAO|LS| adapt: energies:   -7.7987535270026420       -7.7987535325841320       -7.7987535311851151     
 PAO|LS| adapt: suggested step_size:   0.25991646639570287     
 PAO|LS| adapt: predicted energy  -7.7987535328973809     
 PAO| ======================= Iteration:       410 =============================

     Lanczos converged:  T threshold:   0.100E-02
     Est. extremal eigenvalues:    0.249E+01   0.190E+00
     Est. condition number :    0.131E+02
     NS sqrt iter    1 1.00000000   0.631E+00       0.002       42.906
     NS sqrt iter    2 1.00000000   0.273E+00       0.002       65.309
     NS sqrt iter    3 1.00000000   0.481E-01       0.002       66.149
     NS sqrt iter    4 1.00000000   0.752E-03       0.002       65.921
     NS sqrt iter    5 1.00000000   0.561E-08       0.001       27.782
     Final NS sqrt iter    5 1.00000000   0.328E-09

     Est. extremal eigenvalues     -0.93751     1.63328  converged:  T
     TRS4 it   1 1.00000000   0.884E+00       0.001       16.128   0.100E-07
     TRS4 it   2 1.00000000   0.635E+00       0.001       32.256   0.100E-07
     TRS4 it   3 1.00000000   0.456E+00       0.001       32.256   0.100E-07
     TRS4 it   4 1.00000000   0.279E+00       0.001       32.256   0.100E-07
     TRS4 it   5 1.00000000   0.139E+00       0.001       32.256   0.100E-07
     TRS4 it   6 1.00000000   0.442E-01       0.001       32.256   0.100E-07
     TRS4 it   7 1.00000000   0.626E-02       0.001       32.256   0.100E-07
     TRS4 it   8 1.00000000   0.168E-03       0.001       32.256   0.100E-07
     TRS4 it   9 1.00000000   0.127E-06       0.001       32.256   0.100E-07
     TRS4 it  10 1.00000000   0.719E-13       0.001       32.256   0.100E-07
     Final TRS4 iteration   10 1.00000000   0.719E-13
     Chemical potential (mu):      -0.07568
 
 PAO| energy:  -7.7987535328973907      penalty:   3.5273840142544260E-008
 PAO|CG| warming up with steepest descent
 PAO|CG| beta:    0.0000000000000000     
 PAO| norm of gradient:   1.4340701991010640E-004
 PAO| energy improvement:  -5.8947486891725021E-009
 PAO| step    410                   -7.798753533  0.896E-05  0.260E+00     0.155
 PAO| converged after          410  steps :-)
 PAO| Recalculating energy after mixing.

     Lanczos converged:  T threshold:   0.100E-02
     Est. extremal eigenvalues:    0.249E+01   0.190E+00
     Est. condition number :    0.131E+02
     NS sqrt iter    1 1.00000000   0.631E+00       0.002       41.725
     NS sqrt iter    2 1.00000000   0.273E+00       0.002       64.547
     NS sqrt iter    3 1.00000000   0.481E-01       0.002       65.187
     NS sqrt iter    4 1.00000000   0.752E-03       0.002       65.745
     NS sqrt iter    5 1.00000000   0.561E-08       0.001       27.486
     Final NS sqrt iter    5 1.00000000   0.328E-09

     Est. extremal eigenvalues     -0.93751     1.63328  converged:  T
     TRS4 it   1 1.00000000   0.884E+00       0.001       16.128   0.100E-07
     TRS4 it   2 1.00000000   0.635E+00       0.001       32.256   0.100E-07
     TRS4 it   3 1.00000000   0.456E+00       0.001       32.256   0.100E-07
     TRS4 it   4 1.00000000   0.279E+00       0.001       32.256   0.100E-07
     TRS4 it   5 1.00000000   0.139E+00       0.001       32.256   0.100E-07
     TRS4 it   6 1.00000000   0.442E-01       0.001       32.256   0.100E-07
     TRS4 it   7 1.00000000   0.626E-02       0.001       32.256   0.100E-07
     TRS4 it   8 1.00000000   0.168E-03       0.001       32.256   0.100E-07
     TRS4 it   9 1.00000000   0.127E-06       0.001       32.256   0.100E-07
     TRS4 it  10 1.00000000   0.720E-13       0.001       32.256   0.100E-07
     Final TRS4 iteration   10 1.00000000   0.720E-13
     Chemical potential (mu):      -0.07569
 
 PAO| energy:  -7.7987535314236958      penalty:   3.5645113532148931E-008
 PAO| Writing restart file.
     Est. extremal eigenvalues     -0.93751     1.63328  converged:  T
     TRS4 it   1 1.00000000   0.884E+00       0.001       16.128   0.100E-07
     TRS4 it   2 1.00000000   0.635E+00       0.001       32.256   0.100E-07
     TRS4 it   3 1.00000000   0.456E+00       0.001       32.256   0.100E-07
     TRS4 it   4 1.00000000   0.279E+00       0.001       32.256   0.100E-07
     TRS4 it   5 1.00000000   0.139E+00       0.001       32.256   0.100E-07
     TRS4 it   6 1.00000000   0.442E-01       0.001       32.256   0.100E-07
     TRS4 it   7 1.00000000   0.626E-02       0.001       32.256   0.100E-07
     TRS4 it   8 1.00000000   0.168E-03       0.001       32.256   0.100E-07
     TRS4 it   9 1.00000000   0.127E-06       0.001       32.256   0.100E-07
     TRS4 it  10 1.00000000   0.720E-13       0.001       32.256   0.100E-07
     Final TRS4 iteration   10 1.00000000   0.720E-13
     Chemical potential (mu):      -0.07569

 SCF     1       -34.449261592       -34.449261592    2.286213

*********************************************************
 Using MIXING_FRACTION=0.450 to mix KS matrix:  iscf=  2
 KS_nw=0.450*KS + 0.550*KS_old
*********************************************************
     Est. extremal eigenvalues     -0.93752     1.63328  converged:  T
     TRS4 it   1 1.00000000   0.884E+00       0.001       16.128   0.100E-07
     TRS4 it   2 1.00000000   0.635E+00       0.001       32.256   0.100E-07
     TRS4 it   3 1.00000000   0.456E+00       0.001       32.256   0.100E-07
     TRS4 it   4 1.00000000   0.279E+00       0.001       32.256   0.100E-07
     TRS4 it   5 1.00000000   0.139E+00       0.001       32.256   0.100E-07
     TRS4 it   6 1.00000000   0.442E-01       0.001       32.256   0.100E-07
     TRS4 it   7 1.00000000   0.626E-02       0.001       32.256   0.100E-07
     TRS4 it   8 1.00000000   0.168E-03       0.001       32.256   0.100E-07
     TRS4 it   9 1.00000000   0.127E-06       0.001       32.256   0.100E-07
     TRS4 it  10 1.00000000   0.727E-13       0.001       32.256   0.100E-07
     Final TRS4 iteration   10 1.00000000   0.727E-13
     Chemical potential (mu):      -0.07568

 SCF     2       -34.449261593        -0.000000000    1.587522

 PAO| Storing density matrix for ASPC guess in slot:           1

 ENERGY| Total FORCE_EVAL ( QS ) energy (a.u.):              -34.449261592538960


 -------------------------------------------------------------------------------
 -                                                                             -
 -                                DBCSR STATISTICS                             -
 -                                                                             -
 -------------------------------------------------------------------------------
 COUNTER                                    TOTAL       BLAS       SMM       ACC
 flops     5 x     5 x     4                20000     100.0%      0.0%      0.0%
 flops    13 x     5 x     4                20800     100.0%      0.0%      0.0%
 flops     5 x    13 x     4                20800     100.0%      0.0%      0.0%
 flops    13 x    13 x     4                40560     100.0%      0.0%      0.0%
 flops     4 x     4 x     5              3221760     100.0%      0.0%      0.0%
 flops     5 x     4 x     5              3942400     100.0%      0.0%      0.0%
 flops     4 x     4 x    13              4188288     100.0%      0.0%      0.0%
 flops    13 x     4 x     5              5125120     100.0%      0.0%      0.0%
 flops     5 x     4 x    13              5125120     100.0%      0.0%      0.0%
 flops     5 x     4 x     4              6239040     100.0%      0.0%      0.0%
 flops    13 x     4 x    13              6662656     100.0%      0.0%      0.0%
 flops    13 x     4 x     4              8237216     100.0%      0.0%      0.0%
 flops     4 x     4 x     4            417605120     100.0%      0.0%      0.0%
 flops inhomo. stacks                           0       0.0%      0.0%      0.0%
 flops total                       460.448880E+06     100.0%      0.0%      0.0%
 flops max/rank                    460.448880E+06     100.0%      0.0%      0.0%
 matmuls inhomo. stacks                         0       0.0%      0.0%      0.0%
 matmuls total                            3396101     100.0%      0.0%      0.0%
 number of processed stacks                 27046     100.0%      0.0%      0.0%
 average stack size                                   125.6       0.0       0.0
 marketing flops                   748.987776E+06
 -------------------------------------------------------------------------------
 # multiplications                          22631
 max memory usage/rank             330.170368E+06
 # max total images/rank                        1
 # max 3D layers                                1
 # MPI messages exchanged                       0
 MPI messages size (bytes):
  total size                         0.000000E+00
  min size                           0.000000E+00
  max size                           0.000000E+00
  average size                       0.000000E+00
 MPI breakdown and total messages size (bytes):
             size <=      128                   0                        0
       128 < size <=     8192                   0                        0
      8192 < size <=    32768                   0                        0
     32768 < size <=   131072                   0                        0
    131072 < size <=  4194304                   0                        0
   4194304 < size <= 16777216                   0                        0
  16777216 < size                               0                        0
 -------------------------------------------------------------------------------

 MEMORY| Estimated peak process memory [MiB]                                 315

 -------------------------------------------------------------------------------
 -                                                                             -
 -                           R E F E R E N C E S                               -
 -                                                                             -
 -------------------------------------------------------------------------------
 
 CP2K version 7.0 (Development Version), the CP2K developers group (2018).
 CP2K is freely available from https://www.cp2k.org/ .

 Schuett, O; VandeVondele, J. 
 Journal of Chemical Theory and Computation, 14, (2018). 
 Machine Learning Adaptive Basis Sets for Efficient Large Scale Density Functional Theory Simulation.
 https://dx.doi.org/10.1021/acs.jctc.8b00378


 Schuett, Ole; Messmer, Peter; Hutter, Juerg; VandeVondele, Joost. 
 Electronic Structure Calculations on Graphics Processing Units, John Wiley & Sons, Ltd, 173-190 (2016). 
 GPU-Accelerated Sparse Matrix-Matrix Multiplication for Linear Scaling Density Functional Theory.
 https://dx.doi.org/10.1002/9781118670712.ch8


 Borstnik, U; VandeVondele, J; Weber, V; Hutter, J. 
 PARALLEL COMPUTING, 40 (5-6), 47-58 (2014). 
 Sparse matrix multiplication: The distributed block-compressed sparse
 row library.
 https://dx.doi.org/10.1016/j.parco.2014.03.012


 Hutter, J; Iannuzzi, M; Schiffmann, F; VandeVondele, J. 
 WILEY INTERDISCIPLINARY REVIEWS-COMPUTATIONAL MOLECULAR SCIENCE, 4 (1), 15-25 (2014). 
 CP2K: atomistic simulations of condensed matter systems.
 https://dx.doi.org/10.1002/wcms.1159


 VandeVondele, J; Borstnik, U; Hutter, J. 
 JOURNAL OF CHEMICAL THEORY AND COMPUTATION, 8 (10), 3565-3573 (2012). 
 Linear Scaling Self-Consistent Field Calculations with Millions of Atoms
 in the Condensed Phase.
 https://dx.doi.org/10.1021/ct200897x


 VandeVondele, J; Hutter, J. 
 JOURNAL OF CHEMICAL PHYSICS, 127 (11), 114105 (2007). 
 Gaussian basis sets for accurate calculations on molecular systems in
 gas and condensed phases.
 https://dx.doi.org/10.1063/1.2770708


 Krack, M. 
 THEORETICAL CHEMISTRY ACCOUNTS, 114 (1-3), 145-152 (2005). 
 Pseudopotentials for H to Kr optimized for gradient-corrected
 exchange-correlation functionals.
 https://dx.doi.org/10.1007/s00214-005-0655-y


 VandeVondele, J; Krack, M; Mohamed, F; Parrinello, M; Chassaing, T;
 Hutter, J. COMPUTER PHYSICS COMMUNICATIONS, 167 (2), 103-128 (2005). 
 QUICKSTEP: Fast and accurate density functional calculations using a
 mixed Gaussian and plane waves approach.
 https://dx.doi.org/10.1016/j.cpc.2004.12.014


 Frigo, M; Johnson, SG. 
 PROCEEDINGS OF THE IEEE, 93 (2), 216-231 (2005). 
 The design and implementation of FFTW3.
 https://dx.doi.org/10.1109/JPROC.2004.840301


 Niklasson, AMN; Tymczak, CJ; Challacombe, M. 
 JOURNAL OF CHEMICAL PHYSICS, 118 (19), 8611-8620 (2003). 
 Trace resetting density matrix purification in O(N)
 self-consistent-field theory.
 https://dx.doi.org/10.1063/1.1559913


 Hartwigsen, C; Goedecker, S; Hutter, J. 
 PHYSICAL REVIEW B, 58 (7), 3641-3662 (1998). 
 Relativistic separable dual-space Gaussian pseudopotentials from H to Rn.
 https://dx.doi.org/10.1103/PhysRevB.58.3641


 Lippert, G; Hutter, J; Parrinello, M. 
 MOLECULAR PHYSICS, 92 (3), 477-487 (1997). 
 A hybrid Gaussian and plane wave density functional scheme.
 https://dx.doi.org/10.1080/002689797170220


 Perdew, JP; Burke, K; Ernzerhof, M. 
 PHYSICAL REVIEW LETTERS, 77 (18), 3865-3868 (1996). 
 Generalized gradient approximation made simple.
 https://dx.doi.org/10.1103/PhysRevLett.77.3865


 Goedecker, S; Teter, M; Hutter, J. 
 PHYSICAL REVIEW B, 54 (3), 1703-1710 (1996). 
 Separable dual-space Gaussian pseudopotentials.
 https://dx.doi.org/10.1103/PhysRevB.54.1703


 -------------------------------------------------------------------------------
 -                                                                             -
 -                                T I M I N G                                  -
 -                                                                             -
 -------------------------------------------------------------------------------
 SUBROUTINE                       CALLS  ASD         SELF TIME        TOTAL TIME
                                MAXIMUM       AVERAGE  MAXIMUM  AVERAGE  MAXIMUM
 CP2K                                 1  1.0    0.028    0.028   32.370   32.370
 qs_energies                          1  2.0    0.000    0.000   31.886   31.886
 ls_scf                               1  3.0    0.000    0.000   31.742   31.742
 ls_scf_main                          4  4.0    0.001    0.001   19.524   19.524
 ls_scf_dm_to_ks                      9  5.0    0.000    0.000   19.403   19.403
 qs_ks_update_qs_env                 10  6.0    0.000    0.000   14.892   14.892
 rebuild_ks_matrix                   10  7.0    0.000    0.000   14.892   14.892
 qs_ks_build_kohn_sham_matrix        10  8.0    0.001    0.001   14.892   14.892
 pao_update                           4  4.0    0.011    0.011   10.238   10.238
 pao_calc_energy                    413  5.0    0.004    0.004    9.218    9.218
 qs_vxc_create                       10  9.0    0.000    0.000    9.091    9.091
 xc_vxc_pw_create                    10 10.0    0.108    0.108    9.091    9.091
 dbcsr_multiply_generic           22631  8.4    0.496    0.496    7.880    7.880
 xc_rho_set_and_dset_create          10 11.0    0.039    0.039    6.673    6.673
 qs_rho_update_rho                   10  6.0    0.000    0.000    6.370    6.370
 calculate_rho_elec                  10  7.0    5.154    5.154    6.370    6.370
 pw_transfer                        191 10.6    0.013    0.013    5.975    5.975
 fft_wrap_pw1pw2                    171 11.7    0.002    0.002    5.892    5.892
 fft_wrap_pw1pw2_200                111 12.8    0.327    0.327    5.644    5.644
 sum_up_and_integrate                10  9.0    0.019    0.019    4.989    4.989
 integrate_v_rspace                  10 10.0    4.267    4.267    4.970    4.970
 pao_dm_trs4                        413  6.0    0.004    0.004    4.786    4.786
 xc_functional_eval                  10 12.0    0.000    0.000    4.711    4.711
 pbe_lda_eval                        10 13.0    4.711    4.711    4.711    4.711
 density_matrix_trs4                422  7.0    0.199    0.199    4.629    4.629
 ls_scf_init_matrix_S               417  7.0    0.004    0.004    4.442    4.442
 pao_rebuild_S                      413  6.0    0.003    0.003    4.389    4.389
 matrix_sqrt_Newton_Schulz          417  8.0    0.119    0.119    4.011    4.011
 multiply_cannon                  22631  9.4    1.285    1.285    3.696    3.696
 fft3d_s                            172 13.6    3.151    3.151    3.165    3.165
 make_m2s                         45262  9.4    0.179    0.179    2.499    2.499
 make_images                      45262 10.4    0.605    0.605    2.204    2.204
 pao_guess_initial_P                  1  4.0    0.000    0.000    1.867    1.867
 pao_read_preopt_dm                   1  5.0    0.000    0.000    1.867    1.867
 multiply_cannon_multrec          22631 10.4    1.266    1.266    1.389    1.389
 pw_gather_s                         81 13.1    1.343    1.343    1.343    1.343
 density_rs2pw                       10  8.0    0.001    0.001    1.201    1.201
 arnoldi_extremal                   839  8.5    0.005    0.005    1.107    1.107
 arnoldi_normal_ev                  839  9.5    0.014    0.014    1.102    1.102
 pw_scatter_s                        90 14.2    1.042    1.042    1.042    1.042
 pao_calc_AB                        545  5.8    0.001    0.001    0.999    0.999
 pao_calc_AB_direct                 545  6.8    0.028    0.028    0.998    0.998
 pao_calc_grad_lnv_wrt_AB           131  7.0    0.008    0.008    0.940    0.940
 build_subspace                     839 10.5    0.058    0.058    0.808    0.808
 dbcsr_matrix_vector_mult         20122 11.5    0.114    0.114    0.738    0.738
 dbcsr_finalize                   53950  9.6    0.120    0.120    0.724    0.724
 potential_pw2rs                     10 11.0    0.003    0.003    0.701    0.701
 dbcsr_create_new                173065 10.7    0.360    0.360    0.679    0.679
 -------------------------------------------------------------------------------

 The number of warnings for this run is : 0
 
 -------------------------------------------------------------------------------
  **** **** ******  **  PROGRAM ENDED AT                 2019-03-28 17:34:39.270
 ***** ** ***  *** **   PROGRAM RAN ON            oleschuett.zrh.corp.google.com
 **    ****   ******    PROGRAM RAN BY                                oleschuett
 ***** **    ** ** **   PROGRAM PROCESS ID                                 36030
  **** **  *******  **  PROGRAM STOPPED IN /usr/local/google/home/oleschuett/git
                                           /pao_ml_equivar/2H2O_rotations/rand_1
                                           3
