 DBCSR| CPU Multiplication driver                                           XSMM (U)
 DBCSR| Multrec recursion limit                                              512 (U)
 DBCSR| Multiplication stack size                                           1000 (D)
 DBCSR| Maximum elements for images                                    UNLIMITED (U)
 DBCSR| Multiplicative factor virtual images                                   1 (U)
 DBCSR| Use multiplication densification                                       T (D)
 DBCSR| Multiplication size stacks                                             3 (U)
 DBCSR| Use memory pool for CPU allocation                                     F (U)
 DBCSR| OMP: Current number of threads                                         1
 DBCSR| OMP: Max number of threads                                             1
 DBCSR| Split modifier for TAS multiplication algorithm                  1.0E+00 (U)


  **** **** ******  **  PROGRAM STARTED AT               2023-02-01 10:43:54.933
 ***** ** ***  *** **   PROGRAM STARTED ON                                moritz
 **    ****   ******    PROGRAM STARTED BY                                   ole
 ***** **    ** ** **   PROGRAM PROCESS ID                                148514
  **** **  *******  **  PROGRAM STARTED IN /home/ole/git/pao_ml_equivar/2H2O_rot
                                           ations/rand_13

 CP2K| version string:                 CP2K version 2023.1 (Development Version)
 CP2K| source code revision number:                                  git:03b4147
 CP2K| cp2kflags: omp libint fftw3 libxc quip xsmm spglib libvori libbqb libtorc
 CP2K|            h
 CP2K| is freely available from                            https://www.cp2k.org/
 CP2K| Program compiled at                           Mi 01 Feb 2023 10:36:52 CET
 CP2K| Program compiled on                                                moritz
 CP2K| Program compiled for                                                local
 CP2K| Data directory path                               /home/ole/git/cp2k/data
 CP2K| Input file name                                            2H2O_pao44.inp

 GLOBAL| Force Environment number                                              1
 GLOBAL| Basis set file name                                        BASIS_MOLOPT
 GLOBAL| Potential file name                                      GTH_POTENTIALS
 GLOBAL| MM Potential file name                                     MM_POTENTIAL
 GLOBAL| Coordinate file name                                         coords.xyz
 GLOBAL| Method name                                                        CP2K
 GLOBAL| Project name                                                 2H2O_pao44
 GLOBAL| Run type                                                         ENERGY
 GLOBAL| FFT library                                                       FFTW3
 GLOBAL| Diagonalization library                                       ScaLAPACK
 GLOBAL| DGEMM library                                                      BLAS
 GLOBAL| Orthonormality check for eigenvectors                          DISABLED
 GLOBAL| Matrix multiplication library                                 ScaLAPACK
 GLOBAL| All-to-all communication in single precision                          F
 GLOBAL| FFTs using library dependent lengths                                  F
 GLOBAL| Grid backend                                                       AUTO
 GLOBAL| Global print level                                                  LOW
 GLOBAL| MPI I/O enabled                                                       T
 GLOBAL| Total number of message passing processes                             1
 GLOBAL| Number of threads for this process                                    1
 GLOBAL| This output is from process                                           0
 GLOBAL| Stack size for threads created by OpenMP (OMP_STACKSIZE)        default
 GLOBAL| CPU model name           AMD Ryzen Threadripper 3970X 32-Core Processor
 GLOBAL| CPUID                                                              1002
 GLOBAL| Compiled for CPUID                                                    0

 *** HINT in environment.F:884 :: The compiler target flags (generic) used ***
 *** to build this binary cannot exploit all extensions of this CPU model  ***
 *** (x86_avx2). Consider compiler target flags as part of FCFLAGS and     ***
 *** CFLAGS (ARCH file).                                                   ***


 MEMORY| system memory details [Kb]
 MEMORY|                        rank 0           min           max       average
 MEMORY| MemTotal            131773860     131773860     131773860     131773860
 MEMORY| MemFree             115402780     115402780     115402780     115402780
 MEMORY| Buffers                301492        301492        301492        301492
 MEMORY| Cached                7000768       7000768       7000768       7000768
 MEMORY| Slab                   776600        776600        776600        776600
 MEMORY| SReclaimable           330700        330700        330700        330700
 MEMORY| MemLikelyFree       123035740     123035740     123035740     123035740


 GENERATE|  Preliminary Number of Bonds generated:                             0
 GENERATE|  Achieved consistency in connectivity generation.

 *******************************************************************************
 *******************************************************************************
 **                                                                           **
 **     #####                         ##              ##                      **
 **    ##   ##            ##          ##              ##                      **
 **   ##     ##                       ##            ######                    **
 **   ##     ##  ##   ##  ##   #####  ##  ##   ####   ##    #####    #####    **
 **   ##     ##  ##   ##  ##  ##      ## ##   ##      ##   ##   ##  ##   ##   **
 **   ##  ## ##  ##   ##  ##  ##      ####     ###    ##   ######   ######    **
 **    ##  ###   ##   ##  ##  ##      ## ##      ##   ##   ##       ##        **
 **     #######   #####   ##   #####  ##  ##  ####    ##    #####   ##        **
 **           ##                                                    ##        **
 **                                                                           **
 **                                                ... make the atoms dance   **
 **                                                                           **
 **            Copyright (C) by CP2K developers group (2000-2023)             **
 **                      J. Chem. Phys. 152, 194103 (2020)                    **
 **                                                                           **
 *******************************************************************************


 TOTAL NUMBERS AND MAXIMUM NUMBERS

  Total number of            - Atomic kinds:                                   2
                             - Atoms:                                          6
                             - Shell sets:                                     6
                             - Shells:                                        22
                             - Primitive Cartesian functions:                 42
                             - Cartesian basis functions:                     48
                             - Spherical basis functions:                     46

  Maximum angular momentum of- Orbital basis functions:                        2
                             - Local part of the GTH pseudopotential:          2
                             - Non-local part of the GTH pseudopotential:      0

 ------------------------------ Linear scaling SCF -----------------------------
 eps_scf:                                                              0.100E-07
 eps_filter:                                                           0.100E-07
 mixing_fraction:                                                      0.450E+00
 max_scf:                                                                     25
 fixed chemical potential (mu)                                                 F
 has unit metric:                                                              F
 Computing inv(S):                                                             T
 Computing sqrt(S):                                                            T
 Computing S preconditioner                                                    F
 S sqrt method:                                                     NEWTONSCHULZ
 S sqrt order:                                                                 3
 Extrapolation order:                                                          1
 Use single precision matrices                                                 F
 S preconditioner type                                                      NONE
 Polarized Atomic Orbitals (PAO)                                               T
 Purification method                                   Trace resetting 4th order
 Cluster type                                                             ATOMIC
 Computing Chebyshev                                                       FALSE
 Using PAO                                                                     T
 -------------------------------------------------------------------------------

 
 PAO|                                  EPS_PAO                           0.1E-04
 PAO|                                  MIXING                            0.5E+00
 PAO|                                  MAX_PAO                              1000
 PAO|                                  MAX_CYCLES                           1000
 PAO|                                  PARAMETERIZATION              EQUIVARIANT
 PAO|                                  PRECONDITION                            F
 PAO|                                  REGULARIZATION                    0.0E+00
 PAO|                                  EPS_PGF                           0.1E-09
 PAO|                                  PENALTY_DISTANCE                  0.1E+00
 PAO|                                  PENALTY_STRENGTH                  0.5E-02
 PAO|                                  LINPOT_PRECONDITION_DELTA         0.0E+00
 PAO|                                  LINPOT_INITGUESS_DELT             0.0E+00
 PAO|                                  LINPOT_REGULARIZATION_DELTA       0.0E+00
 PAO|                                  LINPOT_REGULARIZATION_STRENGTH    0.0E+00
 PAO|                                  OPTIMIZER                              CG
 PAO|                                  CG_INIT_STEPS                           2
 PAO|                                  CG_RESET_LIMIT                    0.1E+00
 PAO|                                  CHECK_UNITARY_TOL                -0.1E+01
 PAO|                                  CHECK_GRADIENT_TOL               -0.1E+01
 PAO|                                  NUM_GRADIENT_ORDER                      2
 PAO|                                  NUM_GRADIENT_EPS                  0.1E-07
 PAO|                                  PRINT%RESTART%WRITE_CYCLES            100
 PAO|                                  RESTART_FILE 
 PAO|                                  PREOPT_DM_FILE 2H2O_ref_LS_DM_SPIN_1_RESTART.dm
 PAO|                                  MACHINE_LEARNING%METHOD       GAUSSIAN_PR
 PAO|                                  MACHINE_LEARNING%PRIOR               ZERO
 PAO|                                  MACHINE_LEARNING%DESCRIPTOR     POTENTIAL
 PAO|                                  MACHINE_LEARNING%TOLERANCE        0.1E-01
 PAO|                                  MACHINE_LEARNING%GP_NOISE_VAR     0.1E+00
 PAO|                                  MACHINE_LEARNING%GP_SCALE         0.5E-01
 

 Calculating atomic Fock matrix for atomic kind: O

 Electronic structure
    Total number of core electrons                                          2.00
    Total number of valence electrons                                       6.00
    Total number of electrons                                               8.00
    Multiplicity                                                   not specified
    S   [  2.00] 2.00
    P      4.00


 *******************************************************************************
                  Iteration          Convergence                     Energy [au]
 *******************************************************************************
                          1        0.708315                     -15.576645311500
                          2        0.608879                     -15.587933561584
                          3        0.102828E-01                 -15.656849565404
                          4        0.113889E-02                 -15.656866888140
                          5        0.434197E-03                 -15.656867072159
                          6        0.263771E-03                 -15.656867091904
                          7        0.478536E-06                 -15.656867103452

 Energy components [Hartree]           Total Energy ::          -15.656867103452
                                        Band Energy ::           -3.000198112285
                                     Kinetic Energy ::           11.759971203220
                                   Potential Energy ::          -27.416838306672
                                      Virial (-V/T) ::            2.331369510426
                                        Core Energy ::          -26.140716385623
                                          XC Energy ::           -3.154051012914
                                     Coulomb Energy ::           13.637900295084
                       Total Pseudopotential Energy ::          -37.935781716540
                       Local Pseudopotential Energy ::          -39.218907440693
                    Nonlocal Pseudopotential Energy ::            1.283125724153
                                        Confinement ::            0.350941276976

 Orbital energies  State     L     Occupation   Energy[a.u.]          Energy[eV]

                       1     0          2.000      -0.864471          -23.523463

                       1     1          4.000      -0.317814           -8.648154


 Total Electron Density at R=0:                                         0.000068

 Calculating atomic Fock matrix for atomic kind: H

 Electronic structure
    Total number of core electrons                                          0.00
    Total number of valence electrons                                       1.00
    Total number of electrons                                               1.00
    Multiplicity                                                   not specified
    S      1.00


 *******************************************************************************
                  Iteration          Convergence                     Energy [au]
 *******************************************************************************
                          1        0.437545E-02                  -0.424159432110
                          2        0.531356E-03                  -0.424178438213
                          3        0.259176E-06                  -0.424178722480

 Energy components [Hartree]           Total Energy ::           -0.424178722480
                                        Band Energy ::           -0.199015229016
                                     Kinetic Energy ::            0.464007633961
                                   Potential Energy ::           -0.888186356441
                                      Virial (-V/T) ::            1.914163240935
                                        Core Energy ::           -0.479160803564
                                          XC Energy ::           -0.244352904054
                                     Coulomb Energy ::            0.299334985138
                       Total Pseudopotential Energy ::           -0.962295316385
                       Local Pseudopotential Energy ::           -0.962295316385
                    Nonlocal Pseudopotential Energy ::            0.000000000000
                                        Confinement ::            0.191268788606

 Orbital energies  State     L     Occupation   Energy[a.u.]          Energy[eV]

                       1     0          1.000      -0.199015           -5.415480


 Total Electron Density at R=0:                                         0.242907
 PAO| Made initial guess for matrix_X with norm:   4.8989794855663567     

     Lanczos converged:  T threshold:   0.100E-02
     Est. extremal eigenvalues:    0.336E+01   0.110E+00
     Est. condition number :    0.306E+02

 Order=           3
     NS sqrt iter    1 1.00000000   0.819E+00       0.001       52.126
     NS sqrt iter    2 1.00000000   0.440E+00       0.001      110.592
     NS sqrt iter    3 1.00000000   0.171E+00       0.001      110.592
     NS sqrt iter    4 1.00000000   0.213E-01       0.001      110.592
     NS sqrt iter    5 1.00000000   0.644E-04       0.001       97.807
     Symmetrizing Results
     Final NS sqrt iter    5 1.00000000   0.565E-08

 PAO| Read restart DM 2H2O_ref_LS_DM_SPIN_1_RESTART.dm with checksum:    64.302234547385098     
 PAO| Quickstep energy from restart density:  -34.450043977513204     
 PAO| ======================= Iteration:         1 =============================

     Lanczos converged:  T threshold:   0.100E-02
     Est. extremal eigenvalues:    0.336E+01   0.110E+00
     Est. condition number :    0.306E+02

 Order=           3
     NS sqrt iter    1 1.00000000   0.819E+00       0.001       59.579
     NS sqrt iter    2 1.00000000   0.440E+00       0.001      101.034
     NS sqrt iter    3 1.00000000   0.171E+00       0.001      103.020
     NS sqrt iter    4 1.00000000   0.213E-01       0.001      101.103
     NS sqrt iter    5 1.00000000   0.644E-04       0.001       91.678
     Symmetrizing Results
     Final NS sqrt iter    5 1.00000000   0.565E-08

     Est. extremal eigenvalues     -0.92166     1.97868  converged:  T
     TRS4 it   1 1.00000000   0.905E+00       0.000       16.128   0.100E-07
     TRS4 it   2 1.00000000   0.716E+00       0.001       32.256   0.100E-07
     TRS4 it   3 1.00000000   0.509E+00       0.001       32.256   0.100E-07
     TRS4 it   4 1.00000000   0.322E+00       0.001       32.256   0.100E-07
     TRS4 it   5 1.00000000   0.162E+00       0.001       32.256   0.100E-07
     TRS4 it   6 1.00000000   0.524E-01       0.001       32.256   0.100E-07
     TRS4 it   7 1.00000000   0.779E-02       0.001       32.256   0.100E-07
     TRS4 it   8 1.00000000   0.243E-03       0.001       32.256   0.100E-07
     TRS4 it   9 1.00000000   0.264E-06       0.001       32.256   0.100E-07
     TRS4 it  10 1.00000000   0.313E-12       0.001       32.256   0.100E-07
     Final TRS4 iteration   10 1.00000000   0.313E-12
     Chemical potential (mu):      -0.06715
 
 PAO| energy:  -7.6394945513609178      penalty:   6.2862353384799393E-033
 PAO|CG| warming up with steepest descent
 PAO|CG| beta:    0.0000000000000000     
 PAO| norm of gradient:  0.78367731213531455     
 PAO|LS| adapt:  T F F
 PAO|LS| adapt: scan_steps:    0.0000000000000000        0.0000000000000000        0.0000000000000000     
 PAO|LS| adapt: energies:   -7.6394945513609178        0.0000000000000000        0.0000000000000000     
 PAO| ======================= Iteration:         2 =============================

     Lanczos converged:  T threshold:   0.100E-02
     Est. extremal eigenvalues:    0.327E+01   0.122E+00
     Est. condition number :    0.269E+02

 Order=           3
     NS sqrt iter    1 1.00000000   0.803E+00       0.001       59.328
     NS sqrt iter    2 1.00000000   0.424E+00       0.001      100.562
     NS sqrt iter    3 1.00000000   0.154E+00       0.001      102.466
     NS sqrt iter    4 1.00000000   0.149E-01       0.001       99.581
     NS sqrt iter    5 1.00000000   0.224E-04       0.001       78.164
     Symmetrizing Results
     Final NS sqrt iter    5 1.00000000   0.798E-09

     Est. extremal eigenvalues     -0.92533     1.91981  converged:  T
     TRS4 it   1 1.00000000   0.903E+00       0.000       16.128   0.100E-07
     TRS4 it   2 1.00000000   0.697E+00       0.001       32.256   0.100E-07
     TRS4 it   3 1.00000000   0.495E+00       0.001       32.256   0.100E-07
     TRS4 it   4 1.00000000   0.303E+00       0.001       32.256   0.100E-07
     TRS4 it   5 1.00000000   0.143E+00       0.001       32.256   0.100E-07
     TRS4 it   6 1.00000000   0.413E-01       0.001       32.256   0.100E-07
     TRS4 it   7 1.00000000   0.489E-02       0.001       32.256   0.100E-07
     TRS4 it   8 1.00000000   0.967E-04       0.001       32.256   0.100E-07
     TRS4 it   9 1.00000000   0.416E-07       0.001       32.256   0.100E-07
     Final TRS4 iteration    9 1.00000000   0.416E-07
     Chemical potential (mu):      -0.05530
 
 PAO| energy:  -7.6950082639501325      penalty:   2.2536202482179195E-008
 PAO|LS| adapt:  T T F
 PAO|LS| adapt: scan_steps:    0.0000000000000000       0.10000000000000001        0.0000000000000000     
 PAO|LS| adapt: energies:   -7.6394945513609178       -7.6950082639501325        0.0000000000000000     
 PAO| ======================= Iteration:         3 =============================

     Lanczos converged:  T threshold:   0.100E-02
     Est. extremal eigenvalues:    0.318E+01   0.133E+00
     Est. condition number :    0.239E+02

 Order=           3
     NS sqrt iter    1 1.00000000   0.785E+00       0.001       59.222
     NS sqrt iter    2 1.00000000   0.408E+00       0.001      100.109
     NS sqrt iter    3 1.00000000   0.137E+00       0.001      102.373
     NS sqrt iter    4 1.00000000   0.104E-01       0.001      100.240
     NS sqrt iter    5 1.00000000   0.807E-05       0.001       77.652
     Symmetrizing Results
     Final NS sqrt iter    5 1.00000000   0.103E-09

     Est. extremal eigenvalues     -0.92877     1.87023  converged:  T
     TRS4 it   1 1.00000000   0.901E+00       0.000       16.128   0.100E-07
     TRS4 it   2 1.00000000   0.680E+00       0.001       32.256   0.100E-07
     TRS4 it   3 1.00000000   0.481E+00       0.001       32.256   0.100E-07
     TRS4 it   4 1.00000000   0.284E+00       0.001       32.256   0.100E-07
     TRS4 it   5 1.00000000   0.125E+00       0.001       32.256   0.100E-07
     TRS4 it   6 1.00000000   0.316E-01       0.001       32.256   0.100E-07
     TRS4 it   7 1.00000000   0.286E-02       0.001       32.256   0.100E-07
     TRS4 it   8 1.00000000   0.329E-04       0.001       32.256   0.100E-07
     TRS4 it   9 1.00000000   0.483E-08       0.001       32.256   0.100E-07
     Final TRS4 iteration    9 1.00000000   0.483E-08
     Chemical potential (mu):      -0.04248
 
 PAO| energy:  -7.7380640727303005      penalty:   3.6057924211988552E-007
 PAO|LS| adapt:  T T F
 PAO|LS| adapt: scan_steps:    0.0000000000000000       0.20000000000000001        0.0000000000000000     
 PAO|LS| adapt: energies:   -7.6394945513609178       -7.7380640727303005        0.0000000000000000     
 PAO| ======================= Iteration:         4 =============================

     Lanczos converged:  T threshold:   0.100E-02
     Est. extremal eigenvalues:    0.298E+01   0.151E+00
     Est. condition number :    0.197E+02

 Order=           3
     NS sqrt iter    1 1.00000000   0.748E+00       0.001       58.372
     NS sqrt iter    2 1.00000000   0.374E+00       0.001       98.411
     NS sqrt iter    3 1.00000000   0.107E+00       0.001      101.237
     NS sqrt iter    4 1.00000000   0.520E-02       0.001       98.712
     NS sqrt iter    5 1.00000000   0.117E-05       0.001       76.110
     Symmetrizing Results
     Final NS sqrt iter    5 1.00000000   0.225E-11

     Est. extremal eigenvalues     -0.93410     1.79329  converged:  T
     TRS4 it   1 1.00000000   0.896E+00       0.000       16.128   0.100E-07
     TRS4 it   2 1.00000000   0.650E+00       0.001       32.256   0.100E-07
     TRS4 it   3 1.00000000   0.453E+00       0.001       32.256   0.100E-07
     TRS4 it   4 1.00000000   0.249E+00       0.001       32.256   0.100E-07
     TRS4 it   5 1.00000000   0.938E-01       0.001       32.256   0.100E-07
     TRS4 it   6 1.00000000   0.171E-01       0.001       32.256   0.100E-07
     TRS4 it   7 1.00000000   0.795E-03       0.001       32.256   0.100E-07
     TRS4 it   8 1.00000000   0.248E-05       0.001       32.256   0.100E-07
     TRS4 it   9 1.00000000   0.273E-10       0.001       32.256   0.100E-07
     Final TRS4 iteration    9 1.00000000   0.273E-10
     Chemical potential (mu):      -0.01408
 
 PAO| energy:  -7.7852091650674744      penalty:   5.7692678931605164E-006
 PAO|LS| Need extra step
 PAO|LS| adapt:  T T F
 PAO|LS| adapt: scan_steps:    0.0000000000000000       0.40000000000000002        0.0000000000000000     
 PAO|LS| adapt: energies:   -7.6394945513609178       -7.7852091650674744        0.0000000000000000     
 PAO| ======================= Iteration:         5 =============================

     Lanczos converged:  T threshold:   0.100E-02
     Est. extremal eigenvalues:    0.263E+01   0.181E+00
     Est. condition number :    0.145E+02

 Order=           3
     NS sqrt iter    1 1.00000000   0.685E+00       0.001       58.500
     NS sqrt iter    2 1.00000000   0.312E+00       0.001      102.058
     NS sqrt iter    3 1.00000000   0.666E-01       0.001       99.844
     NS sqrt iter    4 1.00000000   0.143E-02       0.001       98.679
     NS sqrt iter    5 1.00000000   0.278E-07       0.001       59.337
     Symmetrizing Results
     Final NS sqrt iter    5 1.00000000   0.315E-08

     Est. extremal eigenvalues     -0.93532     1.69704  converged:  T
     TRS4 it   1 1.00000000   0.886E+00       0.000       16.128   0.100E-07
     TRS4 it   2 1.00000000   0.608E+00       0.001       32.256   0.100E-07
     TRS4 it   3 1.00000000   0.403E+00       0.001       32.256   0.100E-07
     TRS4 it   4 1.00000000   0.190E+00       0.001       32.256   0.100E-07
     TRS4 it   5 1.00000000   0.513E-01       0.001       32.256   0.100E-07
     TRS4 it   6 1.00000000   0.462E-02       0.001       32.256   0.100E-07
     TRS4 it   7 1.00000000   0.484E-04       0.001       32.256   0.100E-07
     TRS4 it   8 1.00000000   0.679E-08       0.001       32.256   0.100E-07
     Final TRS4 iteration    8 1.00000000   0.679E-08
     Chemical potential (mu):       0.03599
 
 PAO| energy:  -7.7301287786486528      penalty:   9.2308286444513479E-005
 PAO|LS| Need extra step
 PAO|LS| adapt:  T T T
 PAO|LS| adapt: scan_steps:    0.0000000000000000       0.40000000000000002       0.80000000000000004     
 PAO|LS| adapt: energies:   -7.6394945513609178       -7.7852091650674744       -7.7301287786486528     
 PAO|LS| adapt: suggested step_size:   0.49027538258536524     
 PAO|LS| adapt: predicted energy  -7.7903229397823051     
 PAO| ======================= Iteration:         6 =============================

     Lanczos converged:  T threshold:   0.100E-02
     Est. extremal eigenvalues:    0.290E+01   0.159E+00
     Est. condition number :    0.183E+02

 Order=           3
     NS sqrt iter    1 1.00000000   0.732E+00       0.001       58.943
     NS sqrt iter    2 1.00000000   0.358E+00       0.001      100.395
     NS sqrt iter    3 1.00000000   0.960E-01       0.001      100.210
     NS sqrt iter    4 1.00000000   0.384E-02       0.001       99.448
     NS sqrt iter    5 1.00000000   0.499E-06       0.001       77.569
     Symmetrizing Results
     Final NS sqrt iter    5 1.00000000   0.421E-12

     Est. extremal eigenvalues     -0.93558     1.76608  converged:  T
     TRS4 it   1 1.00000000   0.893E+00       0.000       16.128   0.100E-07
     TRS4 it   2 1.00000000   0.639E+00       0.001       32.256   0.100E-07
     TRS4 it   3 1.00000000   0.440E+00       0.001       32.256   0.100E-07
     TRS4 it   4 1.00000000   0.234E+00       0.001       32.256   0.100E-07
     TRS4 it   5 1.00000000   0.817E-01       0.001       32.256   0.100E-07
     TRS4 it   6 1.00000000   0.127E-01       0.001       32.256   0.100E-07
     TRS4 it   7 1.00000000   0.417E-03       0.001       32.256   0.100E-07
     TRS4 it   8 1.00000000   0.650E-06       0.001       32.256   0.100E-07
     TRS4 it   9 1.00000000   0.186E-11       0.001       32.256   0.100E-07
     Final TRS4 iteration    9 1.00000000   0.186E-11
     Chemical potential (mu):      -0.00029
 
 PAO| energy:  -7.7895885628181309      penalty:   1.3020902581990375E-005
 PAO|CG| warming up with steepest descent
 PAO|CG| beta:    0.0000000000000000     
 PAO| norm of gradient:  0.41644878514437339     
 PAO| energy improvement: -0.15009401145721313     
 PAO| step      6                   -7.789588563  0.260E-01  0.490E+00     0.092
 PAO|LS| adapt:  T F F
 PAO|LS| adapt: scan_steps:    0.0000000000000000        0.0000000000000000        0.0000000000000000     
 PAO|LS| adapt: energies:   -7.7895885628181309        0.0000000000000000        0.0000000000000000     
 PAO| ======================= Iteration:         7 =============================

     Lanczos converged:  T threshold:   0.100E-02
     Est. extremal eigenvalues:    0.281E+01   0.172E+00
     Est. condition number :    0.164E+02

 Order=           3
     NS sqrt iter    1 1.00000000   0.715E+00       0.001       58.656
     NS sqrt iter    2 1.00000000   0.338E+00       0.001       99.640
     NS sqrt iter    3 1.00000000   0.806E-01       0.001      102.410
     NS sqrt iter    4 1.00000000   0.239E-02       0.001      100.810
     NS sqrt iter    5 1.00000000   0.135E-06       0.001       71.964
     Symmetrizing Results
     Final NS sqrt iter    5 1.00000000   0.943E-09

     Est. extremal eigenvalues     -0.93731     1.75389  converged:  T
     TRS4 it   1 1.00000000   0.893E+00       0.000       16.128   0.100E-07
     TRS4 it   2 1.00000000   0.637E+00       0.001       32.256   0.100E-07
     TRS4 it   3 1.00000000   0.441E+00       0.001       32.256   0.100E-07
     TRS4 it   4 1.00000000   0.235E+00       0.001       32.256   0.100E-07
     TRS4 it   5 1.00000000   0.827E-01       0.001       32.256   0.100E-07
     TRS4 it   6 1.00000000   0.127E-01       0.001       32.256   0.100E-07
     TRS4 it   7 1.00000000   0.401E-03       0.001       32.256   0.100E-07
     TRS4 it   8 1.00000000   0.577E-06       0.001       32.256   0.100E-07
     TRS4 it   9 1.00000000   0.145E-11       0.001       32.256   0.100E-07
     Final TRS4 iteration    9 1.00000000   0.145E-11
     Chemical potential (mu):       0.00107
 
 PAO| energy:  -7.7839418212654126      penalty:   1.9669631993771126E-005
 PAO|LS| adapt:  T F T
 PAO|LS| adapt: scan_steps:    0.0000000000000000        0.0000000000000000       0.49027538258536524     
 PAO|LS| adapt: energies:   -7.7895885628181309        0.0000000000000000       -7.7839418212654126     
 PAO| ======================= Iteration:         8 =============================

     Lanczos converged:  T threshold:   0.100E-02
     Est. extremal eigenvalues:    0.285E+01   0.165E+00
     Est. condition number :    0.173E+02

 Order=           3
     NS sqrt iter    1 1.00000000   0.723E+00       0.001       58.201
     NS sqrt iter    2 1.00000000   0.348E+00       0.001       99.256
     NS sqrt iter    3 1.00000000   0.881E-01       0.001      100.390
     NS sqrt iter    4 1.00000000   0.304E-02       0.001       98.645
     NS sqrt iter    5 1.00000000   0.264E-06       0.001       76.022
     Symmetrizing Results
     Final NS sqrt iter    5 1.00000000   0.588E-09

     Est. extremal eigenvalues     -0.93739     1.75943  converged:  T
     TRS4 it   1 1.00000000   0.893E+00       0.000       16.128   0.100E-07
     TRS4 it   2 1.00000000   0.638E+00       0.001       32.256   0.100E-07
     TRS4 it   3 1.00000000   0.440E+00       0.001       32.256   0.100E-07
     TRS4 it   4 1.00000000   0.234E+00       0.001       32.256   0.100E-07
     TRS4 it   5 1.00000000   0.819E-01       0.001       32.256   0.100E-07
     TRS4 it   6 1.00000000   0.127E-01       0.001       32.256   0.100E-07
     TRS4 it   7 1.00000000   0.420E-03       0.001       32.256   0.100E-07
     TRS4 it   8 1.00000000   0.652E-06       0.001       32.256   0.100E-07
     TRS4 it   9 1.00000000   0.187E-11       0.001       32.256   0.100E-07
     Final TRS4 iteration    9 1.00000000   0.187E-11
     Chemical potential (mu):      -0.00013
 
 PAO| energy:  -7.8092004971359987      penalty:   1.4111844873094997E-005
 PAO|LS| adapt:  T T T
 PAO|LS| adapt: scan_steps:    0.0000000000000000       0.24513769129268262       0.49027538258536524     
 PAO|LS| adapt: energies:   -7.7895885628181309       -7.8092004971359987       -7.7839418212654126     
 PAO|LS| adapt: suggested step_size:   0.22971301596794158     
 PAO|LS| adapt: predicted energy  -7.8092893239037577     
 PAO| ======================= Iteration:         9 =============================

     Lanczos converged:  T threshold:   0.100E-02
     Est. extremal eigenvalues:    0.286E+01   0.165E+00
     Est. condition number :    0.174E+02

 Order=           3
     NS sqrt iter    1 1.00000000   0.724E+00       0.001       58.565
     NS sqrt iter    2 1.00000000   0.349E+00       0.001       98.353
     NS sqrt iter    3 1.00000000   0.886E-01       0.001       99.265
     NS sqrt iter    4 1.00000000   0.309E-02       0.001       99.907
     NS sqrt iter    5 1.00000000   0.275E-06       0.001       75.624
     Symmetrizing Results
     Final NS sqrt iter    5 1.00000000   0.604E-09

     Est. extremal eigenvalues     -0.93733     1.75982  converged:  T
     TRS4 it   1 1.00000000   0.893E+00       0.000       16.128   0.100E-07
     TRS4 it   2 1.00000000   0.638E+00       0.001       32.256   0.100E-07
     TRS4 it   3 1.00000000   0.440E+00       0.001       32.256   0.100E-07
     TRS4 it   4 1.00000000   0.234E+00       0.001       32.256   0.100E-07
     TRS4 it   5 1.00000000   0.819E-01       0.001       32.256   0.100E-07
     TRS4 it   6 1.00000000   0.127E-01       0.001       32.256   0.100E-07
     TRS4 it   7 1.00000000   0.420E-03       0.001       32.256   0.100E-07
     TRS4 it   8 1.00000000   0.654E-06       0.001       32.256   0.100E-07
     TRS4 it   9 1.00000000   0.188E-11       0.001       32.256   0.100E-07
     Final TRS4 iteration    9 1.00000000   0.188E-11
     Chemical potential (mu):      -0.00018
 
 PAO| energy:  -7.8093119879132207      penalty:   1.3948014723463794E-005
 PAO|CG| trace_G_new    3.6742400875515946E-002
 PAO|CG| trace_G_prev   0.17342959064822447     
 PAO|CG| trace_G_mix   -1.4243690438332061E-003
 PAO|CG| trace_D   0.17342959064822447     
 PAO|CG| trace_D_Gnew   1.4243690438332061E-003
 PAO|CG| beta:   0.22007069137794738     
 PAO| norm of gradient:  0.19168307404545645     
 PAO| energy improvement:  -1.9723425095089731E-002
 PAO| step      9                   -7.809311988  0.120E-01  0.230E+00     0.058
 PAO|LS| adapt:  T F F
 PAO|LS| adapt: scan_steps:    0.0000000000000000        0.0000000000000000        0.0000000000000000     
 PAO|LS| adapt: energies:   -7.8093119879132207        0.0000000000000000        0.0000000000000000     
 PAO| ======================= Iteration:        10 =============================

     Lanczos converged:  T threshold:   0.100E-02
     Est. extremal eigenvalues:    0.282E+01   0.171E+00
     Est. condition number :    0.165E+02

 Order=           3
     NS sqrt iter    1 1.00000000   0.716E+00       0.001       58.763
     NS sqrt iter    2 1.00000000   0.341E+00       0.001      100.154
     NS sqrt iter    3 1.00000000   0.830E-01       0.001      100.751
     NS sqrt iter    4 1.00000000   0.255E-02       0.001      100.009
     NS sqrt iter    5 1.00000000   0.152E-06       0.001       73.127
     Symmetrizing Results
     Final NS sqrt iter    5 1.00000000   0.954E-09

     Est. extremal eigenvalues     -0.93823     1.75006  converged:  T
     TRS4 it   1 1.00000000   0.890E+00       0.000       16.128   0.100E-07
     TRS4 it   2 1.00000000   0.635E+00       0.001       32.256   0.100E-07
     TRS4 it   3 1.00000000   0.437E+00       0.001       32.256   0.100E-07
     TRS4 it   4 1.00000000   0.230E+00       0.001       32.256   0.100E-07
     TRS4 it   5 1.00000000   0.794E-01       0.001       32.256   0.100E-07
     TRS4 it   6 1.00000000   0.119E-01       0.001       32.256   0.100E-07
     TRS4 it   7 1.00000000   0.362E-03       0.001       32.256   0.100E-07
     TRS4 it   8 1.00000000   0.473E-06       0.001       32.256   0.100E-07
     TRS4 it   9 1.00000000   0.976E-12       0.001       32.256   0.100E-07
     Final TRS4 iteration    9 1.00000000   0.976E-12
     Chemical potential (mu):       0.00297
 
 PAO| energy:  -7.8143220890803633      penalty:   1.4484620516704064E-005
 PAO|LS| adapt:  T T F
 PAO|LS| adapt: scan_steps:    0.0000000000000000       0.22971301596794158        0.0000000000000000     
 PAO|LS| adapt: energies:   -7.8093119879132207       -7.8143220890803633        0.0000000000000000     
 PAO| ======================= Iteration:        11 =============================

     Lanczos converged:  T threshold:   0.100E-02
     Est. extremal eigenvalues:    0.278E+01   0.177E+00
     Est. condition number :    0.158E+02

 Order=           3
     NS sqrt iter    1 1.00000000   0.709E+00       0.001       58.710
     NS sqrt iter    2 1.00000000   0.332E+00       0.001      100.563
     NS sqrt iter    3 1.00000000   0.776E-01       0.001      101.822
     NS sqrt iter    4 1.00000000   0.209E-02       0.001       99.561
     NS sqrt iter    5 1.00000000   0.828E-07       0.001       71.488
     Symmetrizing Results
     Final NS sqrt iter    5 1.00000000   0.731E-09

     Est. extremal eigenvalues     -0.93813     1.74129  converged:  T
     TRS4 it   1 1.00000000   0.887E+00       0.000       16.128   0.100E-07
     TRS4 it   2 1.00000000   0.632E+00       0.001       32.256   0.100E-07
     TRS4 it   3 1.00000000   0.434E+00       0.001       32.256   0.100E-07
     TRS4 it   4 1.00000000   0.227E+00       0.001       32.256   0.100E-07
     TRS4 it   5 1.00000000   0.768E-01       0.001       32.256   0.100E-07
     TRS4 it   6 1.00000000   0.111E-01       0.001       32.256   0.100E-07
     TRS4 it   7 1.00000000   0.309E-03       0.001       32.256   0.100E-07
     TRS4 it   8 1.00000000   0.336E-06       0.001       32.256   0.100E-07
     TRS4 it   9 1.00000000   0.485E-12       0.001       32.256   0.100E-07
     Final TRS4 iteration    9 1.00000000   0.485E-12
     Chemical potential (mu):       0.00624
 
 PAO| energy:  -7.8128612169916538      penalty:   1.5688347135970274E-005
 PAO|LS| adapt:  T T T
 PAO|LS| adapt: scan_steps:    0.0000000000000000       0.22971301596794158       0.45942603193588316     
 PAO|LS| adapt: energies:   -7.8093119879132207       -7.8143220890803633       -7.8128612169916538     
 PAO|LS| adapt: suggested step_size:   0.29271004004238538     
 PAO|LS| adapt: predicted energy  -7.8145654262599713     
 PAO| ======================= Iteration:        12 =============================

     Lanczos converged:  T threshold:   0.100E-02
     Est. extremal eigenvalues:    0.281E+01   0.172E+00
     Est. condition number :    0.163E+02

 Order=           3
     NS sqrt iter    1 1.00000000   0.714E+00       0.001       58.920
     NS sqrt iter    2 1.00000000   0.338E+00       0.001      100.033
     NS sqrt iter    3 1.00000000   0.815E-01       0.001       99.406
     NS sqrt iter    4 1.00000000   0.241E-02       0.001       96.014
     NS sqrt iter    5 1.00000000   0.129E-06       0.001       73.974
     Symmetrizing Results
     Final NS sqrt iter    5 1.00000000   0.900E-09

     Est. extremal eigenvalues     -0.93830     1.74756  converged:  T
     TRS4 it   1 1.00000000   0.889E+00       0.000       16.128   0.100E-07
     TRS4 it   2 1.00000000   0.634E+00       0.001       32.256   0.100E-07
     TRS4 it   3 1.00000000   0.436E+00       0.001       32.256   0.100E-07
     TRS4 it   4 1.00000000   0.229E+00       0.001       32.256   0.100E-07
     TRS4 it   5 1.00000000   0.787E-01       0.001       32.256   0.100E-07
     TRS4 it   6 1.00000000   0.117E-01       0.001       32.256   0.100E-07
     TRS4 it   7 1.00000000   0.346E-03       0.001       32.256   0.100E-07
     TRS4 it   8 1.00000000   0.432E-06       0.001       32.256   0.100E-07
     TRS4 it   9 1.00000000   0.808E-12       0.001       32.256   0.100E-07
     Final TRS4 iteration    9 1.00000000   0.808E-12
     Chemical potential (mu):       0.00385
 
 PAO| energy:  -7.8145494571577148      penalty:   1.4740821415763915E-005
 PAO|CG| trace_G_new    1.1757240143700417E-002
 PAO|CG| trace_G_prev    3.6742400875515946E-002
 PAO|CG| trace_G_mix   -4.6576536932173545E-004
 PAO|CG| trace_D    4.4514864558822739E-002
 PAO|CG| trace_D_Gnew   2.1345551578761030E-004
 PAO|CG| beta:   0.33266757810503345     
 PAO| norm of gradient:  0.10843080809299734     
 PAO| energy improvement:  -5.2374692444940862E-003
 PAO| step     12                   -7.814549457  0.678E-02  0.293E+00     0.058
 PAO|LS| adapt:  T F F
 PAO|LS| adapt: scan_steps:    0.0000000000000000        0.0000000000000000        0.0000000000000000     
 PAO|LS| adapt: energies:   -7.8145494571577148        0.0000000000000000        0.0000000000000000     
 PAO| ======================= Iteration:        13 =============================

     Lanczos converged:  T threshold:   0.100E-02
     Est. extremal eigenvalues:    0.278E+01   0.176E+00
     Est. condition number :    0.157E+02

 Order=           3
     NS sqrt iter    1 1.00000000   0.707E+00       0.001       58.372
     NS sqrt iter    2 1.00000000   0.331E+00       0.001      100.757
     NS sqrt iter    3 1.00000000   0.772E-01       0.001      102.079
     NS sqrt iter    4 1.00000000   0.206E-02       0.001       99.856
     NS sqrt iter    5 1.00000000   0.814E-07       0.001       70.979
     Symmetrizing Results
     Final NS sqrt iter    5 1.00000000   0.722E-09

     Est. extremal eigenvalues     -0.93878     1.73896  converged:  T
     TRS4 it   1 1.00000000   0.888E+00       0.000       16.128   0.100E-07
     TRS4 it   2 1.00000000   0.631E+00       0.001       32.256   0.100E-07
     TRS4 it   3 1.00000000   0.432E+00       0.001       32.256   0.100E-07
     TRS4 it   4 1.00000000   0.224E+00       0.001       32.256   0.100E-07
     TRS4 it   5 1.00000000   0.749E-01       0.001       32.256   0.100E-07
     TRS4 it   6 1.00000000   0.105E-01       0.001       32.256   0.100E-07
     TRS4 it   7 1.00000000   0.278E-03       0.001       32.256   0.100E-07
     TRS4 it   8 1.00000000   0.271E-06       0.001       32.256   0.100E-07
     TRS4 it   9 1.00000000   0.315E-12       0.001       32.256   0.100E-07
     Final TRS4 iteration    9 1.00000000   0.315E-12
     Chemical potential (mu):       0.00836
 
 PAO| energy:  -7.8166035167140384      penalty:   1.5040294574280873E-005
 PAO|LS| adapt:  T T F
 PAO|LS| adapt: scan_steps:    0.0000000000000000       0.29271004004238538        0.0000000000000000     
 PAO|LS| adapt: energies:   -7.8145494571577148       -7.8166035167140384        0.0000000000000000     
 PAO| ======================= Iteration:        14 =============================

     Lanczos converged:  T threshold:   0.100E-02
     Est. extremal eigenvalues:    0.274E+01   0.180E+00
     Est. condition number :    0.152E+02

 Order=           3
     NS sqrt iter    1 1.00000000   0.700E+00       0.001       59.717
     NS sqrt iter    2 1.00000000   0.324E+00       0.001      100.540
     NS sqrt iter    3 1.00000000   0.731E-01       0.001      101.683
     NS sqrt iter    4 1.00000000   0.176E-02       0.001       98.910
     NS sqrt iter    5 1.00000000   0.511E-07       0.001       67.540
     Symmetrizing Results
     Final NS sqrt iter    5 1.00000000   0.402E-09

     Est. extremal eigenvalues     -0.93876     1.73067  converged:  T
     TRS4 it   1 1.00000000   0.886E+00       0.000       16.128   0.100E-07
     TRS4 it   2 1.00000000   0.627E+00       0.001       32.256   0.100E-07
     TRS4 it   3 1.00000000   0.428E+00       0.001       32.256   0.100E-07
     TRS4 it   4 1.00000000   0.219E+00       0.001       32.256   0.100E-07
     TRS4 it   5 1.00000000   0.713E-01       0.001       32.256   0.100E-07
     TRS4 it   6 1.00000000   0.949E-02       0.001       32.256   0.100E-07
     TRS4 it   7 1.00000000   0.223E-03       0.001       32.256   0.100E-07
     TRS4 it   8 1.00000000   0.170E-06       0.001       32.256   0.100E-07
     TRS4 it   9 1.00000000   0.121E-12       0.001       32.256   0.100E-07
     Final TRS4 iteration    9 1.00000000   0.121E-12
     Chemical potential (mu):       0.01278
 
 PAO| energy:  -7.8159738206633431      penalty:   1.5811973229609161E-005
 PAO|LS| adapt:  T T T
 PAO|LS| adapt: scan_steps:    0.0000000000000000       0.29271004004238538       0.58542008008477076     
 PAO|LS| adapt: energies:   -7.8145494571577148       -7.8166035167140384       -7.8159738206633431     
 PAO|LS| adapt: suggested step_size:   0.37038579741704808     
 PAO|LS| adapt: predicted energy  -7.8166980116910985     
 PAO| ======================= Iteration:        15 =============================

     Lanczos converged:  T threshold:   0.100E-02
     Est. extremal eigenvalues:    0.277E+01   0.177E+00
     Est. condition number :    0.156E+02

 Order=           3
     NS sqrt iter    1 1.00000000   0.705E+00       0.001       58.685
     NS sqrt iter    2 1.00000000   0.329E+00       0.001       99.446
     NS sqrt iter    3 1.00000000   0.761E-01       0.001       98.397
     NS sqrt iter    4 1.00000000   0.198E-02       0.001       99.594
     NS sqrt iter    5 1.00000000   0.719E-07       0.001       70.770
     Symmetrizing Results
     Final NS sqrt iter    5 1.00000000   0.647E-09

     Est. extremal eigenvalues     -0.93882     1.73673  converged:  T
     TRS4 it   1 1.00000000   0.887E+00       0.000       16.128   0.100E-07
     TRS4 it   2 1.00000000   0.630E+00       0.001       32.256   0.100E-07
     TRS4 it   3 1.00000000   0.431E+00       0.001       32.256   0.100E-07
     TRS4 it   4 1.00000000   0.223E+00       0.001       32.256   0.100E-07
     TRS4 it   5 1.00000000   0.740E-01       0.001       32.256   0.100E-07
     TRS4 it   6 1.00000000   0.102E-01       0.001       32.256   0.100E-07
     TRS4 it   7 1.00000000   0.262E-03       0.001       32.256   0.100E-07
     TRS4 it   8 1.00000000   0.240E-06       0.001       32.256   0.100E-07
     TRS4 it   9 1.00000000   0.244E-12       0.001       32.256   0.100E-07
     Final TRS4 iteration    9 1.00000000   0.244E-12
     Chemical potential (mu):       0.00954
 
 PAO| energy:  -7.8166949360614213      penalty:   1.5196004926206717E-005
 PAO|CG| trace_G_new    2.6037761520565869E-003
 PAO|CG| trace_G_prev    1.1757240143700417E-002
 PAO|CG| trace_G_mix    6.4917676556700856E-005
 PAO|CG| trace_D    1.6541579141297804E-002
 PAO|CG| trace_D_Gnew   3.3692139906232313E-005
 PAO|CG| beta:   0.21594000330598148     
 PAO| norm of gradient:   5.1027209918401248E-002
 PAO| energy improvement:  -2.1454789037065325E-003
 PAO| step     15                   -7.816694936  0.319E-02  0.370E+00     0.057
 PAO|LS| adapt:  T F F
 PAO|LS| adapt: scan_steps:    0.0000000000000000        0.0000000000000000        0.0000000000000000     
 PAO|LS| adapt: energies:   -7.8166949360614213        0.0000000000000000        0.0000000000000000     
 PAO| ======================= Iteration:        16 =============================

     Lanczos converged:  T threshold:   0.100E-02
     Est. extremal eigenvalues:    0.276E+01   0.178E+00
     Est. condition number :    0.155E+02

 Order=           3
     NS sqrt iter    1 1.00000000   0.703E+00       0.001       59.025
     NS sqrt iter    2 1.00000000   0.328E+00       0.001       99.510
     NS sqrt iter    3 1.00000000   0.754E-01       0.001      102.300
     NS sqrt iter    4 1.00000000   0.192E-02       0.001       99.137
     NS sqrt iter    5 1.00000000   0.663E-07       0.001       70.600
     Symmetrizing Results
     Final NS sqrt iter    5 1.00000000   0.624E-09

     Est. extremal eigenvalues     -0.93885     1.73572  converged:  T
     TRS4 it   1 1.00000000   0.887E+00       0.000       16.128   0.100E-07
     TRS4 it   2 1.00000000   0.629E+00       0.001       32.256   0.100E-07
     TRS4 it   3 1.00000000   0.430E+00       0.001       32.256   0.100E-07
     TRS4 it   4 1.00000000   0.221E+00       0.001       32.256   0.100E-07
     TRS4 it   5 1.00000000   0.728E-01       0.001       32.256   0.100E-07
     TRS4 it   6 1.00000000   0.993E-02       0.001       32.256   0.100E-07
     TRS4 it   7 1.00000000   0.248E-03       0.001       32.256   0.100E-07
     TRS4 it   8 1.00000000   0.216E-06       0.001       32.256   0.100E-07
     TRS4 it   9 1.00000000   0.199E-12       0.001       32.256   0.100E-07
     Final TRS4 iteration    9 1.00000000   0.199E-12
     Chemical potential (mu):       0.01034
 
 PAO| energy:  -7.8168201964464341      penalty:   1.4975429093865745E-005
 PAO|LS| adapt:  T T F
 PAO|LS| adapt: scan_steps:    0.0000000000000000       0.37038579741704808        0.0000000000000000     
 PAO|LS| adapt: energies:   -7.8166949360614213       -7.8168201964464341        0.0000000000000000     
 PAO| ======================= Iteration:        17 =============================

     Lanczos converged:  T threshold:   0.100E-02
     Est. extremal eigenvalues:    0.275E+01   0.179E+00
     Est. condition number :    0.154E+02

 Order=           3
     NS sqrt iter    1 1.00000000   0.702E+00       0.001       58.467
     NS sqrt iter    2 1.00000000   0.327E+00       0.001       98.231
     NS sqrt iter    3 1.00000000   0.747E-01       0.001      101.821
     NS sqrt iter    4 1.00000000   0.187E-02       0.001      100.130
     NS sqrt iter    5 1.00000000   0.613E-07       0.001       69.590
     Symmetrizing Results
     Final NS sqrt iter    5 1.00000000   0.624E-09

     Est. extremal eigenvalues     -0.93876     1.73477  converged:  T
     TRS4 it   1 1.00000000   0.888E+00       0.000       16.128   0.100E-07
     TRS4 it   2 1.00000000   0.628E+00       0.001       32.256   0.100E-07
     TRS4 it   3 1.00000000   0.429E+00       0.001       32.256   0.100E-07
     TRS4 it   4 1.00000000   0.220E+00       0.001       32.256   0.100E-07
     TRS4 it   5 1.00000000   0.716E-01       0.001       32.256   0.100E-07
     TRS4 it   6 1.00000000   0.962E-02       0.001       32.256   0.100E-07
     TRS4 it   7 1.00000000   0.234E-03       0.001       32.256   0.100E-07
     TRS4 it   8 1.00000000   0.194E-06       0.001       32.256   0.100E-07
     TRS4 it   9 1.00000000   0.163E-12       0.001       32.256   0.100E-07
     Final TRS4 iteration    9 1.00000000   0.163E-12
     Chemical potential (mu):       0.01112
 
 PAO| energy:  -7.8152672814421447      penalty:   1.4879767406371243E-005
 PAO|LS| adapt:  T T T
 PAO|LS| adapt: scan_steps:    0.0000000000000000       0.37038579741704808       0.74077159483409616     
 PAO|LS| adapt: energies:   -7.8166949360614213       -7.8168201964464341       -7.8152672814421447     
 PAO|LS| adapt: suggested step_size:   0.21283879786989104     
 PAO|LS| adapt: predicted energy  -7.8169720129464357     
 PAO| ======================= Iteration:        18 =============================

     Lanczos converged:  T threshold:   0.100E-02
     Est. extremal eigenvalues:    0.276E+01   0.178E+00
     Est. condition number :    0.155E+02

 Order=           3
     NS sqrt iter    1 1.00000000   0.704E+00       0.001       58.739
     NS sqrt iter    2 1.00000000   0.329E+00       0.001       99.268
     NS sqrt iter    3 1.00000000   0.757E-01       0.001       99.900
     NS sqrt iter    4 1.00000000   0.195E-02       0.001       99.572
     NS sqrt iter    5 1.00000000   0.686E-07       0.001       70.092
     Symmetrizing Results
     Final NS sqrt iter    5 1.00000000   0.642E-09

     Est. extremal eigenvalues     -0.93886     1.73615  converged:  T
     TRS4 it   1 1.00000000   0.887E+00       0.000       16.128   0.100E-07
     TRS4 it   2 1.00000000   0.629E+00       0.001       32.256   0.100E-07
     TRS4 it   3 1.00000000   0.430E+00       0.001       32.256   0.100E-07
     TRS4 it   4 1.00000000   0.222E+00       0.001       32.256   0.100E-07
     TRS4 it   5 1.00000000   0.733E-01       0.001       32.256   0.100E-07
     TRS4 it   6 1.00000000   0.101E-01       0.001       32.256   0.100E-07
     TRS4 it   7 1.00000000   0.254E-03       0.001       32.256   0.100E-07
     TRS4 it   8 1.00000000   0.226E-06       0.001       32.256   0.100E-07
     TRS4 it   9 1.00000000   0.218E-12       0.001       32.256   0.100E-07
     Final TRS4 iteration    9 1.00000000   0.218E-12
     Chemical potential (mu):       0.01000
 
 PAO| energy:  -7.8169715794703221      penalty:   1.5054264049272407E-005
 PAO|CG| trace_G_new    7.1894970073703467E-004
 PAO|CG| trace_G_prev    2.6037761520565869E-003
 PAO|CG| trace_G_mix    1.2073018614620037E-006
 PAO|CG| trace_D    3.3605604323037009E-003
 PAO|CG| trace_D_Gnew  -1.6600438342226314E-006
 PAO|CG| beta:   0.27565441764595067     
 PAO| norm of gradient:   2.6813237416191179E-002
 PAO| energy improvement:  -2.7664340890076744E-004
 PAO| step     18                   -7.816971579  0.168E-02  0.213E+00     0.058
 PAO|LS| adapt:  T F F
 PAO|LS| adapt: scan_steps:    0.0000000000000000        0.0000000000000000        0.0000000000000000     
 PAO|LS| adapt: energies:   -7.8169715794703221        0.0000000000000000        0.0000000000000000     
 PAO| ======================= Iteration:        19 =============================

     Lanczos converged:  T threshold:   0.100E-02
     Est. extremal eigenvalues:    0.276E+01   0.178E+00
     Est. condition number :    0.156E+02

 Order=           3
     NS sqrt iter    1 1.00000000   0.704E+00       0.001       58.560
     NS sqrt iter    2 1.00000000   0.329E+00       0.001       98.561
     NS sqrt iter    3 1.00000000   0.759E-01       0.001      102.201
     NS sqrt iter    4 1.00000000   0.196E-02       0.001       99.099
     NS sqrt iter    5 1.00000000   0.696E-07       0.001       70.719
     Symmetrizing Results
     Final NS sqrt iter    5 1.00000000   0.652E-09

     Est. extremal eigenvalues     -0.93886     1.73634  converged:  T
     TRS4 it   1 1.00000000   0.887E+00       0.000       16.128   0.100E-07
     TRS4 it   2 1.00000000   0.629E+00       0.001       32.256   0.100E-07
     TRS4 it   3 1.00000000   0.430E+00       0.001       32.256   0.100E-07
     TRS4 it   4 1.00000000   0.222E+00       0.001       32.256   0.100E-07
     TRS4 it   5 1.00000000   0.732E-01       0.001       32.256   0.100E-07
     TRS4 it   6 1.00000000   0.101E-01       0.001       32.256   0.100E-07
     TRS4 it   7 1.00000000   0.255E-03       0.001       32.256   0.100E-07
     TRS4 it   8 1.00000000   0.229E-06       0.001       32.256   0.100E-07
     TRS4 it   9 1.00000000   0.227E-12       0.001       32.256   0.100E-07
     Final TRS4 iteration    9 1.00000000   0.227E-12
     Chemical potential (mu):       0.00969
 
 PAO| energy:  -7.8170882825256420      penalty:   1.4765509596387439E-005
 PAO|LS| adapt:  T T F
 PAO|LS| adapt: scan_steps:    0.0000000000000000       0.21283879786989104        0.0000000000000000     
 PAO|LS| adapt: energies:   -7.8169715794703221       -7.8170882825256420        0.0000000000000000     
 PAO| ======================= Iteration:        20 =============================

     Lanczos converged:  T threshold:   0.100E-02
     Est. extremal eigenvalues:    0.276E+01   0.177E+00
     Est. condition number :    0.156E+02

 Order=           3
     NS sqrt iter    1 1.00000000   0.704E+00       0.001       58.266
     NS sqrt iter    2 1.00000000   0.329E+00       0.001       99.204
     NS sqrt iter    3 1.00000000   0.761E-01       0.001      101.963
     NS sqrt iter    4 1.00000000   0.197E-02       0.001       99.286
     NS sqrt iter    5 1.00000000   0.707E-07       0.001       70.093
     Symmetrizing Results
     Final NS sqrt iter    5 1.00000000   0.666E-09

     Est. extremal eigenvalues     -0.93885     1.73654  converged:  T
     TRS4 it   1 1.00000000   0.887E+00       0.000       16.128   0.100E-07
     TRS4 it   2 1.00000000   0.629E+00       0.001       32.256   0.100E-07
     TRS4 it   3 1.00000000   0.430E+00       0.001       32.256   0.100E-07
     TRS4 it   4 1.00000000   0.222E+00       0.001       32.256   0.100E-07
     TRS4 it   5 1.00000000   0.731E-01       0.001       32.256   0.100E-07
     TRS4 it   6 1.00000000   0.100E-01       0.001       32.256   0.100E-07
     TRS4 it   7 1.00000000   0.256E-03       0.001       32.256   0.100E-07
     TRS4 it   8 1.00000000   0.233E-06       0.001       32.256   0.100E-07
     TRS4 it   9 1.00000000   0.235E-12       0.001       32.256   0.100E-07
     Final TRS4 iteration    9 1.00000000   0.235E-12
     Chemical potential (mu):       0.00938
 
 PAO| energy:  -7.8171317783070799      penalty:   1.4489141178292115E-005
 PAO|LS| adapt:  T T F
 PAO|LS| adapt: scan_steps:    0.0000000000000000       0.42567759573978209        0.0000000000000000     
 PAO|LS| adapt: energies:   -7.8169715794703221       -7.8171317783070799        0.0000000000000000     
 PAO| ======================= Iteration:        21 =============================

     Lanczos converged:  T threshold:   0.100E-02
     Est. extremal eigenvalues:    0.276E+01   0.177E+00
     Est. condition number :    0.156E+02

 Order=           3
     NS sqrt iter    1 1.00000000   0.704E+00       0.001       58.776
     NS sqrt iter    2 1.00000000   0.330E+00       0.001       98.503
     NS sqrt iter    3 1.00000000   0.765E-01       0.001      101.160
     NS sqrt iter    4 1.00000000   0.199E-02       0.001       99.773
     NS sqrt iter    5 1.00000000   0.730E-07       0.001       71.279
     Symmetrizing Results
     Final NS sqrt iter    5 1.00000000   0.677E-09

     Est. extremal eigenvalues     -0.93885     1.73694  converged:  T
     TRS4 it   1 1.00000000   0.887E+00       0.000       16.128   0.100E-07
     TRS4 it   2 1.00000000   0.629E+00       0.001       32.256   0.100E-07
     TRS4 it   3 1.00000000   0.430E+00       0.001       32.256   0.100E-07
     TRS4 it   4 1.00000000   0.221E+00       0.001       32.256   0.100E-07
     TRS4 it   5 1.00000000   0.729E-01       0.001       32.256   0.100E-07
     TRS4 it   6 1.00000000   0.100E-01       0.001       32.256   0.100E-07
     TRS4 it   7 1.00000000   0.258E-03       0.001       32.256   0.100E-07
     TRS4 it   8 1.00000000   0.241E-06       0.001       32.256   0.100E-07
     TRS4 it   9 1.00000000   0.254E-12       0.001       32.256   0.100E-07
     Final TRS4 iteration    9 1.00000000   0.254E-12
     Chemical potential (mu):       0.00877
 
 PAO| energy:  -7.8169968747944187      penalty:   1.3972973967314268E-005
 PAO|LS| Need extra step
 PAO|LS| adapt:  T T T
 PAO|LS| adapt: scan_steps:    0.0000000000000000       0.42567759573978209       0.85135519147956418     
 PAO|LS| adapt: energies:   -7.8169715794703221       -7.8171317783070799       -7.8169968747944187     
 PAO|LS| adapt: suggested step_size:   0.44392152494964277     
 PAO|LS| adapt: predicted energy  -7.8171320493373777     
 PAO| ======================= Iteration:        22 =============================

     Lanczos converged:  T threshold:   0.100E-02
     Est. extremal eigenvalues:    0.276E+01   0.177E+00
     Est. condition number :    0.156E+02

 Order=           3
     NS sqrt iter    1 1.00000000   0.704E+00       0.001       59.023
     NS sqrt iter    2 1.00000000   0.329E+00       0.001       98.522
     NS sqrt iter    3 1.00000000   0.761E-01       0.001       99.780
     NS sqrt iter    4 1.00000000   0.197E-02       0.001       99.603
     NS sqrt iter    5 1.00000000   0.708E-07       0.001       70.496
     Symmetrizing Results
     Final NS sqrt iter    5 1.00000000   0.668E-09

     Est. extremal eigenvalues     -0.93885     1.73655  converged:  T
     TRS4 it   1 1.00000000   0.887E+00       0.000       16.128   0.100E-07
     TRS4 it   2 1.00000000   0.629E+00       0.001       32.256   0.100E-07
     TRS4 it   3 1.00000000   0.430E+00       0.001       32.256   0.100E-07
     TRS4 it   4 1.00000000   0.222E+00       0.001       32.256   0.100E-07
     TRS4 it   5 1.00000000   0.731E-01       0.001       32.256   0.100E-07
     TRS4 it   6 1.00000000   0.100E-01       0.001       32.256   0.100E-07
     TRS4 it   7 1.00000000   0.256E-03       0.001       32.256   0.100E-07
     TRS4 it   8 1.00000000   0.234E-06       0.001       32.256   0.100E-07
     TRS4 it   9 1.00000000   0.235E-12       0.001       32.256   0.100E-07
     Final TRS4 iteration    9 1.00000000   0.235E-12
     Chemical potential (mu):       0.00936
 
 PAO| energy:  -7.8171320817671601      penalty:   1.4466022250853925E-005
 PAO|CG| trace_G_new    2.1842592620447193E-004
 PAO|CG| trace_G_prev    7.1894970073703467E-004
 PAO|CG| trace_G_mix    2.7872869878868392E-006
 PAO|CG| trace_D    9.7521828499059365E-004
 PAO|CG| trace_D_Gnew  -1.7713392420647253E-006
 PAO|CG| beta:   0.29993564083206670     
 PAO| norm of gradient:   1.4779239703194206E-002
 PAO| energy improvement:  -1.6050229683806094E-004
 PAO| step     22                   -7.817132082  0.924E-03  0.444E+00     0.075
 PAO|LS| adapt:  T F F
 PAO|LS| adapt: scan_steps:    0.0000000000000000        0.0000000000000000        0.0000000000000000     
 PAO|LS| adapt: energies:   -7.8171320817671601        0.0000000000000000        0.0000000000000000     
 PAO| ======================= Iteration:        23 =============================

     Lanczos converged:  T threshold:   0.100E-02
     Est. extremal eigenvalues:    0.276E+01   0.177E+00
     Est. condition number :    0.156E+02

 Order=           3
     NS sqrt iter    1 1.00000000   0.704E+00       0.001       58.783
     NS sqrt iter    2 1.00000000   0.329E+00       0.001       99.591
     NS sqrt iter    3 1.00000000   0.762E-01       0.001      101.962
     NS sqrt iter    4 1.00000000   0.197E-02       0.001      100.229
     NS sqrt iter    5 1.00000000   0.706E-07       0.001       71.159
     Symmetrizing Results
     Final NS sqrt iter    5 1.00000000   0.670E-09

     Est. extremal eigenvalues     -0.93885     1.73614  converged:  T
     TRS4 it   1 1.00000000   0.887E+00       0.000       16.128   0.100E-07
     TRS4 it   2 1.00000000   0.629E+00       0.001       32.256   0.100E-07
     TRS4 it   3 1.00000000   0.430E+00       0.001       32.256   0.100E-07
     TRS4 it   4 1.00000000   0.222E+00       0.001       32.256   0.100E-07
     TRS4 it   5 1.00000000   0.732E-01       0.001       32.256   0.100E-07
     TRS4 it   6 1.00000000   0.101E-01       0.001       32.256   0.100E-07
     TRS4 it   7 1.00000000   0.259E-03       0.001       32.256   0.100E-07
     TRS4 it   8 1.00000000   0.240E-06       0.001       32.256   0.100E-07
     TRS4 it   9 1.00000000   0.249E-12       0.001       32.256   0.100E-07
     Final TRS4 iteration    9 1.00000000   0.249E-12
     Chemical potential (mu):       0.00899
 
 PAO| energy:  -7.8171807665171951      penalty:   1.3787974525762715E-005
 PAO|LS| adapt:  T T F
 PAO|LS| adapt: scan_steps:    0.0000000000000000       0.44392152494964277        0.0000000000000000     
 PAO|LS| adapt: energies:   -7.8171320817671601       -7.8171807665171951        0.0000000000000000     
 PAO| ======================= Iteration:        24 =============================

     Lanczos converged:  T threshold:   0.100E-02
     Est. extremal eigenvalues:    0.276E+01   0.177E+00
     Est. condition number :    0.156E+02

 Order=           3
     NS sqrt iter    1 1.00000000   0.704E+00       0.001       58.616
     NS sqrt iter    2 1.00000000   0.329E+00       0.001       98.987
     NS sqrt iter    3 1.00000000   0.762E-01       0.001      102.996
     NS sqrt iter    4 1.00000000   0.197E-02       0.001       99.299
     NS sqrt iter    5 1.00000000   0.706E-07       0.001       70.281
     Symmetrizing Results
     Final NS sqrt iter    5 1.00000000   0.673E-09

     Est. extremal eigenvalues     -0.93885     1.73573  converged:  T
     TRS4 it   1 1.00000000   0.887E+00       0.000       16.128   0.100E-07
     TRS4 it   2 1.00000000   0.629E+00       0.001       32.256   0.100E-07
     TRS4 it   3 1.00000000   0.430E+00       0.001       32.256   0.100E-07
     TRS4 it   4 1.00000000   0.222E+00       0.001       32.256   0.100E-07
     TRS4 it   5 1.00000000   0.733E-01       0.001       32.256   0.100E-07
     TRS4 it   6 1.00000000   0.101E-01       0.001       32.256   0.100E-07
     TRS4 it   7 1.00000000   0.262E-03       0.001       32.256   0.100E-07
     TRS4 it   8 1.00000000   0.246E-06       0.001       32.256   0.100E-07
     TRS4 it   9 1.00000000   0.264E-12       0.001       32.256   0.100E-07
     Final TRS4 iteration    9 1.00000000   0.264E-12
     Chemical potential (mu):       0.00862
 
 PAO| energy:  -7.8171318273630863      penalty:   1.3137962995958834E-005
 PAO|LS| adapt:  T T T
 PAO|LS| adapt: scan_steps:    0.0000000000000000       0.44392152494964277       0.88784304989928553     
 PAO|LS| adapt: energies:   -7.8171320817671601       -7.8171807665171951       -7.8171318273630863     
 PAO|LS| adapt: suggested step_size:   0.44334310388879439     
 PAO|LS| adapt: predicted energy  -7.8171807666000666     
 PAO| ======================= Iteration:        25 =============================

     Lanczos converged:  T threshold:   0.100E-02
     Est. extremal eigenvalues:    0.276E+01   0.177E+00
     Est. condition number :    0.156E+02

 Order=           3
     NS sqrt iter    1 1.00000000   0.704E+00       0.001       58.753
     NS sqrt iter    2 1.00000000   0.329E+00       0.001       98.297
     NS sqrt iter    3 1.00000000   0.762E-01       0.001       99.393
     NS sqrt iter    4 1.00000000   0.197E-02       0.001       98.331
     NS sqrt iter    5 1.00000000   0.706E-07       0.001       70.667
     Symmetrizing Results
     Final NS sqrt iter    5 1.00000000   0.670E-09

     Est. extremal eigenvalues     -0.93885     1.73614  converged:  T
     TRS4 it   1 1.00000000   0.887E+00       0.000       16.128   0.100E-07
     TRS4 it   2 1.00000000   0.629E+00       0.001       32.256   0.100E-07
     TRS4 it   3 1.00000000   0.430E+00       0.001       32.256   0.100E-07
     TRS4 it   4 1.00000000   0.222E+00       0.001       32.256   0.100E-07
     TRS4 it   5 1.00000000   0.732E-01       0.001       32.256   0.100E-07
     TRS4 it   6 1.00000000   0.101E-01       0.001       32.256   0.100E-07
     TRS4 it   7 1.00000000   0.259E-03       0.001       32.256   0.100E-07
     TRS4 it   8 1.00000000   0.240E-06       0.001       32.256   0.100E-07
     TRS4 it   9 1.00000000   0.249E-12       0.001       32.256   0.100E-07
     Final TRS4 iteration    9 1.00000000   0.249E-12
     Chemical potential (mu):       0.00899
 
 PAO| energy:  -7.8171807664066231      penalty:   1.3788839634299051E-005
 PAO|CG| trace_G_new    7.7394363983713556E-005
 PAO|CG| trace_G_prev    2.1842592620447193E-004
 PAO|CG| trace_G_mix    6.4577244849540821E-007
 PAO|CG| trace_D    3.0722049289205359E-004
 PAO|CG| trace_D_Gnew  -3.3454169848943194E-007
 PAO|CG| beta:   0.35137125371908734     
 PAO| norm of gradient:   8.7974066624041860E-003
 PAO| energy improvement:  -4.8684639462948098E-005
 PAO| step     25                   -7.817180766  0.550E-03  0.443E+00     0.058
 PAO|LS| adapt:  T F F
 PAO|LS| adapt: scan_steps:    0.0000000000000000        0.0000000000000000        0.0000000000000000     
 PAO|LS| adapt: energies:   -7.8171807664066231        0.0000000000000000        0.0000000000000000     
 PAO| ======================= Iteration:        26 =============================

     Lanczos converged:  T threshold:   0.100E-02
     Est. extremal eigenvalues:    0.276E+01   0.178E+00
     Est. condition number :    0.155E+02

 Order=           3
     NS sqrt iter    1 1.00000000   0.704E+00       0.001       58.208
     NS sqrt iter    2 1.00000000   0.329E+00       0.001       98.008
     NS sqrt iter    3 1.00000000   0.760E-01       0.001      102.009
     NS sqrt iter    4 1.00000000   0.196E-02       0.001       99.242
     NS sqrt iter    5 1.00000000   0.695E-07       0.001       70.174
     Symmetrizing Results
     Final NS sqrt iter    5 1.00000000   0.660E-09

     Est. extremal eigenvalues     -0.93886     1.73543  converged:  T
     TRS4 it   1 1.00000000   0.887E+00       0.000       16.128   0.100E-07
     TRS4 it   2 1.00000000   0.629E+00       0.001       32.256   0.100E-07
     TRS4 it   3 1.00000000   0.430E+00       0.001       32.256   0.100E-07
     TRS4 it   4 1.00000000   0.222E+00       0.001       32.256   0.100E-07
     TRS4 it   5 1.00000000   0.731E-01       0.001       32.256   0.100E-07
     TRS4 it   6 1.00000000   0.101E-01       0.001       32.256   0.100E-07
     TRS4 it   7 1.00000000   0.258E-03       0.001       32.256   0.100E-07
     TRS4 it   8 1.00000000   0.237E-06       0.001       32.256   0.100E-07
     TRS4 it   9 1.00000000   0.243E-12       0.001       32.256   0.100E-07
     Final TRS4 iteration    9 1.00000000   0.243E-12
     Chemical potential (mu):       0.00906
 
 PAO| energy:  -7.8171841052175948      penalty:   1.3069215009572571E-005
 PAO|LS| adapt:  T T F
 PAO|LS| adapt: scan_steps:    0.0000000000000000       0.44334310388879439        0.0000000000000000     
 PAO|LS| adapt: energies:   -7.8171807664066231       -7.8171841052175948        0.0000000000000000     
 PAO| ======================= Iteration:        27 =============================

     Lanczos converged:  T threshold:   0.100E-02
     Est. extremal eigenvalues:    0.276E+01   0.178E+00
     Est. condition number :    0.155E+02

 Order=           3
     NS sqrt iter    1 1.00000000   0.704E+00       0.001       59.094
     NS sqrt iter    2 1.00000000   0.329E+00       0.001      100.008
     NS sqrt iter    3 1.00000000   0.759E-01       0.001      103.575
     NS sqrt iter    4 1.00000000   0.195E-02       0.001       98.460
     NS sqrt iter    5 1.00000000   0.684E-07       0.001       71.272
     Symmetrizing Results
     Final NS sqrt iter    5 1.00000000   0.650E-09

     Est. extremal eigenvalues     -0.93886     1.73471  converged:  T
     TRS4 it   1 1.00000000   0.887E+00       0.000       16.128   0.100E-07
     TRS4 it   2 1.00000000   0.629E+00       0.001       32.256   0.100E-07
     TRS4 it   3 1.00000000   0.430E+00       0.001       32.256   0.100E-07
     TRS4 it   4 1.00000000   0.222E+00       0.001       32.256   0.100E-07
     TRS4 it   5 1.00000000   0.730E-01       0.001       32.256   0.100E-07
     TRS4 it   6 1.00000000   0.100E-01       0.001       32.256   0.100E-07
     TRS4 it   7 1.00000000   0.256E-03       0.001       32.256   0.100E-07
     TRS4 it   8 1.00000000   0.235E-06       0.001       32.256   0.100E-07
     TRS4 it   9 1.00000000   0.238E-12       0.001       32.256   0.100E-07
     Final TRS4 iteration    9 1.00000000   0.238E-12
     Chemical potential (mu):       0.00913
 
 PAO| energy:  -7.8171252931796902      penalty:   1.2373047504716616E-005
 PAO|LS| adapt:  T T T
 PAO|LS| adapt: scan_steps:    0.0000000000000000       0.44334310388879439       0.88668620777758878     
 PAO|LS| adapt: energies:   -7.8171807664066231       -7.8171841052175948       -7.8171252931796902     
 PAO|LS| adapt: suggested step_size:   0.24548842405884047     
 PAO|LS| adapt: predicted energy  -7.8171902943504916     
 PAO| ======================= Iteration:        28 =============================

     Lanczos converged:  T threshold:   0.100E-02
     Est. extremal eigenvalues:    0.276E+01   0.178E+00
     Est. condition number :    0.156E+02

 Order=           3
     NS sqrt iter    1 1.00000000   0.704E+00       0.001       59.010
     NS sqrt iter    2 1.00000000   0.329E+00       0.001      100.211
     NS sqrt iter    3 1.00000000   0.761E-01       0.001      101.013
     NS sqrt iter    4 1.00000000   0.197E-02       0.001      100.331
     NS sqrt iter    5 1.00000000   0.700E-07       0.001       70.691
     Symmetrizing Results
     Final NS sqrt iter    5 1.00000000   0.664E-09

     Est. extremal eigenvalues     -0.93886     1.73575  converged:  T
     TRS4 it   1 1.00000000   0.887E+00       0.000       16.128   0.100E-07
     TRS4 it   2 1.00000000   0.629E+00       0.001       32.256   0.100E-07
     TRS4 it   3 1.00000000   0.430E+00       0.001       32.256   0.100E-07
     TRS4 it   4 1.00000000   0.222E+00       0.001       32.256   0.100E-07
     TRS4 it   5 1.00000000   0.731E-01       0.001       32.256   0.100E-07
     TRS4 it   6 1.00000000   0.101E-01       0.001       32.256   0.100E-07
     TRS4 it   7 1.00000000   0.258E-03       0.001       32.256   0.100E-07
     TRS4 it   8 1.00000000   0.238E-06       0.001       32.256   0.100E-07
     TRS4 it   9 1.00000000   0.246E-12       0.001       32.256   0.100E-07
     Final TRS4 iteration    9 1.00000000   0.246E-12
     Chemical potential (mu):       0.00903
 
 PAO| energy:  -7.8171902854566380      penalty:   1.3387451242269601E-005
 PAO|CG| trace_G_new    2.9746542587663346E-005
 PAO|CG| trace_G_prev    7.7394363983713556E-005
 PAO|CG| trace_G_mix    4.2004234368276888E-008
 PAO|CG| trace_D    1.1555944278343674E-004
 PAO|CG| trace_D_Gnew  -2.2751208927773031E-008
 PAO|CG| beta:   0.38380751290295412     
 PAO| norm of gradient:   5.4540391076397087E-003
 PAO| energy improvement:  -9.5190500148945034E-006
 PAO| step     28                   -7.817190285  0.341E-03  0.245E+00     0.058
 PAO|LS| adapt:  T F F
 PAO|LS| adapt: scan_steps:    0.0000000000000000        0.0000000000000000        0.0000000000000000     
 PAO|LS| adapt: energies:   -7.8171902854566380        0.0000000000000000        0.0000000000000000     
 PAO| ======================= Iteration:        29 =============================

     Lanczos converged:  T threshold:   0.100E-02
     Est. extremal eigenvalues:    0.276E+01   0.178E+00
     Est. condition number :    0.155E+02

 Order=           3
     NS sqrt iter    1 1.00000000   0.704E+00       0.001       59.272
     NS sqrt iter    2 1.00000000   0.329E+00       0.001       99.346
     NS sqrt iter    3 1.00000000   0.760E-01       0.001      102.794
     NS sqrt iter    4 1.00000000   0.196E-02       0.001       99.724
     NS sqrt iter    5 1.00000000   0.695E-07       0.001       71.583
     Symmetrizing Results
     Final NS sqrt iter    5 1.00000000   0.659E-09

     Est. extremal eigenvalues     -0.93886     1.73546  converged:  T
     TRS4 it   1 1.00000000   0.887E+00       0.000       16.128   0.100E-07
     TRS4 it   2 1.00000000   0.629E+00       0.001       32.256   0.100E-07
     TRS4 it   3 1.00000000   0.430E+00       0.001       32.256   0.100E-07
     TRS4 it   4 1.00000000   0.222E+00       0.001       32.256   0.100E-07
     TRS4 it   5 1.00000000   0.730E-01       0.001       32.256   0.100E-07
     TRS4 it   6 1.00000000   0.101E-01       0.001       32.256   0.100E-07
     TRS4 it   7 1.00000000   0.257E-03       0.001       32.256   0.100E-07
     TRS4 it   8 1.00000000   0.236E-06       0.001       32.256   0.100E-07
     TRS4 it   9 1.00000000   0.241E-12       0.001       32.256   0.100E-07
     Final TRS4 iteration    9 1.00000000   0.241E-12
     Chemical potential (mu):       0.00913
 
 PAO| energy:  -7.8171967094106565      penalty:   1.2970547628989335E-005
 PAO|LS| adapt:  T T F
 PAO|LS| adapt: scan_steps:    0.0000000000000000       0.24548842405884047        0.0000000000000000     
 PAO|LS| adapt: energies:   -7.8171902854566380       -7.8171967094106565        0.0000000000000000     
 PAO| ======================= Iteration:        30 =============================

     Lanczos converged:  T threshold:   0.100E-02
     Est. extremal eigenvalues:    0.276E+01   0.178E+00
     Est. condition number :    0.155E+02

 Order=           3
     NS sqrt iter    1 1.00000000   0.703E+00       0.001       59.238
     NS sqrt iter    2 1.00000000   0.329E+00       0.001       98.663
     NS sqrt iter    3 1.00000000   0.760E-01       0.001      102.805
     NS sqrt iter    4 1.00000000   0.196E-02       0.001      101.038
     NS sqrt iter    5 1.00000000   0.689E-07       0.001       71.641
     Symmetrizing Results
     Final NS sqrt iter    5 1.00000000   0.654E-09

     Est. extremal eigenvalues     -0.93886     1.73517  converged:  T
     TRS4 it   1 1.00000000   0.887E+00       0.000       16.128   0.100E-07
     TRS4 it   2 1.00000000   0.629E+00       0.001       32.256   0.100E-07
     TRS4 it   3 1.00000000   0.430E+00       0.001       32.256   0.100E-07
     TRS4 it   4 1.00000000   0.221E+00       0.001       32.256   0.100E-07
     TRS4 it   5 1.00000000   0.730E-01       0.001       32.256   0.100E-07
     TRS4 it   6 1.00000000   0.100E-01       0.001       32.256   0.100E-07
     TRS4 it   7 1.00000000   0.256E-03       0.001       32.256   0.100E-07
     TRS4 it   8 1.00000000   0.233E-06       0.001       32.256   0.100E-07
     TRS4 it   9 1.00000000   0.235E-12       0.001       32.256   0.100E-07
     Final TRS4 iteration    9 1.00000000   0.235E-12
     Chemical potential (mu):       0.00923
 
 PAO| energy:  -7.8172013722232538      penalty:   1.2560941817015881E-005
 PAO|LS| adapt:  T T F
 PAO|LS| adapt: scan_steps:    0.0000000000000000       0.49097684811768094        0.0000000000000000     
 PAO|LS| adapt: energies:   -7.8171902854566380       -7.8172013722232538        0.0000000000000000     
 PAO| ======================= Iteration:        31 =============================

     Lanczos converged:  T threshold:   0.100E-02
     Est. extremal eigenvalues:    0.276E+01   0.178E+00
     Est. condition number :    0.155E+02

 Order=           3
     NS sqrt iter    1 1.00000000   0.703E+00       0.001       58.822
     NS sqrt iter    2 1.00000000   0.329E+00       0.001       99.466
     NS sqrt iter    3 1.00000000   0.758E-01       0.001      102.362
     NS sqrt iter    4 1.00000000   0.195E-02       0.001      100.069
     NS sqrt iter    5 1.00000000   0.679E-07       0.001       70.271
     Symmetrizing Results
     Final NS sqrt iter    5 1.00000000   0.647E-09

     Est. extremal eigenvalues     -0.93886     1.73459  converged:  T
     TRS4 it   1 1.00000000   0.887E+00       0.000       16.128   0.100E-07
     TRS4 it   2 1.00000000   0.628E+00       0.001       32.256   0.100E-07
     TRS4 it   3 1.00000000   0.430E+00       0.001       32.256   0.100E-07
     TRS4 it   4 1.00000000   0.221E+00       0.001       32.256   0.100E-07
     TRS4 it   5 1.00000000   0.728E-01       0.001       32.256   0.100E-07
     TRS4 it   6 1.00000000   0.998E-02       0.001       32.256   0.100E-07
     TRS4 it   7 1.00000000   0.253E-03       0.001       32.256   0.100E-07
     TRS4 it   8 1.00000000   0.228E-06       0.001       32.256   0.100E-07
     TRS4 it   9 1.00000000   0.224E-12       0.001       32.256   0.100E-07
     Final TRS4 iteration    9 1.00000000   0.224E-12
     Chemical potential (mu):       0.00944
 
 PAO| energy:  -7.8172054144930589      penalty:   1.1763489741018473E-005
 PAO|LS| Need extra step
 PAO|LS| adapt:  T T F
 PAO|LS| adapt: scan_steps:    0.0000000000000000       0.98195369623536188        0.0000000000000000     
 PAO|LS| adapt: energies:   -7.8171902854566380       -7.8172054144930589        0.0000000000000000     
 PAO| ======================= Iteration:        32 =============================

     Lanczos converged:  T threshold:   0.100E-02
     Est. extremal eigenvalues:    0.276E+01   0.178E+00
     Est. condition number :    0.155E+02

 Order=           3
[...]
     Symmetrizing Results
     Final NS sqrt iter    5 1.00000000   0.319E-09

     Est. extremal eigenvalues     -0.93856     1.62690  converged:  T
     TRS4 it   1 1.00000000   0.881E+00       0.000       16.128   0.100E-07
     TRS4 it   2 1.00000000   0.633E+00       0.000       32.256   0.100E-07
     TRS4 it   3 1.00000000   0.455E+00       0.000       32.256   0.100E-07
     TRS4 it   4 1.00000000   0.279E+00       0.000       32.256   0.100E-07
     TRS4 it   5 1.00000000   0.139E+00       0.000       32.256   0.100E-07
     TRS4 it   6 1.00000000   0.444E-01       0.000       32.256   0.100E-07
     TRS4 it   7 1.00000000   0.641E-02       0.000       32.256   0.100E-07
     TRS4 it   8 1.00000000   0.177E-03       0.000       32.256   0.100E-07
     TRS4 it   9 1.00000000   0.141E-06       0.000       32.256   0.100E-07
     TRS4 it  10 1.00000000   0.884E-13       0.000       32.256   0.100E-07
     Final TRS4 iteration   10 1.00000000   0.884E-13
     Chemical potential (mu):      -0.07810
 
 PAO| energy:  -7.8164639524879576      penalty:   3.6172706061564659E-008
 PAO|CG| warming up with steepest descent
 PAO|CG| beta:    0.0000000000000000     
 PAO| norm of gradient:   1.3901919693203355E-004
 PAO| energy improvement:  -5.6698850059433425E-009
 PAO| step    408                   -7.816463952  0.869E-05  0.257E+00     0.050
 PAO| converged after          408  steps :-)
 PAO| Recalculating energy after mixing.

     Lanczos converged:  T threshold:   0.100E-02
     Est. extremal eigenvalues:    0.249E+01   0.191E+00
     Est. condition number :    0.130E+02

 Order=           3
     NS sqrt iter    1 1.00000000   0.631E+00       0.001       64.512
     NS sqrt iter    2 1.00000000   0.273E+00       0.001      110.592
     NS sqrt iter    3 1.00000000   0.479E-01       0.001      110.592
     NS sqrt iter    4 1.00000000   0.746E-03       0.001      110.592
     NS sqrt iter    5 1.00000000   0.545E-08       0.001       38.144
     Symmetrizing Results
     Final NS sqrt iter    5 1.00000000   0.319E-09

     Est. extremal eigenvalues     -0.93856     1.62690  converged:  T
     TRS4 it   1 1.00000000   0.881E+00       0.000       16.128   0.100E-07
     TRS4 it   2 1.00000000   0.633E+00       0.000       32.256   0.100E-07
     TRS4 it   3 1.00000000   0.455E+00       0.000       32.256   0.100E-07
     TRS4 it   4 1.00000000   0.279E+00       0.000       32.256   0.100E-07
     TRS4 it   5 1.00000000   0.139E+00       0.000       32.256   0.100E-07
     TRS4 it   6 1.00000000   0.444E-01       0.000       32.256   0.100E-07
     TRS4 it   7 1.00000000   0.641E-02       0.000       32.256   0.100E-07
     TRS4 it   8 1.00000000   0.177E-03       0.000       32.256   0.100E-07
     TRS4 it   9 1.00000000   0.141E-06       0.000       32.256   0.100E-07
     TRS4 it  10 1.00000000   0.894E-13       0.000       32.256   0.100E-07
     Final TRS4 iteration   10 1.00000000   0.894E-13
     Chemical potential (mu):      -0.07810
 
 PAO| energy:  -7.8164639510704728      penalty:   3.6549031697507536E-008
 PAO| Writing restart file.
     Est. extremal eigenvalues     -0.93856     1.62690  converged:  T
     TRS4 it   1 1.00000000   0.881E+00       0.000       16.128   0.100E-07
     TRS4 it   2 1.00000000   0.633E+00       0.000       32.256   0.100E-07
     TRS4 it   3 1.00000000   0.455E+00       0.000       32.256   0.100E-07
     TRS4 it   4 1.00000000   0.279E+00       0.000       32.256   0.100E-07
     TRS4 it   5 1.00000000   0.139E+00       0.000       32.256   0.100E-07
     TRS4 it   6 1.00000000   0.444E-01       0.000       32.256   0.100E-07
     TRS4 it   7 1.00000000   0.641E-02       0.000       32.256   0.100E-07
     TRS4 it   8 1.00000000   0.177E-03       0.000       32.256   0.100E-07
     TRS4 it   9 1.00000000   0.141E-06       0.000       32.256   0.100E-07
     TRS4 it  10 1.00000000   0.894E-13       0.000       32.256   0.100E-07
     Final TRS4 iteration   10 1.00000000   0.894E-13
     Chemical potential (mu):      -0.07810

 SCF     1       -34.449488420       -34.449488420    1.814344

*********************************************************
 Using MIXING_FRACTION=0.450 to mix KS matrix:  iscf=  2
 KS_nw=0.450*KS + 0.550*KS_old
*********************************************************
     Est. extremal eigenvalues     -0.93857     1.62691  converged:  T
     TRS4 it   1 1.00000000   0.881E+00       0.000       16.128   0.100E-07
     TRS4 it   2 1.00000000   0.633E+00       0.001       32.256   0.100E-07
     TRS4 it   3 1.00000000   0.455E+00       0.000       32.256   0.100E-07
     TRS4 it   4 1.00000000   0.279E+00       0.000       32.256   0.100E-07
     TRS4 it   5 1.00000000   0.139E+00       0.000       32.256   0.100E-07
     TRS4 it   6 1.00000000   0.444E-01       0.000       32.256   0.100E-07
     TRS4 it   7 1.00000000   0.641E-02       0.000       32.256   0.100E-07
     TRS4 it   8 1.00000000   0.177E-03       0.000       32.256   0.100E-07
     TRS4 it   9 1.00000000   0.141E-06       0.000       32.256   0.100E-07
     TRS4 it  10 1.00000000   0.890E-13       0.000       32.256   0.100E-07
     Final TRS4 iteration   10 1.00000000   0.890E-13
     Chemical potential (mu):      -0.07810

 SCF     2       -34.449488420        -0.000000000    1.647964


 SCF run converged in     2 steps.

 PAO| Storing density matrix for ASPC guess in slot:           1

 ENERGY| Total FORCE_EVAL ( QS ) energy [a.u.]:              -34.449488420334852

 -------------------------------------------------------------------------------
 -                                                                             -
 -                                DBCSR STATISTICS                             -
 -                                                                             -
 -------------------------------------------------------------------------------
 COUNTER                                    TOTAL       BLAS       SMM       ACC
 flops     5 x     5 x     4                20000       0.0%    100.0%      0.0%
 flops    13 x     5 x     4                20800       0.0%    100.0%      0.0%
 flops     5 x    13 x     4                20800       0.0%    100.0%      0.0%
 flops    13 x    13 x     4                40560       0.0%    100.0%      0.0%
 flops     4 x     4 x     5              3206400       0.0%    100.0%      0.0%
 flops     5 x     4 x     5              3929600       0.0%    100.0%      0.0%
 flops     4 x     4 x    13              4168320       0.0%    100.0%      0.0%
 flops    13 x     4 x     5              5108480       0.0%    100.0%      0.0%
 flops     5 x     4 x    13              5108480       0.0%    100.0%      0.0%
 flops     5 x     4 x     4              6229120       0.0%    100.0%      0.0%
 flops    13 x     4 x    13              6641024       0.0%    100.0%      0.0%
 flops    13 x     4 x     4              8220160       0.0%    100.0%      0.0%
 flops     4 x     4 x     4            416080384       0.0%    100.0%      0.0%
 flops inhomo. stacks                           0       0.0%      0.0%      0.0%
 flops total                       458.794128E+06       0.0%    100.0%      0.0%
 flops max/rank                    458.794128E+06       0.0%    100.0%      0.0%
 matmuls inhomo. stacks                         0       0.0%      0.0%      0.0%
 matmuls total                            3383798       0.0%    100.0%      0.0%
 number of processed stacks                 26974       0.0%    100.0%      0.0%
 average stack size                                     0.0     125.4       0.0
 marketing flops                   746.157696E+06
 -------------------------------------------------------------------------------
 # multiplications                          22543
 max memory usage/rank             506.175488E+06
 # max total images/rank                        1
 # max 3D layers                                1
 # MPI messages exchanged                       0
 -------------------------------------------------------------------------------

 -------------------------------------------------------------------------------
 -                                                                             -
 -                                DBM STATISTICS                               -
 -                                                                             -
 -------------------------------------------------------------------------------
    M  x    N  x    K                                          COUNT     PERCENT
 -------------------------------------------------------------------------------

 -------------------------------------------------------------------------------
 -                                                                             -
 -                                GRID STATISTICS                              -
 -                                                                             -
 -------------------------------------------------------------------------------
 LP    KERNEL             BACKEND                              COUNT     PERCENT
 2     collocate ortho    REF                                  38150      30.77%
 2     integrate ortho    REF                                  38150      30.77%
 3     collocate ortho    REF                                  19570      15.78%
 3     integrate ortho    REF                                  19570      15.78%
 4     collocate ortho    REF                                   4270       3.44%
 4     integrate ortho    REF                                   4270       3.44%
 0     collocate general  REF                                      6       0.00%
 -------------------------------------------------------------------------------

 MEMORY| Estimated peak process memory [MiB]                                 483

 -------------------------------------------------------------------------------
 -                                                                             -
 -                           R E F E R E N C E S                               -
 -                                                                             -
 -------------------------------------------------------------------------------
 
 CP2K version 2023.1 (Development Version), the CP2K developers group (2023).
 CP2K is freely available from https://www.cp2k.org/ .

 Kuehne,Thomas D.; Iannuzzi,Marcella; Del Ben,Mauro;
 Rybkin,Vladimir V.; Seewald,Patrick; Stein,Frederick; Laino,Teodoro;
 Khaliullin,Rustam Z.; Schuett,Ole; Schiffmann,Florian; Golze,Dorothea;
 Wilhelm,Jan; Chulkov,Sergey; Bani-Hashemian,Mohammad Hossein;
 Weber,Valery; Borstnik,Urban; Taillefumier,Mathieu;
 Jakobovits,Alice Shoshana; Lazzaro,Alfio; Pabst,Hans; Mueller,Tiziano;
 Schade,Robert; Guidon,Manuel; Andermatt,Samuel; Holmberg,Nico;
 Schenter,Gregory K.; Hehn,Anna; Bussy,Augustin; Belleflamme,Fabian;
 Tabacchi,Gloria; Gloess,Andreas; Lass,Michael; Bethune,Iain;
 Mundy,Christopher J.; Plessl,Christian; Watkins,Matt;
 VandeVondele,Joost; Krack,Matthias; Hutter,Juerg. 
 The Journal of Chemical Physics, 152 (19), (2020). 
 CP2K: An electronic structure and molecular dynamics software package -
 Quickstep: Efficient and accurate electronic structure calculations.
 https://doi.org/10.1063/5.0007045

 Schuett, O; VandeVondele, J. 
 Journal of Chemical Theory and Computation, 14, (2018). 
 Machine Learning Adaptive Basis Sets for Efficient Large Scale
 Density Functional Theory Simulation.
 https://doi.org/10.1021/acs.jctc.8b00378

 Schuett, Ole; Messmer, Peter; Hutter, Juerg; VandeVondele, Joost. 
 Electronic Structure Calculations on Graphics Processing Units, John
 Wiley & Sons, Ltd, 173-190 (2016). 
 GPU-Accelerated Sparse Matrix-Matrix Multiplication for
 Linear Scaling Density Functional Theory.
 https://doi.org/10.1002/9781118670712.ch8

 Heinecke, A; Henry, G; Hutchinson, M; Pabst, H. 
 Proceedings of Intl. Supercomputing Conference, 981-991 (2016). 
 LIBXSMM: Accelerating Small Matrix Multiplications
 by Runtime Code Generation.
 https://doi.org/10.1109/SC.2016.83

 Borstnik, U; VandeVondele, J; Weber, V; Hutter, J. 
 PARALLEL COMPUTING, 40 (5-6), 47-58 (2014). 
 Sparse matrix multiplication: The distributed block-compressed sparse
 row library.
 https://doi.org/10.1016/j.parco.2014.03.012

 Hutter, J; Iannuzzi, M; Schiffmann, F; VandeVondele, J. 
 WIREs Comput Mol Sci., 4 (1), 15-25 (2014). 
 CP2K: atomistic simulations of condensed matter systems.
 https://doi.org/10.1002/wcms.1159

 VandeVondele, J; Borstnik, U; Hutter, J. 
 JOURNAL OF CHEMICAL THEORY AND COMPUTATION, 8 (10), 3565-3573 (2012). 
 Linear Scaling Self-Consistent Field Calculations with Millions of Atoms
 in the Condensed Phase.
 https://doi.org/10.1021/ct200897x

 VandeVondele, J; Hutter, J. 
 JOURNAL OF CHEMICAL PHYSICS, 127 (11), 114105 (2007). 
 Gaussian basis sets for accurate calculations on molecular systems in
 gas and condensed phases.
 https://doi.org/10.1063/1.2770708

 Krack, M. 
 THEORETICAL CHEMISTRY ACCOUNTS, 114 (1-3), 145-152 (2005). 
 Pseudopotentials for H to Kr optimized for gradient-corrected
 exchange-correlation functionals.
 https://doi.org/10.1007/s00214-005-0655-y

 VandeVondele, J; Krack, M; Mohamed, F; Parrinello, M; Chassaing, T;
 Hutter, J. COMPUTER PHYSICS COMMUNICATIONS, 167 (2), 103-128 (2005). 
 QUICKSTEP: Fast and accurate density functional calculations using a
 mixed Gaussian and plane waves approach.
 https://doi.org/10.1016/j.cpc.2004.12.014

 Frigo, M; Johnson, SG. 
 PROCEEDINGS OF THE IEEE, 93 (2), 216-231 (2005). 
 The design and implementation of FFTW3.
 https://doi.org/10.1109/JPROC.2004.840301

 Niklasson, AMN; Tymczak, CJ; Challacombe, M. 
 JOURNAL OF CHEMICAL PHYSICS, 118 (19), 8611-8620 (2003). 
 Trace resetting density matrix purification in O(N)
 self-consistent-field theory.
 https://doi.org/10.1063/1.1559913

 Hartwigsen, C; Goedecker, S; Hutter, J. 
 PHYSICAL REVIEW B, 58 (7), 3641-3662 (1998). 
 Relativistic separable dual-space Gaussian pseudopotentials from H to Rn.
 https://doi.org/10.1103/PhysRevB.58.3641

 Lippert, G; Hutter, J; Parrinello, M. 
 MOLECULAR PHYSICS, 92 (3), 477-487 (1997). 
 A hybrid Gaussian and plane wave density functional scheme.
 https://doi.org/10.1080/002689797170220

 Perdew, JP; Burke, K; Ernzerhof, M. 
 PHYSICAL REVIEW LETTERS, 77 (18), 3865-3868 (1996). 
 Generalized gradient approximation made simple.
 https://doi.org/10.1103/PhysRevLett.77.3865

 Goedecker, S; Teter, M; Hutter, J. 
 PHYSICAL REVIEW B, 54 (3), 1703-1710 (1996). 
 Separable dual-space Gaussian pseudopotentials.
 https://doi.org/10.1103/PhysRevB.54.1703


 -------------------------------------------------------------------------------
 -                                                                             -
 -                                T I M I N G                                  -
 -                                                                             -
 -------------------------------------------------------------------------------
 SUBROUTINE                       CALLS  ASD         SELF TIME        TOTAL TIME
                                MAXIMUM       AVERAGE  MAXIMUM  AVERAGE  MAXIMUM
 CP2K                                 1  1.0    0.013    0.013   38.538   38.538
 qs_energies                          1  2.0    0.000    0.000   37.893   37.893
 ls_scf                               1  3.0    0.000    0.000   37.638   37.638
 ls_scf_main                          4  4.0    0.001    0.001   25.801   25.801
 ls_scf_dm_to_ks                      9  5.0    0.000    0.000   25.717   25.717
 qs_ks_update_qs_env                 10  6.0    0.000    0.000   22.343   22.343
 rebuild_ks_matrix                   10  7.0    0.000    0.000   22.342   22.342
 qs_ks_build_kohn_sham_matrix        10  8.0    0.003    0.003   22.342   22.342
 qs_vxc_create                       10  9.0    0.000    0.000   13.899   13.899
 xc_vxc_pw_create                    10 10.0    0.242    0.242   13.899   13.899
 pw_transfer                        191 11.1    0.033    0.033   12.998   12.998
 fft_wrap_pw1pw2                    171 12.3    0.004    0.004   12.625   12.625
 fft_wrap_pw1pw2_200                111 13.7    1.197    1.197   12.168   12.168
 xc_pw_derive                        60 12.0    0.001    0.001    8.416    8.416
 pao_update                           4  4.0    0.008    0.008    7.968    7.968
 xc_rho_set_and_dset_create          10 11.0    0.284    0.284    7.659    7.659
 pao_calc_energy                    411  5.0    0.003    0.003    7.212    7.212
 qs_rho_update_rho_low               10  6.0    0.000    0.000    7.193    7.193
 calculate_rho_elec                  10  7.0    0.052    0.052    7.193    7.193
 sum_up_and_integrate                10  9.0    0.199    0.199    5.920    5.920
 xc_pw_divergence                    10 11.0    0.001    0.001    5.819    5.819
 dbcsr_multiply_generic           22543  8.4    0.360    0.360    5.745    5.745
 integrate_v_rspace                  10 10.0    0.001    0.001    5.721    5.721
 fft3d_s                            172 14.2    5.613    5.613    5.654    5.654
 grid_integrate_task_list            10 11.0    4.441    4.441    4.441    4.441
 grid_collocate_task_list            10  8.0    4.063    4.063    4.063    4.063
 pao_guess_initial_P                  1  4.0    0.000    0.000    3.825    3.825
 pao_read_preopt_dm                   1  5.0    0.000    0.000    3.825    3.825
 pao_dm_trs4                        411  6.0    0.002    0.002    3.775    3.775
 density_matrix_trs4                420  7.0    0.119    0.119    3.640    3.640
 ls_scf_init_matrix_S               415  7.0    0.002    0.002    3.418    3.418
 pao_rebuild_S                      411  6.0    0.001    0.001    3.389    3.389
 matrix_sqrt_Newton_Schulz          415  8.0    0.073    0.073    3.091    3.091
 density_rs2pw                       10  8.0    0.001    0.001    3.078    3.078
 pw_gather_s                         81 13.8    3.054    3.054    3.054    3.054
 xc_functional_eval                  10 12.0    0.000    0.000    2.965    2.965
 pbe_lda_eval                        10 13.0    2.965    2.965    2.965    2.965
 pw_scatter_s                        90 14.7    2.668    2.668    2.668    2.668
 make_m2s                         45086  9.4    0.136    0.136    2.154    2.154
 multiply_cannon                  22543  9.4    0.883    0.883    2.147    2.147
 make_images                      45086 10.4    0.534    0.534    1.911    1.911
 pw_derive                           60 13.0    1.552    1.552    1.552    1.552
 potential_pw2rs                     10 11.0    0.003    0.003    1.279    1.279
 pw_copy                            120 11.8    1.196    1.196    1.196    1.196
 arnoldi_extremal                   835  8.5    0.003    0.003    1.120    1.120
 arnoldi_normal_ev                  835  9.5    0.008    0.008    1.118    1.118
 build_subspace                     835 10.5    0.046    0.046    0.881    0.881
 pw_poisson_solve                    10  9.0    0.163    0.163    0.857    0.857
 pw_axpy                             90 10.3    0.854    0.854    0.854    0.854
 dbcsr_matrix_vector_mult         20017 11.5    0.094    0.094    0.817    0.817
 -------------------------------------------------------------------------------

 The number of warnings for this run is : 0
 
 -------------------------------------------------------------------------------
  **** **** ******  **  PROGRAM ENDED AT                 2023-02-01 10:44:33.749
 ***** ** ***  *** **   PROGRAM RAN ON                                    moritz
 **    ****   ******    PROGRAM RAN BY                                       ole
 ***** **    ** ** **   PROGRAM PROCESS ID                                148514
  **** **  *******  **  PROGRAM STOPPED IN /home/ole/git/pao_ml_equivar/2H2O_rot
                                           ations/rand_13
