6
Properties=species:S:1:pos:R:3 i=0 time=0.0 E=-34.4504806384 pbc="F F F"
O       -5.00110779      -2.13168844      -3.64415099
H       -4.58925267      -1.40938249      -4.12988597
H       -4.34202964      -2.42029962      -3.00505117
O       -7.40283871      -1.09200384      -2.17791687
H       -8.19468986      -1.57176354      -2.43662016
H       -6.68244826      -1.48672086      -2.69334394
