6
Properties=species:S:1:pos:R:3 i=0 time=0.0 E=-34.4504806384 pbc="F F F"
O      -1.53178177      -4.24780580       4.73759451 
H      -1.15695824      -3.47223172       5.16803751 
H      -1.79366445      -3.95307584       3.85971028 
O       0.58930624      -6.35290658       4.47561296 
H       0.31740704      -7.16703617       4.90849728 
H      -0.14502250      -5.73335112       4.60729949 
