 DBCSR| CPU Multiplication driver                                           XSMM (U)
 DBCSR| Multrec recursion limit                                              512 (U)
 DBCSR| Multiplication stack size                                           1000 (D)
 DBCSR| Maximum elements for images                                    UNLIMITED (U)
 DBCSR| Multiplicative factor virtual images                                   1 (U)
 DBCSR| Use multiplication densification                                       T (D)
 DBCSR| Multiplication size stacks                                             3 (U)
 DBCSR| Use memory pool for CPU allocation                                     F (U)
 DBCSR| Number of 3D layers                                               SINGLE (U)
 DBCSR| Use MPI memory allocation                                              F (U)
 DBCSR| Use RMA algorithm                                                      F (U)
 DBCSR| Use Communication thread                                               T (U)
 DBCSR| Communication thread load                                             87 (D)
 DBCSR| MPI: My process id                                                     0
 DBCSR| MPI: Number of processes                                              32
 DBCSR| OMP: Current number of threads                                         1
 DBCSR| OMP: Max number of threads                                             1
 DBCSR| Split modifier for TAS multiplication algorithm                  1.0E+00 (U)


  **** **** ******  **  PROGRAM STARTED AT               2024-09-23 17:35:13.678
 ***** ** ***  *** **   PROGRAM STARTED ON                                moritz
 **    ****   ******    PROGRAM STARTED BY                                   ole
 ***** **    ** ** **   PROGRAM PROCESS ID                                156337
  **** **  *******  **  PROGRAM STARTED IN /home/ole/git/pao_ml_equivar/64H2O_MD
                                           /Frame1700

 CP2K| version string:                 CP2K version 2024.3 (Development Version)
 CP2K| source code revision number:                                  git:3f890bb
 CP2K| cp2kflags: omp libint fftw3 libxc libgrpp pexsi elpa parallel scalapack c
 CP2K|            osma quip deepmd xsmm plumed2 spglib libdftd4 sirius libvori l
 CP2K|            libbqb libvdwxc hdf5
 CP2K| is freely available from                            https://www.cp2k.org/
 CP2K| Program compiled at                          Mo 23 Sep 2024 17:17:04 CEST
 CP2K| Program compiled on                                                moritz
 CP2K| Program compiled for                                                local
 CP2K| Data directory path                               /home/ole/git/cp2k/data
 CP2K| Input file name                                             64H2O_ref.inp

 GLOBAL| Force Environment number                                              1
 GLOBAL| Basis set file name                                        BASIS_MOLOPT
 GLOBAL| Potential file name                                      GTH_POTENTIALS
 GLOBAL| MM Potential file name                                     MM_POTENTIAL
 GLOBAL| Coordinate file name                                         coords.xyz
 GLOBAL| Method name                                                        CP2K
 GLOBAL| Project name                                                  64H2O_ref
 GLOBAL| Run type                                                         ENERGY
 GLOBAL| FFT library                                                       FFTW3
 GLOBAL| Diagonalization library                                            ELPA
 GLOBAL| DGEMM library                                                      BLAS
 GLOBAL| Minimum number of eigenvectors for ELPA usage                        16
 GLOBAL| Orthonormality check for eigenvectors                          DISABLED
 GLOBAL| Matrix multiplication library                                     COSMA
 GLOBAL| All-to-all communication in single precision                          F
 GLOBAL| FFTs using library dependent lengths                                  F
 GLOBAL| Grid backend                                                       AUTO
 GLOBAL| Global print level                                                  LOW
 GLOBAL| MPI I/O enabled                                                       T
 GLOBAL| Total number of message passing processes                            32
 GLOBAL| Number of threads for this process                                    1
 GLOBAL| This output is from process                                           0
 GLOBAL| Stack size for threads created by OpenMP (OMP_STACKSIZE)        default
 GLOBAL| CPU model name           AMD Ryzen Threadripper 3970X 32-Core Processor
 GLOBAL| CPUID                                                              1002

 MEMORY| system memory details [Kb]
 MEMORY|                        rank 0           min           max       average
 MEMORY| MemTotal            131752136     131752136     131752136     131752136
 MEMORY| MemFree             118544440     118544440     118544440     118544440
 MEMORY| Buffers                259588        259588        259588        259588
 MEMORY| Cached                6995036       6995036       6995040       6995037
 MEMORY| Slab                   698736        698736        698736        698736
 MEMORY| SReclaimable           266888        266888        266888        266888
 MEMORY| MemLikelyFree       126065952     126065952     126065956     126065953


 GENERATE|  Preliminary Number of Bonds generated:                             0
 GENERATE|  Achieved consistency in connectivity generation.

 *******************************************************************************
 *******************************************************************************
 **                                                                           **
 **     #####                         ##              ##                      **
 **    ##   ##            ##          ##              ##                      **
 **   ##     ##                       ##            ######                    **
 **   ##     ##  ##   ##  ##   #####  ##  ##   ####   ##    #####    #####    **
 **   ##     ##  ##   ##  ##  ##      ## ##   ##      ##   ##   ##  ##   ##   **
 **   ##  ## ##  ##   ##  ##  ##      ####     ###    ##   ######   ######    **
 **    ##  ###   ##   ##  ##  ##      ## ##      ##   ##   ##       ##        **
 **     #######   #####   ##   #####  ##  ##  ####    ##    #####   ##        **
 **           ##                                                    ##        **
 **                                                                           **
 **                                                ... make the atoms dance   **
 **                                                                           **
 **            Copyright (C) by CP2K developers group (2000-2024)             **
 **                      J. Chem. Phys. 152, 194103 (2020)                    **
 **                                                                           **
 *******************************************************************************


 TOTAL NUMBERS AND MAXIMUM NUMBERS

  Total number of            - Atomic kinds:                                   2
                             - Atoms:                                        192
                             - Shell sets:                                   192
                             - Shells:                                       704
                             - Primitive Cartesian functions:               1344
                             - Cartesian basis functions:                   1536
                             - Spherical basis functions:                   1472

  Maximum angular momentum of- Orbital basis functions:                        2
                             - Local part of the GTH pseudopotential:          2
                             - Non-local part of the GTH pseudopotential:      0

 ------------------------------ Linear scaling SCF -----------------------------
 eps_scf:                                                              0.100E-07
 eps_filter:                                                           0.100E-11
 mixing_fraction:                                                      0.450E+00
 max_scf:                                                                     25
 fixed chemical potential (mu)                                                 F
 has unit metric:                                                              F
 Computing inv(S):                                                             T
 Computing sqrt(S):                                                            T
 Computing S preconditioner                                                    F
 S sqrt method:                                                     NEWTONSCHULZ
 S sqrt order:                                                                 3
 Extrapolation order:                                                          1
 S preconditioner type                                                      NONE
 Polarized Atomic Orbitals (PAO)                                               F
 Purification method                                   Trace resetting 4th order
 Cluster type                                                             ATOMIC
 Computing Chebyshev                                                       FALSE
 Using PAO                                                                     F
 -------------------------------------------------------------------------------


     Lanczos converged:  F threshold:   0.100E-02
     Est. extremal eigenvalues:    0.863E+01   0.598E-02
     Est. condition number :    0.144E+04

 Order=           3
     NS sqrt iter    1 1.00000000   0.223E+01       0.065     6146.281
     NS sqrt iter    2 1.00000000   0.117E+01       0.100     7956.227
     NS sqrt iter    3 1.00000000   0.578E+00       0.099     8037.978
     NS sqrt iter    4 1.00000000   0.333E+00       0.100     7993.547
     NS sqrt iter    5 1.00000000   0.225E+00       0.100     7960.714
     NS sqrt iter    6 1.00000000   0.104E+00       0.100     7958.915
     NS sqrt iter    7 1.00000000   0.126E-01       0.099     8093.595
     NS sqrt iter    8 1.00000000   0.581E-04       0.099     8027.704
     NS sqrt iter    9 1.00000000   0.245E-10       0.058     5565.904
     Symmetrizing Results
     Final NS sqrt iter    9 1.00000000   0.721E-11



 Guess for atomic kind: O

 Electronic structure
    Total number of core electrons                                          2.00
    Total number of valence electrons                                       6.00
    Total number of electrons                                               8.00
    Multiplicity                                                   not specified
    S   [  2.00] 2.00
    P      4.00


 *******************************************************************************
                  Iteration          Convergence                     Energy [au]
 *******************************************************************************
                          1        0.708315                     -15.576645311500
                          2        0.608879                     -15.587933561584
                          3        0.102828E-01                 -15.656849565404
                          4        0.113889E-02                 -15.656866888140
                          5        0.434197E-03                 -15.656867072159
                          6        0.263771E-03                 -15.656867091904
                          7        0.478536E-06                 -15.656867103452

 Energy components [Hartree]           Total Energy ::          -15.656867103452
                                        Band Energy ::           -3.000198112285
                                     Kinetic Energy ::           11.759971203220
                                   Potential Energy ::          -27.416838306672
                                      Virial (-V/T) ::            2.331369510426
                                        Core Energy ::          -26.140716385623
                                          XC Energy ::           -3.154051012914
                                     Coulomb Energy ::           13.637900295084
                       Total Pseudopotential Energy ::          -37.935781716540
                       Local Pseudopotential Energy ::          -39.218907440693
                    Nonlocal Pseudopotential Energy ::            1.283125724153
                                        Confinement ::            0.350941276976

 Orbital energies  State     L     Occupation   Energy[a.u.]          Energy[eV]

                       1     0          2.000      -0.864471          -23.523463

                       1     1          4.000      -0.317814           -8.648154


 Total Electron Density at R=0:                                         0.000068

 Guess for atomic kind: H

 Electronic structure
    Total number of core electrons                                          0.00
    Total number of valence electrons                                       1.00
    Total number of electrons                                               1.00
    Multiplicity                                                   not specified
    S      1.00


 *******************************************************************************
                  Iteration          Convergence                     Energy [au]
 *******************************************************************************
                          1        0.437545E-02                  -0.424159432110
                          2        0.531356E-03                  -0.424178438213
                          3        0.259176E-06                  -0.424178722480

 Energy components [Hartree]           Total Energy ::           -0.424178722480
                                        Band Energy ::           -0.199015229016
                                     Kinetic Energy ::            0.464007633961
                                   Potential Energy ::           -0.888186356441
                                      Virial (-V/T) ::            1.914163240935
                                        Core Energy ::           -0.479160803564
                                          XC Energy ::           -0.244352904054
                                     Coulomb Energy ::            0.299334985138
                       Total Pseudopotential Energy ::           -0.962295316385
                       Local Pseudopotential Energy ::           -0.962295316385
                    Nonlocal Pseudopotential Energy ::            0.000000000000
                                        Confinement ::            0.191268788606

 Orbital energies  State     L     Occupation   Energy[a.u.]          Energy[eV]

                       1     0          1.000      -0.199015           -5.415480


 Total Electron Density at R=0:                                         0.242907
 Re-scaling the density matrix to get the right number of electrons
                  # Electrons              Trace(P)               Scaling factor
                          512               512.001                        1.000
 Energy with the initial guess:     -1095.689451053

     Est. extremal eigenvalues     -0.94334     5.23727  converged:  T
     TRS4 it   1 1.00000000   0.565E+02       0.019     5325.292   0.100E-11
     TRS4 it   2 1.00000000   0.540E+02       0.019     5402.878   0.100E-11
     TRS4 it   3 1.00000000   0.339E+02       0.037     5462.635   0.100E-11
     TRS4 it   4 1.00000000   0.177E+02       0.036     5516.191   0.100E-11
     TRS4 it   5 1.00000000   0.107E+02       0.036     5536.730   0.100E-11
     TRS4 it   6 1.00000000   0.483E+01       0.036     5515.691   0.100E-11
     TRS4 it   7 1.00000000   0.143E+01       0.036     5608.273   0.100E-11
     TRS4 it   8 1.00000000   0.216E+00       0.037     5458.459   0.100E-11
     TRS4 it   9 1.00000000   0.930E-02       0.036     5575.339   0.100E-11
     TRS4 it  10 1.00000000   0.262E-04       0.036     5504.352   0.100E-11
     TRS4 it  11 1.00000000   0.726E-10       0.036     5549.823   0.100E-11
     Final TRS4 iteration   11 1.00000000   0.726E-10
     Chemical potential (mu):      -0.10703

 SCF     1     -1097.917013475     -1097.917013475    2.054380

*********************************************************
 Using MIXING_FRACTION=0.450 to mix KS matrix:  iscf=  2
 KS_nw=0.450*KS + 0.550*KS_old
*********************************************************
     Est. extremal eigenvalues     -0.83399     5.33747  converged:  T
     TRS4 it   1 1.00000000   0.558E+02       0.019     5206.644   0.100E-11
     TRS4 it   2 1.00000000   0.543E+02       0.019     5398.264   0.100E-11
     TRS4 it   3 1.00000000   0.352E+02       0.036     5522.008   0.100E-11
     TRS4 it   4 1.00000000   0.184E+02       0.036     5579.544   0.100E-11
     TRS4 it   5 1.00000000   0.119E+02       0.037     5489.346   0.100E-11
     TRS4 it   6 1.00000000   0.620E+01       0.036     5521.628   0.100E-11
     TRS4 it   7 1.00000000   0.248E+01       0.036     5570.511   0.100E-11
     TRS4 it   8 1.00000000   0.687E+00       0.036     5528.810   0.100E-11
     TRS4 it   9 1.00000000   0.104E+00       0.037     5490.831   0.100E-11
     TRS4 it  10 1.00000000   0.569E-02       0.036     5565.712   0.100E-11
     TRS4 it  11 1.00000000   0.965E-05       0.037     5410.892   0.100E-11
     TRS4 it  12 1.00000000   0.157E-10       0.036     5502.506   0.100E-11
     Final TRS4 iteration   12 1.00000000   0.157E-10
     Chemical potential (mu):      -0.01889

 SCF     2     -1102.960607598        -5.043594123    2.088502

*********************************************************
 Using MIXING_FRACTION=0.450 to mix KS matrix:  iscf=  3
 KS_nw=0.450*KS + 0.550*KS_old
*********************************************************
     Est. extremal eigenvalues     -0.84085     5.32742  converged:  T
     TRS4 it   1 1.00000000   0.558E+02       0.019     5326.981   0.100E-11
     TRS4 it   2 1.00000000   0.542E+02       0.019     5284.478   0.100E-11
     TRS4 it   3 1.00000000   0.351E+02       0.037     5484.282   0.100E-11
     TRS4 it   4 1.00000000   0.183E+02       0.036     5498.945   0.100E-11
     TRS4 it   5 1.00000000   0.117E+02       0.037     5466.280   0.100E-11
     TRS4 it   6 1.00000000   0.596E+01       0.037     5446.678   0.100E-11
     TRS4 it   7 1.00000000   0.229E+01       0.036     5518.405   0.100E-11
     TRS4 it   8 1.00000000   0.595E+00       0.037     5491.451   0.100E-11
     TRS4 it   9 1.00000000   0.792E-01       0.037     5435.752   0.100E-11
     TRS4 it  10 1.00000000   0.317E-02       0.036     5545.467   0.100E-11
     TRS4 it  11 1.00000000   0.312E-05       0.036     5590.508   0.100E-11
     TRS4 it  12 1.00000000   0.291E-11       0.037     5484.227   0.100E-11
     Final TRS4 iteration   12 1.00000000   0.291E-11
     Chemical potential (mu):      -0.02737

 SCF     3     -1103.122866461        -0.162258862    2.104492

*********************************************************
 Using MIXING_FRACTION=0.450 to mix KS matrix:  iscf=  4
 KS_nw=0.450*KS + 0.550*KS_old
*********************************************************
     Est. extremal eigenvalues     -0.83767     5.33313  converged:  T
     TRS4 it   1 1.00000000   0.558E+02       0.019     5219.289   0.100E-11
     TRS4 it   2 1.00000000   0.542E+02       0.019     5419.709   0.100E-11
     TRS4 it   3 1.00000000   0.351E+02       0.036     5525.344   0.100E-11
     TRS4 it   4 1.00000000   0.184E+02       0.037     5468.816   0.100E-11
     TRS4 it   5 1.00000000   0.118E+02       0.036     5537.427   0.100E-11
     TRS4 it   6 1.00000000   0.606E+01       0.036     5551.290   0.100E-11
     TRS4 it   7 1.00000000   0.237E+01       0.036     5551.580   0.100E-11
     TRS4 it   8 1.00000000   0.635E+00       0.036     5519.194   0.100E-11
     TRS4 it   9 1.00000000   0.909E-01       0.036     5542.118   0.100E-11
     TRS4 it  10 1.00000000   0.436E-02       0.037     5479.266   0.100E-11
     TRS4 it  11 1.00000000   0.712E-05       0.036     5534.924   0.100E-11
     TRS4 it  12 1.00000000   0.178E-10       0.037     5435.695   0.100E-11
     Final TRS4 iteration   12 1.00000000   0.178E-10
     Chemical potential (mu):      -0.02094

 SCF     4     -1103.131188309        -0.008321848    2.088658

*********************************************************
 Using MIXING_FRACTION=0.450 to mix KS matrix:  iscf=  5
 KS_nw=0.450*KS + 0.550*KS_old
*********************************************************
     Est. extremal eigenvalues     -0.83575     5.33378  converged:  T
     TRS4 it   1 1.00000000   0.558E+02       0.019     5244.285   0.100E-11
     TRS4 it   2 1.00000000   0.542E+02       0.019     5349.570   0.100E-11
     TRS4 it   3 1.00000000   0.351E+02       0.037     5494.268   0.100E-11
     TRS4 it   4 1.00000000   0.183E+02       0.036     5531.929   0.100E-11
     TRS4 it   5 1.00000000   0.117E+02       0.036     5572.874   0.100E-11
     TRS4 it   6 1.00000000   0.604E+01       0.036     5505.523   0.100E-11
     TRS4 it   7 1.00000000   0.236E+01       0.036     5497.414   0.100E-11
     TRS4 it   8 1.00000000   0.633E+00       0.036     5564.586   0.100E-11
     TRS4 it   9 1.00000000   0.905E-01       0.036     5618.383   0.100E-11
     TRS4 it  10 1.00000000   0.434E-02       0.036     5554.469   0.100E-11
     TRS4 it  11 1.00000000   0.733E-05       0.036     5513.952   0.100E-11
     TRS4 it  12 1.00000000   0.215E-10       0.037     5479.067   0.100E-11
     Final TRS4 iteration   12 1.00000000   0.215E-10
     Chemical potential (mu):      -0.02001

 SCF     5     -1103.131863904        -0.000675596    2.099364

*********************************************************
 Using MIXING_FRACTION=0.450 to mix KS matrix:  iscf=  6
 KS_nw=0.450*KS + 0.550*KS_old
*********************************************************
     Est. extremal eigenvalues     -0.83530     5.33458  converged:  T
     TRS4 it   1 1.00000000   0.558E+02       0.019     5315.461   0.100E-11
     TRS4 it   2 1.00000000   0.542E+02       0.019     5330.601   0.100E-11
     TRS4 it   3 1.00000000   0.351E+02       0.037     5394.322   0.100E-11
     TRS4 it   4 1.00000000   0.184E+02       0.036     5528.921   0.100E-11
     TRS4 it   5 1.00000000   0.118E+02       0.036     5505.603   0.100E-11
     TRS4 it   6 1.00000000   0.606E+01       0.036     5550.734   0.100E-11
     TRS4 it   7 1.00000000   0.237E+01       0.037     5496.762   0.100E-11
     TRS4 it   8 1.00000000   0.638E+00       0.036     5569.041   0.100E-11
     TRS4 it   9 1.00000000   0.921E-01       0.036     5506.206   0.100E-11
     TRS4 it  10 1.00000000   0.453E-02       0.036     5525.052   0.100E-11
     TRS4 it  11 1.00000000   0.828E-05       0.036     5508.015   0.100E-11
     TRS4 it  12 1.00000000   0.286E-10       0.037     5489.808   0.100E-11
     Final TRS4 iteration   12 1.00000000   0.286E-10
     Chemical potential (mu):      -0.01896

 SCF     6     -1103.131964976        -0.000101071    2.087631

*********************************************************
 Using MIXING_FRACTION=0.450 to mix KS matrix:  iscf=  7
 KS_nw=0.450*KS + 0.550*KS_old
*********************************************************
     Est. extremal eigenvalues     -0.83476     5.33486  converged:  T
     TRS4 it   1 1.00000000   0.558E+02       0.019     5387.037   0.100E-11
     TRS4 it   2 1.00000000   0.542E+02       0.019     5291.126   0.100E-11
     TRS4 it   3 1.00000000   0.351E+02       0.036     5526.066   0.100E-11
     TRS4 it   4 1.00000000   0.184E+02       0.036     5519.058   0.100E-11
     TRS4 it   5 1.00000000   0.118E+02       0.036     5523.899   0.100E-11
     TRS4 it   6 1.00000000   0.606E+01       0.036     5501.389   0.100E-11
     TRS4 it   7 1.00000000   0.237E+01       0.036     5523.718   0.100E-11
     TRS4 it   8 1.00000000   0.638E+00       0.036     5543.443   0.100E-11
     TRS4 it   9 1.00000000   0.923E-01       0.037     5467.403   0.100E-11
     TRS4 it  10 1.00000000   0.457E-02       0.036     5559.281   0.100E-11
     TRS4 it  11 1.00000000   0.850E-05       0.036     5540.996   0.100E-11
     TRS4 it  12 1.00000000   0.311E-10       0.036     5635.091   0.100E-11
     Final TRS4 iteration   12 1.00000000   0.311E-10
     Chemical potential (mu):      -0.01857

 SCF     7     -1103.131986210        -0.000021235    2.087508

*********************************************************
 Using MIXING_FRACTION=0.450 to mix KS matrix:  iscf=  8
 KS_nw=0.450*KS + 0.550*KS_old
*********************************************************
     Est. extremal eigenvalues     -0.83460     5.33504  converged:  T
     TRS4 it   1 1.00000000   0.558E+02       0.019     5317.242   0.100E-11
     TRS4 it   2 1.00000000   0.542E+02       0.019     5381.517   0.100E-11
     TRS4 it   3 1.00000000   0.351E+02       0.037     5459.386   0.100E-11
     TRS4 it   4 1.00000000   0.184E+02       0.037     5435.830   0.100E-11
     TRS4 it   5 1.00000000   0.118E+02       0.037     5423.945   0.100E-11
     TRS4 it   6 1.00000000   0.606E+01       0.036     5530.878   0.100E-11
     TRS4 it   7 1.00000000   0.237E+01       0.036     5557.268   0.100E-11
     TRS4 it   8 1.00000000   0.639E+00       0.036     5507.023   0.100E-11
     TRS4 it   9 1.00000000   0.926E-01       0.037     5455.670   0.100E-11
     TRS4 it  10 1.00000000   0.460E-02       0.036     5524.056   0.100E-11
     TRS4 it  11 1.00000000   0.871E-05       0.036     5632.490   0.100E-11
     TRS4 it  12 1.00000000   0.330E-10       0.036     5599.342   0.100E-11
     Final TRS4 iteration   12 1.00000000   0.330E-10
     Chemical potential (mu):      -0.01832

 SCF     8     -1103.131991295        -0.000005085    2.088671


 SCF run converged in     8 steps.

 Writing restart DM 64H2O_ref_LS_DM_SPIN_1_RESTART.dm with checksum:       0.60436267E+04

 ENERGY| Total FORCE_EVAL ( QS ) energy [a.u.]:            -1103.131991295254466

 -------------------------------------------------------------------------------
 -                                                                             -
 -                                DBCSR STATISTICS                             -
 -                                                                             -
 -------------------------------------------------------------------------------
 COUNTER                                    TOTAL       BLAS       SMM       ACC
 flops     5 x     5 x     5          79234575000       0.0%    100.0%      0.0%     
 flops     5 x    13 x     5         102587743050       0.0%    100.0%      0.0%     
 flops    13 x     5 x     5         102593176400       0.0%    100.0%      0.0%     
 flops     5 x     5 x    13         103097419100       0.0%    100.0%      0.0%     
 flops     5 x    13 x    13         133529979180       0.0%    100.0%      0.0%     
 flops    13 x     5 x    13         133540120870       0.0%    100.0%      0.0%     
 flops    13 x    13 x     5         134689525360       0.0%    100.0%      0.0%     
 flops    13 x    13 x    13         175376482892       0.0%    100.0%      0.0%     
 flops inhomo. stacks                           0       0.0%      0.0%      0.0%
 flops total                       964.649022E+09       0.0%    100.0%      0.0%
 flops max/rank                     30.952811E+09       0.0%    100.0%      0.0%
 matmuls inhomo. stacks                         0       0.0%      0.0%      0.0%
 matmuls total                         1068852974       0.0%    100.0%      0.0%
 number of processed stacks               1513756       0.0%    100.0%      0.0%
 average stack size                                     0.0     706.1       0.0
 marketing flops                     1.569237E+12
 -------------------------------------------------------------------------------
 # multiplications                            246
 max memory usage/rank             617.607168E+06
 # max total images/rank                        2
 # max 3D layers                                1
 # MPI messages exchanged                  102336
 MPI messages size (bytes):
  total size                        42.293785E+09
  min size                           0.000000E+00
  max size                         541.696000E+03
  average size                     413.283531E+03
 MPI breakdown and total messages size (bytes):
             size <=      128                 312                        0
       128 < size <=     8192                  42                   279312
      8192 < size <=    32768                  62                   841968
     32768 < size <=   131072                 186                 21101904
    131072 < size <=  4194304              101734              42271561136
   4194304 < size <= 16777216                   0                        0
  16777216 < size                               0                        0
 -------------------------------------------------------------------------------

 *** WARNING in dbcsr_mm.F:301 :: Using a non-square number of MPI ranks ***
 *** might lead to poor performance. Used ranks: 32 Suggested: 36 64     ***

 -------------------------------------------------------------------------------
 -                                                                             -
 -                      DBCSR MESSAGE PASSING PERFORMANCE                      -
 -                                                                             -
 -------------------------------------------------------------------------------
 ROUTINE             CALLS      AVE VOLUME [Bytes]
 MP_Bcast                9                     12.
 MP_Allreduce         1762                     34.
 MP_Alltoall           546                  34827.
 MP_ISend             8604                 170542.
 MP_IRecv             8238                 178715.
 -------------------------------------------------------------------------------

 -------------------------------------------------------------------------------
 -                                                                             -
 -                                DBM STATISTICS                               -
 -                                                                             -
 -------------------------------------------------------------------------------
    M  x    N  x    K                                          COUNT     PERCENT
 -------------------------------------------------------------------------------

 -------------------------------------------------------------------------------
 -                                                                             -
 -                                GRID STATISTICS                              -
 -                                                                             -
 -------------------------------------------------------------------------------
 LP    KERNEL             BACKEND                              COUNT     PERCENT
 2     collocate ortho    CPU                                7375113      28.82%
 2     integrate ortho    CPU                                7375113      28.82%
 3     collocate ortho    CPU                                4742244      18.53%
 3     integrate ortho    CPU                                4742244      18.53%
 4     collocate ortho    CPU                                 673011       2.63%
 4     integrate ortho    CPU                                 673011       2.63%
 0     collocate general  CPU                                   6144       0.02%
 -------------------------------------------------------------------------------

 MEMORY| Estimated peak process memory [MiB]                                 590

 -------------------------------------------------------------------------------
 -                                                                             -
 -                         MESSAGE PASSING PERFORMANCE                         -
 -                                                                             -
 -------------------------------------------------------------------------------

 ROUTINE             CALLS      AVE VOLUME [Bytes]
 MP_Group                5
 MP_Bcast             2479                 157332.
 MP_Allreduce         6633                    940.
 MP_Sync                 5
 MP_Alltoall           244                9765897.
 MP_SendRecv           837                  18832.
 MP_ISendRecv          837                  18832.
 MP_Wait              2391
 MP_ISend             1406                 108579.
 MP_IRecv             1406                 108603.
 -------------------------------------------------------------------------------


 -------------------------------------------------------------------------------
 -                                                                             -
 -                           R E F E R E N C E S                               -
 -                                                                             -
 -------------------------------------------------------------------------------
 
 CP2K version 2024.3 (Development Version), the CP2K developers group (2024).
 CP2K is freely available from https://www.cp2k.org/ .
 
 T. D. Kuehne, M. Iannuzzi, M. Del Ben, V. V. Rybkin, P. Seewald, F. Stein, T. 
 Laino, R. Z. Khaliullin, O. Schuett, F. Schiffmann, D. Golze, J. Wilhelm, S. 
 Chulkov, M. H. Bani-Hashemian, V. Weber, U. Borstnik, M. Taillefumier, A. S. 
 Jakobovits, A. Lazzaro, H. Pabst, T. Mueller, R. Schade, M. Guidon, S. 
 Andermatt, N. Holmberg, G. K. Schenter, A. Hehn, A. Bussy, F. Belleflamme, G. 
 Tabacchi, A. Gloess, M. Lass, I. Bethune, C. J. Mundy, C. Plessl, M. Watkins, 
 J. VandeVondele, M. Krack, J. Hutter.
 J. Chem. Phys. 152, 194103 (2020).
 CP2K: An electronic structure and molecular dynamics software package - 
 Quickstep: Efficient and accurate electronic structure calculations.
 https://doi.org/10.1063/5.0007045

 O. Schuett, P. Messmer, J. Hutter, J. VandeVondele.
 Electronic Structure Calculations on Graphics Processing Units, 173-190 (2016).
 GPU-Accelerated Sparse Matrix-Matrix Multiplication for Linear Scaling Density 
 Functional Theory.
 https://doi.org/10.1002/9781118670712.ch8

 A. Heinecke, G. Henry, M. Hutchinson, H. Pabst.
 Proceedings of Intl. Supercomputing Conference, 981-991 (2016).
 LIBXSMM: Accelerating Small Matrix Multiplications by Runtime Code Generation.
 https://doi.org/10.1109/SC.2016.83

 J. Hutter, M. Iannuzzi, F. Schiffmann, J. VandeVondele.
 WIREs Comput Mol Sci. 4, 15-25 (2014).
 CP2K: atomistic simulations of condensed matter systems.
 https://doi.org/10.1002/wcms.1159

 U. Borstnik, J. VandeVondele, V. Weber, J. Hutter.
 Parallel Comput. 40, 47-58 (2014).
 Sparse matrix multiplication: The distributed block-compressed sparse row 
 library.
 https://doi.org/10.1016/j.parco.2014.03.012

 A. Marek, V. Blum, R. Johanni, V. Havu, B. Lang, T. Auckenthaler, A. Heinecke, 
 H. Bungartz, H. Lederer.
 J. Phys. Condens. Matter 26, 213201 (2014).
 The ELPA library: scalable parallel eigenvalue solutions for electronic 
 structure theory and computational science.
 https://doi.org/10.1088/0953-8984/26/21/213201

 J. VandeVondele, U. Borstnik, J. Hutter.
 J. Chem. Theory Comput. 8, 3565-3573 (2012).
 Linear Scaling Self-Consistent Field Calculations with Millions of Atoms in the 
 Condensed Phase.
 https://doi.org/10.1021/ct200897x

 J. VandeVondele, J. Hutter.
 J. Chem. Phys. 127, 114105 (2007).
 Gaussian basis sets for accurate calculations on molecular systems in gas and 
 condensed phases.
 https://doi.org/10.1063/1.2770708

 J. VandeVondele, M. Krack, F. Mohamed, M. Parrinello, T. Chassaing, J. Hutter.
 Comput. Phys. Commun. 167, 103-128 (2005).
 QUICKSTEP: Fast and accurate density functional calculations using a mixed 
 Gaussian and plane waves approach.
 https://doi.org/10.1016/j.cpc.2004.12.014

 M. Krack.
 Theor. Chem. Acc. 114, 145-152 (2005).
 Pseudopotentials for H to Kr optimized for gradient-corrected 
 exchange-correlation functionals.
 https://doi.org/10.1007/s00214-005-0655-y

 M. Frigo, S. G. Johnson.
 Proc. IEEE 93, 216-231 (2005).
 The design and implementation of FFTW3.
 https://doi.org/10.1109/JPROC.2004.840301

 A. M. N. Niklasson, C. J. Tymczak, M. Challacombe.
 J. Chem. Phys. 118, 8611-8620 (2003).
 Trace resetting density matrix purification in O(N) self-consistent-field 
 theory.
 https://doi.org/10.1063/1.1559913

 C. Hartwigsen, S. Goedecker, J. Hutter.
 Phys. Rev. B 58, 3641-3662 (1998).
 Relativistic separable dual-space Gaussian pseudopotentials from H to Rn.
 https://doi.org/10.1103/PhysRevB.58.3641

 G. Lippert, J. Hutter, M. Parrinello.
 Mol. Phys. 92, 477-487 (1997).
 A hybrid Gaussian and plane wave density functional scheme.
 https://doi.org/10.1080/002689797170220

 S. Goedecker, M. Teter, J. Hutter.
 Phys. Rev. B 54, 1703-1710 (1996).
 Separable dual-space Gaussian pseudopotentials.
 https://doi.org/10.1103/PhysRevB.54.1703

 J. P. Perdew, K. Burke, M. Ernzerhof.
 Phys. Rev. Lett. 77, 3865-3868 (1996).
 Generalized gradient approximation made simple.
 https://doi.org/10.1103/PhysRevLett.77.3865


 -------------------------------------------------------------------------------
 -                                                                             -
 -                                T I M I N G                                  -
 -                                                                             -
 -------------------------------------------------------------------------------
 SUBROUTINE                       CALLS  ASD         SELF TIME        TOTAL TIME
                                MAXIMUM       AVERAGE  MAXIMUM  AVERAGE  MAXIMUM
 CP2K                                 1  1.0    0.013    0.016   20.478   20.478
 qs_energies                          1  2.0    0.000    0.000   20.321   20.322
 ls_scf                               1  3.0    0.000    0.000   19.248   19.249
 ls_scf_main                          1  4.0    0.000    0.000   16.699   16.700
 ls_scf_dm_to_ks                      8  5.0    0.000    0.000   12.392   12.396
 qs_ks_update_qs_env                  9  6.1    0.000    0.000    7.809    7.810
 rebuild_ks_matrix                    9  7.1    0.000    0.000    7.802    7.804
 qs_ks_build_kohn_sham_matrix         9  8.1    0.002    0.002    7.802    7.804
 qs_rho_update_rho_low                9  6.1    0.000    0.000    6.138    6.143
 calculate_rho_elec                   9  7.1    0.003    0.003    6.138    6.143
 sum_up_and_integrate                 9  9.1    0.000    0.000    5.916    5.918
 integrate_v_rspace                   9 10.1    0.000    0.000    5.908    5.910
 grid_collocate_task_list             9  8.1    5.450    5.544    5.450    5.544
 grid_integrate_task_list             9 11.1    5.204    5.305    5.204    5.305
 dbcsr_multiply_generic             246  6.2    0.012    0.013    4.676    4.683
 density_matrix_trs4                  8  5.0    0.004    0.006    4.302    4.306
 multiply_cannon                    246  7.2    0.018    0.023    3.810    3.862
 multiply_cannon_loop               246  8.2    0.019    0.020    3.735    3.773
 ls_scf_init_scf                      1  4.0    0.000    0.000    2.485    2.485
 multiply_cannon_multrec           1968  9.2    2.090    2.141    2.096    2.147
 mp_waitall_1                     16729 10.5    1.778    1.869    1.778    1.869
 fft_wrap_pw1pw2                    172 11.3    0.003    0.003    1.750    1.779
 fft_wrap_pw1pw2_200                100 12.8    0.101    0.108    1.678    1.709
 qs_vxc_create                        9  9.1    0.000    0.000    1.541    1.571
 xc_vxc_pw_create                     9 10.1    0.013    0.018    1.541    1.571
 ls_scf_initial_guess                 1  5.0    0.000    0.000    1.560    1.561
 ls_scf_qs_atomic_guess               1  6.0    0.000    0.000    1.560    1.561
 multiply_cannon_metrocomm3        1968  9.2    0.005    0.006    1.399    1.479
 fft3d_ps                           172 13.3    0.708    0.780    1.319    1.360
 xc_pw_derive                        54 12.1    0.001    0.001    1.094    1.181
 qs_energies_init_hamiltonians        1  3.0    0.000    0.000    1.073    1.073
 ls_scf_init_matrix_S                 1  5.0    0.000    0.000    0.925    0.926
 matrix_sqrt_Newton_Schulz            1  6.0    0.001    0.001    0.901    0.902
 build_core_hamiltonian_matrix        1  4.0    0.000    0.000    0.712    0.884
 xc_rho_set_and_dset_create           9 11.1    0.019    0.024    0.776    0.794
 xc_pw_divergence                     9 11.1    0.000    0.000    0.733    0.774
 density_rs2pw                        9  8.1    0.000    0.000    0.655    0.756
 make_m2s                           492  7.2    0.005    0.007    0.677    0.691
 make_images                        492  8.2    0.039    0.040    0.667    0.682
 mp_waitany                        1406 12.5    0.532    0.658    0.532    0.658
 build_core_ppl                       1  5.0    0.490    0.638    0.490    0.638
 mp_alltoall_z22v                   172 15.3    0.438    0.626    0.438    0.626
 potential_pw2rs                      9 11.1    0.001    0.001    0.598    0.599
 transfer_rs2pw                      46  9.0    0.001    0.001    0.466    0.583
 transfer_rs2pw_200                  10  9.8    0.034    0.043    0.361    0.478
 arnoldi_extremal                     9  6.1    0.000    0.000    0.441    0.442
 arnoldi_normal_ev                    9  7.1    0.000    0.001    0.440    0.441
 -------------------------------------------------------------------------------

 The number of warnings for this run is : 1
 
 -------------------------------------------------------------------------------
  **** **** ******  **  PROGRAM ENDED AT                 2024-09-23 17:35:34.758
 ***** ** ***  *** **   PROGRAM RAN ON                                    moritz
 **    ****   ******    PROGRAM RAN BY                                       ole
 ***** **    ** ** **   PROGRAM PROCESS ID                                156337
  **** **  *******  **  PROGRAM STOPPED IN /home/ole/git/pao_ml_equivar/64H2O_MD
                                           /Frame1700
