 DBCSR| CPU Multiplication driver                                           XSMM (U)
 DBCSR| Multrec recursion limit                                              512 (U)
 DBCSR| Multiplication stack size                                           1000 (D)
 DBCSR| Maximum elements for images                                    UNLIMITED (U)
 DBCSR| Multiplicative factor virtual images                                   1 (U)
 DBCSR| Use multiplication densification                                       T (D)
 DBCSR| Multiplication size stacks                                             3 (U)
 DBCSR| Use memory pool for CPU allocation                                     F (U)
 DBCSR| Number of 3D layers                                               SINGLE (U)
 DBCSR| Use MPI memory allocation                                              F (U)
 DBCSR| Use RMA algorithm                                                      F (U)
 DBCSR| Use Communication thread                                               T (U)
 DBCSR| Communication thread load                                             87 (D)
 DBCSR| MPI: My process id                                                     0
 DBCSR| MPI: Number of processes                                              32
 DBCSR| OMP: Current number of threads                                         1
 DBCSR| OMP: Max number of threads                                             1
 DBCSR| Split modifier for TAS multiplication algorithm                  1.0E+00 (U)


  **** **** ******  **  PROGRAM STARTED AT               2024-09-24 00:22:58.393
 ***** ** ***  *** **   PROGRAM STARTED ON                                moritz
 **    ****   ******    PROGRAM STARTED BY                                   ole
 ***** **    ** ** **   PROGRAM PROCESS ID                                165203
  **** **  *******  **  PROGRAM STARTED IN /home/ole/git/pao_ml_equivar/64H2O_MD
                                           /Frame1700

 CP2K| version string:                 CP2K version 2024.3 (Development Version)
 CP2K| source code revision number:                                  git:3f890bb
 CP2K| cp2kflags: omp libint fftw3 libxc libgrpp pexsi elpa parallel scalapack c
 CP2K|            osma quip deepmd xsmm plumed2 spglib libdftd4 sirius libvori l
 CP2K|            libbqb libvdwxc hdf5
 CP2K| is freely available from                            https://www.cp2k.org/
 CP2K| Program compiled at                          Mo 23 Sep 2024 17:17:04 CEST
 CP2K| Program compiled on                                                moritz
 CP2K| Program compiled for                                                local
 CP2K| Data directory path                               /home/ole/git/cp2k/data
 CP2K| Input file name                                           64H2O_pao44.inp

 GLOBAL| Force Environment number                                              1
 GLOBAL| Basis set file name                                        BASIS_MOLOPT
 GLOBAL| Potential file name                                      GTH_POTENTIALS
 GLOBAL| MM Potential file name                                     MM_POTENTIAL
 GLOBAL| Coordinate file name                                         coords.xyz
 GLOBAL| Method name                                                        CP2K
 GLOBAL| Project name                                                64H2O_pao44
 GLOBAL| Run type                                                         ENERGY
 GLOBAL| FFT library                                                       FFTW3
 GLOBAL| Diagonalization library                                            ELPA
 GLOBAL| DGEMM library                                                      BLAS
 GLOBAL| Minimum number of eigenvectors for ELPA usage                        16
 GLOBAL| Orthonormality check for eigenvectors                          DISABLED
 GLOBAL| Matrix multiplication library                                     COSMA
 GLOBAL| All-to-all communication in single precision                          F
 GLOBAL| FFTs using library dependent lengths                                  F
 GLOBAL| Grid backend                                                       AUTO
 GLOBAL| Global print level                                                  LOW
 GLOBAL| MPI I/O enabled                                                       T
 GLOBAL| Total number of message passing processes                            32
 GLOBAL| Number of threads for this process                                    1
 GLOBAL| This output is from process                                           0
 GLOBAL| Stack size for threads created by OpenMP (OMP_STACKSIZE)        default
 GLOBAL| CPU model name           AMD Ryzen Threadripper 3970X 32-Core Processor
 GLOBAL| CPUID                                                              1002

 MEMORY| system memory details [Kb]
 MEMORY|                        rank 0           min           max       average
 MEMORY| MemTotal            131752136     131752136     131752136     131752136
 MEMORY| MemFree             114308540     114308540     114308540     114308540
 MEMORY| Buffers               1993980       1993980       1993980       1993980
 MEMORY| Cached                8626452       8626452       8626452       8626452
 MEMORY| Slab                  1642076       1642076       1642076       1642076
 MEMORY| SReclaimable          1143808       1143808       1143808       1143808
 MEMORY| MemLikelyFree       126072780     126072780     126072780     126072780


 GENERATE|  Preliminary Number of Bonds generated:                             0
 GENERATE|  Achieved consistency in connectivity generation.

 *******************************************************************************
 *******************************************************************************
 **                                                                           **
 **     #####                         ##              ##                      **
 **    ##   ##            ##          ##              ##                      **
 **   ##     ##                       ##            ######                    **
 **   ##     ##  ##   ##  ##   #####  ##  ##   ####   ##    #####    #####    **
 **   ##     ##  ##   ##  ##  ##      ## ##   ##      ##   ##   ##  ##   ##   **
 **   ##  ## ##  ##   ##  ##  ##      ####     ###    ##   ######   ######    **
 **    ##  ###   ##   ##  ##  ##      ## ##      ##   ##   ##       ##        **
 **     #######   #####   ##   #####  ##  ##  ####    ##    #####   ##        **
 **           ##                                                    ##        **
 **                                                                           **
 **                                                ... make the atoms dance   **
 **                                                                           **
 **            Copyright (C) by CP2K developers group (2000-2024)             **
 **                      J. Chem. Phys. 152, 194103 (2020)                    **
 **                                                                           **
 *******************************************************************************


 TOTAL NUMBERS AND MAXIMUM NUMBERS

  Total number of            - Atomic kinds:                                   2
                             - Atoms:                                        192
                             - Shell sets:                                   192
                             - Shells:                                       704
                             - Primitive Cartesian functions:               1344
                             - Cartesian basis functions:                   1536
                             - Spherical basis functions:                   1472

  Maximum angular momentum of- Orbital basis functions:                        2
                             - Local part of the GTH pseudopotential:          2
                             - Non-local part of the GTH pseudopotential:      0

 ------------------------------ Linear scaling SCF -----------------------------
 eps_scf:                                                              0.100E-07
 eps_filter:                                                           0.100E-11
 mixing_fraction:                                                      0.450E+00
 max_scf:                                                                     25
 fixed chemical potential (mu)                                                 F
 has unit metric:                                                              F
 Computing inv(S):                                                             T
 Computing sqrt(S):                                                            T
 Computing S preconditioner                                                    F
 S sqrt method:                                                     NEWTONSCHULZ
 S sqrt order:                                                                 3
 Extrapolation order:                                                          1
 S preconditioner type                                                      NONE
 Polarized Atomic Orbitals (PAO)                                               T
 Purification method                                   Trace resetting 4th order
 Cluster type                                                             ATOMIC
 Computing Chebyshev                                                       FALSE
 Using PAO                                                                     T
 -------------------------------------------------------------------------------

 
 PAO|                                  EPS_PAO                           0.5E-06
 PAO|                                  MIXING                            0.5E+00
 PAO|                                  MAX_PAO                              1500
 PAO|                                  MAX_CYCLES                           1000
 PAO|                                  PARAMETERIZATION              EQUIVARIANT
 PAO|                                  PRECONDITION                            F
 PAO|                                  REGULARIZATION                    0.0E+00
 PAO|                                  EPS_PGF                           0.1E-09
 PAO|                                  PENALTY_DISTANCE                  0.1E+00
 PAO|                                  PENALTY_STRENGTH                  0.5E-02
 PAO|                                  LINPOT_PRECONDITION_DELTA         0.0E+00
 PAO|                                  LINPOT_INITGUESS_DELT             0.0E+00
 PAO|                                  LINPOT_REGULARIZATION_DELTA       0.0E+00
 PAO|                                  LINPOT_REGULARIZATION_STRENGTH    0.0E+00
 PAO|                                  OPTIMIZER                              CG
 PAO|                                  CG_INIT_STEPS                           2
 PAO|                                  CG_RESET_LIMIT                    0.1E+00
 PAO|                                  CHECK_UNITARY_TOL                -0.1E+01
 PAO|                                  CHECK_GRADIENT_TOL               -0.1E+01
 PAO|                                  NUM_GRADIENT_ORDER                      2
 PAO|                                  NUM_GRADIENT_EPS                  0.1E-07
 PAO|                                  PRINT%RESTART%WRITE_CYCLES            100
 PAO|                                  RESTART_FILE 
 PAO|                                  PREOPT_DM_FILE 64H2O_ref_LS_DM_SPIN_1_RESTART.dm
 PAO|                                  MACHINE_LEARNING%METHOD       GAUSSIAN_PR
 PAO|                                  MACHINE_LEARNING%PRIOR               ZERO
 PAO|                                  MACHINE_LEARNING%DESCRIPTOR     POTENTIAL
 PAO|                                  MACHINE_LEARNING%TOLERANCE        0.1E-01
 PAO|                                  MACHINE_LEARNING%GP_NOISE_VAR     0.1E+00
 PAO|                                  MACHINE_LEARNING%GP_SCALE         0.5E-01
 

 Calculating atomic Fock matrix for atomic kind: O

 Electronic structure
    Total number of core electrons                                          2.00
    Total number of valence electrons                                       6.00
    Total number of electrons                                               8.00
    Multiplicity                                                   not specified
    S   [  2.00] 2.00
    P      4.00


 *******************************************************************************
                  Iteration          Convergence                     Energy [au]
 *******************************************************************************
                          1        0.708315                     -15.576645311500
                          2        0.608879                     -15.587933561584
                          3        0.102828E-01                 -15.656849565404
                          4        0.113889E-02                 -15.656866888140
                          5        0.434197E-03                 -15.656867072159
                          6        0.263771E-03                 -15.656867091904
                          7        0.478536E-06                 -15.656867103452

 Energy components [Hartree]           Total Energy ::          -15.656867103452
                                        Band Energy ::           -3.000198112285
                                     Kinetic Energy ::           11.759971203220
                                   Potential Energy ::          -27.416838306672
                                      Virial (-V/T) ::            2.331369510426
                                        Core Energy ::          -26.140716385623
                                          XC Energy ::           -3.154051012914
                                     Coulomb Energy ::           13.637900295084
                       Total Pseudopotential Energy ::          -37.935781716540
                       Local Pseudopotential Energy ::          -39.218907440693
                    Nonlocal Pseudopotential Energy ::            1.283125724153
                                        Confinement ::            0.350941276976

 Orbital energies  State     L     Occupation   Energy[a.u.]          Energy[eV]

                       1     0          2.000      -0.864471          -23.523463

                       1     1          4.000      -0.317814           -8.648154


 Total Electron Density at R=0:                                         0.000068

 Calculating atomic Fock matrix for atomic kind: H

 Electronic structure
    Total number of core electrons                                          0.00
    Total number of valence electrons                                       1.00
    Total number of electrons                                               1.00
    Multiplicity                                                   not specified
    S      1.00


 *******************************************************************************
                  Iteration          Convergence                     Energy [au]
 *******************************************************************************
                          1        0.437545E-02                  -0.424159432110
                          2        0.531356E-03                  -0.424178438213
                          3        0.259176E-06                  -0.424178722480

 Energy components [Hartree]           Total Energy ::           -0.424178722480
                                        Band Energy ::           -0.199015229016
                                     Kinetic Energy ::            0.464007633961
                                   Potential Energy ::           -0.888186356441
                                      Virial (-V/T) ::            1.914163240935
                                        Core Energy ::           -0.479160803564
                                          XC Energy ::           -0.244352904054
                                     Coulomb Energy ::            0.299334985138
                       Total Pseudopotential Energy ::           -0.962295316385
                       Local Pseudopotential Energy ::           -0.962295316385
                    Nonlocal Pseudopotential Energy ::            0.000000000000
                                        Confinement ::            0.191268788606

 Orbital energies  State     L     Occupation   Energy[a.u.]          Energy[eV]

                       1     0          1.000      -0.199015           -5.415480


 Total Electron Density at R=0:                                         0.242907
 PAO| Made initial guess for matrix_X with norm:   27.712812921102035     

     Lanczos converged:  F threshold:   0.100E-02
     Est. extremal eigenvalues:    0.619E+01   0.910E-01
     Est. condition number :    0.680E+02

 Order=           3
     NS sqrt iter    1 1.00000000   0.151E+01       0.021     2693.360
     NS sqrt iter    2 1.00000000   0.820E+00       0.034     3364.239
     NS sqrt iter    3 1.00000000   0.330E+00       0.034     3354.540
     NS sqrt iter    4 1.00000000   0.918E-01       0.034     3363.625
     NS sqrt iter    5 1.00000000   0.334E-02       0.034     3351.302
     NS sqrt iter    6 1.00000000   0.331E-06       0.029     2903.741
     Symmetrizing Results
     Final NS sqrt iter    6 1.00000000   0.249E-12

 PAO| Read restart DM 64H2O_ref_LS_DM_SPIN_1_RESTART.dm with checksum:    6043.6267157812736     
 PAO| Quickstep energy from restart density:  -1103.1319912952545     
 PAO| ======================= Iteration:         1 =============================

     Lanczos converged:  F threshold:   0.100E-02
     Est. extremal eigenvalues:    0.619E+01   0.910E-01
     Est. condition number :    0.680E+02

 Order=           3
     NS sqrt iter    1 1.00000000   0.151E+01       0.021     2697.805
     NS sqrt iter    2 1.00000000   0.820E+00       0.034     3360.858
     NS sqrt iter    3 1.00000000   0.330E+00       0.034     3363.685
     NS sqrt iter    4 1.00000000   0.918E-01       0.034     3366.609
     NS sqrt iter    5 1.00000000   0.334E-02       0.034     3353.203
     NS sqrt iter    6 1.00000000   0.331E-06       0.029     2932.446
     Symmetrizing Results
     Final NS sqrt iter    6 1.00000000   0.249E-12

     Est. extremal eigenvalues     -0.81766     2.60864  converged:  T
     TRS4 it   1 1.00000000   0.272E+02       0.007     2068.644   0.100E-11
     TRS4 it   2 1.00000000   0.236E+02       0.013     2178.859   0.100E-11
     TRS4 it   3 1.00000000   0.160E+02       0.013     2164.074   0.100E-11
     TRS4 it   4 1.00000000   0.100E+02       0.013     2196.131   0.100E-11
     TRS4 it   5 1.00000000   0.482E+01       0.013     2212.588   0.100E-11
     TRS4 it   6 1.00000000   0.161E+01       0.013     2191.671   0.100E-11
     TRS4 it   7 1.00000000   0.322E+00       0.013     2189.547   0.100E-11
     TRS4 it   8 1.00000000   0.239E-01       0.013     2168.711   0.100E-11
     TRS4 it   9 1.00000000   0.223E-03       0.013     2196.014   0.100E-11
     TRS4 it  10 1.00000000   0.198E-07       0.013     2194.639   0.100E-11
     TRS4 it  11 1.00000000   0.000E+00       0.013     2178.405   0.100E-11
     Final TRS4 iteration   11 1.00000000   0.000E+00
     Chemical potential (mu):       0.00829
 
 PAO| energy:  -186.59269625469494      penalty:   1.4057747850071311E-031
 PAO|CG| warming up with steepest descent
 PAO|CG| beta:    0.0000000000000000     
 PAO| norm of gradient:   3.9829846683314298     
 PAO|LS| adapt:  T F F
 PAO|LS| adapt: scan_steps:    0.0000000000000000        0.0000000000000000        0.0000000000000000     
 PAO|LS| adapt: energies:   -186.59269625469494        0.0000000000000000        0.0000000000000000     
 PAO| ======================= Iteration:         2 =============================

     Lanczos converged:  F threshold:   0.100E-02
     Est. extremal eigenvalues:    0.597E+01   0.979E-01
     Est. condition number :    0.610E+02

 Order=           3
     NS sqrt iter    1 1.00000000   0.147E+01       0.021     2709.031
     NS sqrt iter    2 1.00000000   0.791E+00       0.034     3343.309
     NS sqrt iter    3 1.00000000   0.309E+00       0.034     3357.205
     NS sqrt iter    4 1.00000000   0.771E-01       0.034     3353.838
     NS sqrt iter    5 1.00000000   0.208E-02       0.034     3371.463
     NS sqrt iter    6 1.00000000   0.942E-07       0.029     2926.329
     Symmetrizing Results
     Final NS sqrt iter    6 1.00000000   0.243E-13

     Est. extremal eigenvalues     -0.82081     2.59910  converged:  T
     TRS4 it   1 1.00000000   0.274E+02       0.007     2080.634   0.100E-11
     TRS4 it   2 1.00000000   0.235E+02       0.013     2170.646   0.100E-11
     TRS4 it   3 1.00000000   0.159E+02       0.013     2186.094   0.100E-11
     TRS4 it   4 1.00000000   0.979E+01       0.013     2184.267   0.100E-11
     TRS4 it   5 1.00000000   0.460E+01       0.013     2189.808   0.100E-11
     TRS4 it   6 1.00000000   0.147E+01       0.013     2188.705   0.100E-11
     TRS4 it   7 1.00000000   0.275E+00       0.013     2183.213   0.100E-11
     TRS4 it   8 1.00000000   0.172E-01       0.013     2189.208   0.100E-11
     TRS4 it   9 1.00000000   0.103E-03       0.013     2199.317   0.100E-11
     TRS4 it  10 1.00000000   0.473E-08       0.013     2195.465   0.100E-11
     TRS4 it  11 1.00000000   0.142E-13       0.013     2207.856   0.100E-11
     Final TRS4 iteration   11 1.00000000   0.142E-13
     Chemical potential (mu):       0.01406
 
 PAO| energy:  -188.04857252790248      penalty:   4.7301249866910662E-007
 PAO|LS| adapt:  T T F
 PAO|LS| adapt: scan_steps:    0.0000000000000000       0.10000000000000001        0.0000000000000000     
 PAO|LS| adapt: energies:   -186.59269625469494       -188.04857252790248        0.0000000000000000     
 PAO| ======================= Iteration:         3 =============================

     Lanczos converged:  F threshold:   0.100E-02
     Est. extremal eigenvalues:    0.575E+01   0.104E+00
     Est. condition number :    0.551E+02

 Order=           3
     NS sqrt iter    1 1.00000000   0.142E+01       0.021     2720.534
     NS sqrt iter    2 1.00000000   0.762E+00       0.034     3378.496
     NS sqrt iter    3 1.00000000   0.289E+00       0.034     3343.748
     NS sqrt iter    4 1.00000000   0.646E-01       0.034     3349.199
     NS sqrt iter    5 1.00000000   0.131E-02       0.034     3357.103
     NS sqrt iter    6 1.00000000   0.279E-07       0.029     2910.120
     Symmetrizing Results
     Final NS sqrt iter    6 1.00000000   0.340E-14

     Est. extremal eigenvalues     -0.82384     2.59827  converged:  T
     TRS4 it   1 1.00000000   0.277E+02       0.007     2135.036   0.100E-11
     TRS4 it   2 1.00000000   0.235E+02       0.013     2176.338   0.100E-11
     TRS4 it   3 1.00000000   0.158E+02       0.013     2206.512   0.100E-11
     TRS4 it   4 1.00000000   0.960E+01       0.013     2195.191   0.100E-11
     TRS4 it   5 1.00000000   0.439E+01       0.013     2192.691   0.100E-11
     TRS4 it   6 1.00000000   0.135E+01       0.013     2201.169   0.100E-11
     TRS4 it   7 1.00000000   0.233E+00       0.013     2188.229   0.100E-11
     TRS4 it   8 1.00000000   0.120E-01       0.013     2187.791   0.100E-11
     TRS4 it   9 1.00000000   0.448E-04       0.013     2187.897   0.100E-11
     TRS4 it  10 1.00000000   0.978E-09       0.013     2182.803   0.100E-11
     TRS4 it  11 1.00000000   0.178E-14       0.013     2206.225   0.100E-11
     Final TRS4 iteration   11 1.00000000   0.178E-14
     Chemical potential (mu):       0.02065
 
 PAO| energy:  -189.22737110676681      penalty:   7.5681999787755353E-006
 PAO|LS| adapt:  T T F
 PAO|LS| adapt: scan_steps:    0.0000000000000000       0.20000000000000001        0.0000000000000000     
 PAO|LS| adapt: energies:   -186.59269625469494       -189.22737110676681        0.0000000000000000     
 PAO| ======================= Iteration:         4 =============================

     Lanczos converged:  F threshold:   0.100E-02
     Est. extremal eigenvalues:    0.533E+01   0.115E+00
     Est. condition number :    0.466E+02

 Order=           3
     NS sqrt iter    1 1.00000000   0.134E+01       0.021     2719.416
     NS sqrt iter    2 1.00000000   0.705E+00       0.034     3340.788
     NS sqrt iter    3 1.00000000   0.251E+00       0.034     3355.852
     NS sqrt iter    4 1.00000000   0.452E-01       0.034     3339.035
     NS sqrt iter    5 1.00000000   0.537E-03       0.034     3361.967
     NS sqrt iter    6 1.00000000   0.247E-08       0.029     2829.674
     Symmetrizing Results
     Final NS sqrt iter    6 1.00000000   0.155E-13

     Est. extremal eigenvalues     -0.82896     2.60678  converged:  T
     TRS4 it   1 1.00000000   0.281E+02       0.007     2125.025   0.100E-11
     TRS4 it   2 1.00000000   0.236E+02       0.013     2208.382   0.100E-11
     TRS4 it   3 1.00000000   0.156E+02       0.013     2218.928   0.100E-11
     TRS4 it   4 1.00000000   0.927E+01       0.013     2193.780   0.100E-11
     TRS4 it   5 1.00000000   0.404E+01       0.013     2197.226   0.100E-11
     TRS4 it   6 1.00000000   0.114E+01       0.013     2208.893   0.100E-11
     TRS4 it   7 1.00000000   0.167E+00       0.013     2185.001   0.100E-11
     TRS4 it   8 1.00000000   0.563E-02       0.013     2192.055   0.100E-11
     TRS4 it   9 1.00000000   0.814E-05       0.013     2195.550   0.100E-11
     TRS4 it  10 1.00000000   0.330E-10       0.013     2174.123   0.100E-11
     Final TRS4 iteration   10 1.00000000   0.330E-10
     Chemical potential (mu):       0.03975
 
 PAO| energy:  -190.71306011783997      penalty:   1.2109119966096639E-004
 PAO|LS| Need extra step
 PAO|LS| adapt:  T T F
 PAO|LS| adapt: scan_steps:    0.0000000000000000       0.40000000000000002        0.0000000000000000     
 PAO|LS| adapt: energies:   -186.59269625469494       -190.71306011783997        0.0000000000000000     
 PAO| ======================= Iteration:         5 =============================

     Lanczos converged:  F threshold:   0.100E-02
     Est. extremal eigenvalues:    0.466E+01   0.130E+00
     Est. condition number :    0.360E+02

 Order=           3
     NS sqrt iter    1 1.00000000   0.121E+01       0.021     2699.334
     NS sqrt iter    2 1.00000000   0.614E+00       0.034     3370.541
     NS sqrt iter    3 1.00000000   0.193E+00       0.034     3366.437
     NS sqrt iter    4 1.00000000   0.235E-01       0.033     3392.319
     NS sqrt iter    5 1.00000000   0.101E-03       0.034     3358.265
     NS sqrt iter    6 1.00000000   0.228E-10       0.018     2210.520
     Symmetrizing Results
     Final NS sqrt iter    6 1.00000000   0.213E-11

     Est. extremal eigenvalues     -0.83288     2.60980  converged:  T
     TRS4 it   1 1.00000000   0.287E+02       0.007     2091.229   0.100E-11
     TRS4 it   2 1.00000000   0.236E+02       0.013     2194.201   0.100E-11
     TRS4 it   3 1.00000000   0.154E+02       0.013     2191.985   0.100E-11
     TRS4 it   4 1.00000000   0.879E+01       0.013     2219.755   0.100E-11
     TRS4 it   5 1.00000000   0.353E+01       0.013     2214.580   0.100E-11
     TRS4 it   6 1.00000000   0.848E+00       0.013     2189.380   0.100E-11
     TRS4 it   7 1.00000000   0.921E-01       0.013     2197.142   0.100E-11
     TRS4 it   8 1.00000000   0.160E-02       0.013     2201.559   0.100E-11
     TRS4 it   9 1.00000000   0.690E-06       0.013     2237.401   0.100E-11
     TRS4 it  10 1.00000000   0.306E-12       0.013     2223.039   0.100E-11
     Final TRS4 iteration   10 1.00000000   0.306E-12
     Chemical potential (mu):       0.06114
 
 PAO| energy:  -190.32762099746603      penalty:   1.9374591945799263E-003
 PAO|LS| Need extra step
 PAO|LS| adapt:  T T T
 PAO|LS| adapt: scan_steps:    0.0000000000000000       0.40000000000000002       0.80000000000000004     
 PAO|LS| adapt: energies:   -186.59269625469494       -190.71306011783997       -190.32762099746603     
 PAO|LS| adapt: suggested step_size:   0.56578286962090640     
 PAO|LS| adapt: predicted energy  -191.10005170638667     
 PAO| ======================= Iteration:         6 =============================

     Lanczos converged:  F threshold:   0.100E-02
     Est. extremal eigenvalues:    0.503E+01   0.121E+00
     Est. condition number :    0.415E+02

 Order=           3
     NS sqrt iter    1 1.00000000   0.128E+01       0.021     2679.836
     NS sqrt iter    2 1.00000000   0.663E+00       0.034     3353.333
     NS sqrt iter    3 1.00000000   0.224E+00       0.034     3370.556
     NS sqrt iter    4 1.00000000   0.340E-01       0.034     3372.805
     NS sqrt iter    5 1.00000000   0.262E-03       0.034     3379.270
     NS sqrt iter    6 1.00000000   0.337E-09       0.028     2682.508
     Symmetrizing Results
     Final NS sqrt iter    6 1.00000000   0.359E-12

     Est. extremal eigenvalues     -0.83176     2.61038  converged:  T
     TRS4 it   1 1.00000000   0.284E+02       0.007     2123.661   0.100E-11
     TRS4 it   2 1.00000000   0.236E+02       0.013     2207.479   0.100E-11
     TRS4 it   3 1.00000000   0.155E+02       0.013     2196.909   0.100E-11
     TRS4 it   4 1.00000000   0.904E+01       0.013     2202.058   0.100E-11
     TRS4 it   5 1.00000000   0.380E+01       0.013     2175.887   0.100E-11
     TRS4 it   6 1.00000000   0.994E+00       0.013     2201.339   0.100E-11
     TRS4 it   7 1.00000000   0.127E+00       0.013     2199.944   0.100E-11
     TRS4 it   8 1.00000000   0.314E-02       0.013     2184.817   0.100E-11
     TRS4 it   9 1.00000000   0.246E-05       0.013     2163.442   0.100E-11
     TRS4 it  10 1.00000000   0.347E-11       0.013     2208.475   0.100E-11
     Final TRS4 iteration   10 1.00000000   0.347E-11
     Chemical potential (mu):       0.04984
 
 PAO| energy:  -191.07324928478371      penalty:   4.8469863058532857E-004
 PAO|CG| warming up with steepest descent
 PAO|CG| beta:    0.0000000000000000     
 PAO| norm of gradient:   2.1023178190427587     
 PAO| energy improvement:  -4.4805530300887710     
 PAO| step      6                 -191.073249285  0.411E-02  0.566E+00     2.485
 PAO|LS| adapt:  T F F
 PAO|LS| adapt: scan_steps:    0.0000000000000000        0.0000000000000000        0.0000000000000000     
 PAO|LS| adapt: energies:   -191.07324928478371        0.0000000000000000        0.0000000000000000     
 PAO| ======================= Iteration:         7 =============================

     Lanczos converged:  F threshold:   0.100E-02
     Est. extremal eigenvalues:    0.487E+01   0.129E+00
     Est. condition number :    0.377E+02

 Order=           3
     NS sqrt iter    1 1.00000000   0.125E+01       0.021     2690.826
     NS sqrt iter    2 1.00000000   0.638E+00       0.034     3339.940
     NS sqrt iter    3 1.00000000   0.207E+00       0.034     3378.813
     NS sqrt iter    4 1.00000000   0.273E-01       0.034     3375.290
     NS sqrt iter    5 1.00000000   0.144E-03       0.034     3367.587
     NS sqrt iter    6 1.00000000   0.593E-10       0.023     2389.169
     Symmetrizing Results
     Final NS sqrt iter    6 1.00000000   0.206E-11

     Est. extremal eigenvalues     -0.83188     2.59948  converged:  T
     TRS4 it   1 1.00000000   0.285E+02       0.007     2081.617   0.100E-11
     TRS4 it   2 1.00000000   0.236E+02       0.013     2198.807   0.100E-11
     TRS4 it   3 1.00000000   0.156E+02       0.013     2208.168   0.100E-11
     TRS4 it   4 1.00000000   0.916E+01       0.013     2197.216   0.100E-11
     TRS4 it   5 1.00000000   0.388E+01       0.013     2200.471   0.100E-11
     TRS4 it   6 1.00000000   0.102E+01       0.013     2208.670   0.100E-11
     TRS4 it   7 1.00000000   0.129E+00       0.013     2190.182   0.100E-11
     TRS4 it   8 1.00000000   0.318E-02       0.013     2220.512   0.100E-11
     TRS4 it   9 1.00000000   0.275E-05       0.013     2167.814   0.100E-11
     TRS4 it  10 1.00000000   0.523E-11       0.013     2197.846   0.100E-11
     Final TRS4 iteration   10 1.00000000   0.523E-11
     Chemical potential (mu):       0.05172
 
 PAO| energy:  -190.16460457303575      penalty:   6.8109959667229600E-004
 PAO|LS| adapt:  T F T
 PAO|LS| adapt: scan_steps:    0.0000000000000000        0.0000000000000000       0.56578286962090640     
 PAO|LS| adapt: energies:   -191.07324928478371        0.0000000000000000       -190.16460457303575     
 PAO| ======================= Iteration:         8 =============================

     Lanczos converged:  F threshold:   0.100E-02
     Est. extremal eigenvalues:    0.495E+01   0.125E+00
     Est. condition number :    0.395E+02

 Order=           3
     NS sqrt iter    1 1.00000000   0.126E+01       0.021     2672.124
     NS sqrt iter    2 1.00000000   0.650E+00       0.034     3341.771
     NS sqrt iter    3 1.00000000   0.215E+00       0.034     3365.191
     NS sqrt iter    4 1.00000000   0.306E-01       0.034     3352.156
     NS sqrt iter    5 1.00000000   0.195E-03       0.034     3345.661
     NS sqrt iter    6 1.00000000   0.144E-09       0.027     2541.689
     Symmetrizing Results
     Final NS sqrt iter    6 1.00000000   0.123E-11

     Est. extremal eigenvalues     -0.83303     2.60537  converged:  T
     TRS4 it   1 1.00000000   0.284E+02       0.007     2088.034   0.100E-11
     TRS4 it   2 1.00000000   0.236E+02       0.013     2206.493   0.100E-11
     TRS4 it   3 1.00000000   0.155E+02       0.013     2198.899   0.100E-11
     TRS4 it   4 1.00000000   0.907E+01       0.013     2212.824   0.100E-11
     TRS4 it   5 1.00000000   0.382E+01       0.013     2204.919   0.100E-11
     TRS4 it   6 1.00000000   0.998E+00       0.013     2190.737   0.100E-11
     TRS4 it   7 1.00000000   0.127E+00       0.013     2205.721   0.100E-11
     TRS4 it   8 1.00000000   0.314E-02       0.013     2191.135   0.100E-11
     TRS4 it   9 1.00000000   0.256E-05       0.013     2173.585   0.100E-11
     TRS4 it  10 1.00000000   0.409E-11       0.013     2206.548   0.100E-11
     Final TRS4 iteration   10 1.00000000   0.409E-11
     Chemical potential (mu):       0.04960
 
 PAO| energy:  -191.45698463911944      penalty:   5.1429755460353458E-004
 PAO|LS| adapt:  T T T
 PAO|LS| adapt: scan_steps:    0.0000000000000000       0.28289143481045320       0.56578286962090640     
 PAO|LS| adapt: energies:   -191.07324928478371       -191.45698463911944       -190.16460457303575     
 PAO|LS| adapt: suggested step_size:   0.20621180907949035     
 PAO|LS| adapt: predicted energy  -191.51855820396241     
 PAO| ======================= Iteration:         9 =============================

     Lanczos converged:  F threshold:   0.100E-02
     Est. extremal eigenvalues:    0.497E+01   0.124E+00
     Est. condition number :    0.401E+02

 Order=           3
     NS sqrt iter    1 1.00000000   0.127E+01       0.021     2691.839
     NS sqrt iter    2 1.00000000   0.654E+00       0.034     3366.023
     NS sqrt iter    3 1.00000000   0.218E+00       0.034     3368.522
     NS sqrt iter    4 1.00000000   0.315E-01       0.034     3368.130
     NS sqrt iter    5 1.00000000   0.212E-03       0.034     3341.356
     NS sqrt iter    6 1.00000000   0.182E-09       0.027     2609.476
     Symmetrizing Results
     Final NS sqrt iter    6 1.00000000   0.921E-12

     Est. extremal eigenvalues     -0.83293     2.60682  converged:  T
     TRS4 it   1 1.00000000   0.284E+02       0.007     2083.824   0.100E-11
     TRS4 it   2 1.00000000   0.236E+02       0.013     2189.299   0.100E-11
     TRS4 it   3 1.00000000   0.155E+02       0.013     2207.993   0.100E-11
     TRS4 it   4 1.00000000   0.906E+01       0.013     2224.817   0.100E-11
     TRS4 it   5 1.00000000   0.381E+01       0.013     2178.577   0.100E-11
     TRS4 it   6 1.00000000   0.995E+00       0.013     2215.594   0.100E-11
     TRS4 it   7 1.00000000   0.127E+00       0.013     2177.608   0.100E-11
     TRS4 it   8 1.00000000   0.313E-02       0.013     2200.282   0.100E-11
     TRS4 it   9 1.00000000   0.252E-05       0.013     2203.860   0.100E-11
     TRS4 it  10 1.00000000   0.387E-11       0.013     2207.137   0.100E-11
     Final TRS4 iteration   10 1.00000000   0.387E-11
     Chemical potential (mu):       0.04943
 
 PAO| energy:  -191.52299143464558      penalty:   4.9708246247294474E-004
 PAO|CG| trace_G_new   0.75569631989673325     
 PAO|CG| trace_G_prev    4.4197402122647018     
 PAO|CG| trace_G_mix   -4.4676066520759269E-002
 PAO|CG| trace_D    4.4197402122647018     
 PAO|CG| trace_D_Gnew   4.4676066520759269E-002
 PAO|CG| beta:   0.18109036911184806     
 PAO| norm of gradient:  0.86930795458038534     
 PAO| energy improvement: -0.44974214986186212     
 PAO| step      9                 -191.522991435  0.170E-02  0.206E+00     1.537
 PAO|LS| adapt:  T F F
 PAO|LS| adapt: scan_steps:    0.0000000000000000        0.0000000000000000        0.0000000000000000     
 PAO|LS| adapt: energies:   -191.52299143464558        0.0000000000000000        0.0000000000000000     
 PAO| ======================= Iteration:        10 =============================

     Lanczos converged:  F threshold:   0.100E-02
     Est. extremal eigenvalues:    0.491E+01   0.128E+00
     Est. condition number :    0.385E+02

 Order=           3
     NS sqrt iter    1 1.00000000   0.126E+01       0.021     2694.636
     NS sqrt iter    2 1.00000000   0.645E+00       0.034     3353.227
     NS sqrt iter    3 1.00000000   0.212E+00       0.034     3342.502
     NS sqrt iter    4 1.00000000   0.292E-01       0.034     3363.729
     NS sqrt iter    5 1.00000000   0.168E-03       0.034     3342.328
     NS sqrt iter    6 1.00000000   0.904E-10       0.025     2453.807
     Symmetrizing Results
     Final NS sqrt iter    6 1.00000000   0.181E-11

     Est. extremal eigenvalues     -0.83344     2.59133  converged:  T
     TRS4 it   1 1.00000000   0.284E+02       0.007     2109.394   0.100E-11
     TRS4 it   2 1.00000000   0.235E+02       0.013     2205.199   0.100E-11
     TRS4 it   3 1.00000000   0.155E+02       0.013     2200.376   0.100E-11
     TRS4 it   4 1.00000000   0.904E+01       0.013     2190.432   0.100E-11
     TRS4 it   5 1.00000000   0.378E+01       0.013     2200.202   0.100E-11
     TRS4 it   6 1.00000000   0.982E+00       0.013     2175.092   0.100E-11
     TRS4 it   7 1.00000000   0.123E+00       0.013     2190.243   0.100E-11
     TRS4 it   8 1.00000000   0.296E-02       0.013     2210.191   0.100E-11
     TRS4 it   9 1.00000000   0.229E-05       0.013     2169.963   0.100E-11
     TRS4 it  10 1.00000000   0.332E-11       0.013     2199.114   0.100E-11
     Final TRS4 iteration   10 1.00000000   0.332E-11
     Chemical potential (mu):       0.05015
 
 PAO| energy:  -191.62719371660430      penalty:   5.0002919899494371E-004
 PAO|LS| adapt:  T T F
 PAO|LS| adapt: scan_steps:    0.0000000000000000       0.20621180907949035        0.0000000000000000     
 PAO|LS| adapt: energies:   -191.52299143464558       -191.62719371660430        0.0000000000000000     
 PAO| ======================= Iteration:        11 =============================

     Lanczos converged:  F threshold:   0.100E-02
     Est. extremal eigenvalues:    0.486E+01   0.131E+00
     Est. condition number :    0.370E+02

 Order=           3
     NS sqrt iter    1 1.00000000   0.125E+01       0.021     2687.094
     NS sqrt iter    2 1.00000000   0.637E+00       0.034     3358.628
     NS sqrt iter    3 1.00000000   0.206E+00       0.034     3366.514
     NS sqrt iter    4 1.00000000   0.270E-01       0.034     3363.393
     NS sqrt iter    5 1.00000000   0.134E-03       0.034     3343.660
     NS sqrt iter    6 1.00000000   0.444E-10       0.021     2315.448
     Symmetrizing Results
     Final NS sqrt iter    6 1.00000000   0.224E-11

     Est. extremal eigenvalues     -0.83370     2.57556  converged:  T
     TRS4 it   1 1.00000000   0.284E+02       0.007     2119.960   0.100E-11
     TRS4 it   2 1.00000000   0.234E+02       0.013     2199.242   0.100E-11
     TRS4 it   3 1.00000000   0.155E+02       0.013     2244.589   0.100E-11
     TRS4 it   4 1.00000000   0.901E+01       0.013     2210.785   0.100E-11
     TRS4 it   5 1.00000000   0.376E+01       0.013     2210.481   0.100E-11
     TRS4 it   6 1.00000000   0.967E+00       0.013     2212.188   0.100E-11
     TRS4 it   7 1.00000000   0.120E+00       0.013     2205.039   0.100E-11
     TRS4 it   8 1.00000000   0.278E-02       0.013     2189.646   0.100E-11
     TRS4 it   9 1.00000000   0.206E-05       0.013     2188.553   0.100E-11
     TRS4 it  10 1.00000000   0.276E-11       0.013     2203.047   0.100E-11
     Final TRS4 iteration   10 1.00000000   0.276E-11
     Chemical potential (mu):       0.05094
 
 PAO| energy:  -191.63427903499499      penalty:   5.1349736025898575E-004
 PAO|LS| adapt:  T T F
 PAO|LS| adapt: scan_steps:    0.0000000000000000       0.41242361815898071        0.0000000000000000     
 PAO|LS| adapt: energies:   -191.52299143464558       -191.63427903499499        0.0000000000000000     
 PAO| ======================= Iteration:        12 =============================

     Lanczos converged:  F threshold:   0.100E-02
     Est. extremal eigenvalues:    0.476E+01   0.139E+00
     Est. condition number :    0.342E+02

 Order=           3
     NS sqrt iter    1 1.00000000   0.123E+01       0.021     2714.402
     NS sqrt iter    2 1.00000000   0.620E+00       0.034     3324.542
     NS sqrt iter    3 1.00000000   0.195E+00       0.034     3358.757
     NS sqrt iter    4 1.00000000   0.231E-01       0.034     3364.252
     NS sqrt iter    5 1.00000000   0.836E-04       0.034     3356.653
     NS sqrt iter    6 1.00000000   0.103E-10       0.015     2124.396
     Symmetrizing Results
     Final NS sqrt iter    6 1.00000000   0.167E-11

     Est. extremal eigenvalues     -0.83357     2.54965  converged:  T
     TRS4 it   1 1.00000000   0.283E+02       0.007     2129.710   0.100E-11
     TRS4 it   2 1.00000000   0.233E+02       0.013     2196.087   0.100E-11
     TRS4 it   3 1.00000000   0.154E+02       0.013     2208.732   0.100E-11
     TRS4 it   4 1.00000000   0.896E+01       0.013     2206.345   0.100E-11
     TRS4 it   5 1.00000000   0.370E+01       0.013     2194.204   0.100E-11
     TRS4 it   6 1.00000000   0.935E+00       0.013     2204.354   0.100E-11
     TRS4 it   7 1.00000000   0.111E+00       0.013     2221.979   0.100E-11
     TRS4 it   8 1.00000000   0.242E-02       0.013     2217.479   0.100E-11
     TRS4 it   9 1.00000000   0.163E-05       0.013     2175.335   0.100E-11
     TRS4 it  10 1.00000000   0.180E-11       0.013     2178.824   0.100E-11
     Final TRS4 iteration   10 1.00000000   0.180E-11
     Chemical potential (mu):       0.05274
 
 PAO| energy:  -191.37471374702849      penalty:   5.7989092073562067E-004
 PAO|LS| Need extra step
 PAO|LS| adapt:  T T T
 PAO|LS| adapt: scan_steps:    0.0000000000000000       0.41242361815898071       0.82484723631796142     
 PAO|LS| adapt: energies:   -191.52299143464558       -191.63427903499499       -191.37471374702849     
 PAO|LS| adapt: suggested step_size:   0.32997418558615027     
 PAO|LS| adapt: predicted energy  -191.64168974734812     
 PAO| ======================= Iteration:        13 =============================

     Lanczos converged:  F threshold:   0.100E-02
     Est. extremal eigenvalues:    0.488E+01   0.130E+00
     Est. condition number :    0.376E+02

 Order=           3
     NS sqrt iter    1 1.00000000   0.125E+01       0.021     2666.680
     NS sqrt iter    2 1.00000000   0.640E+00       0.034     3355.393
     NS sqrt iter    3 1.00000000   0.208E+00       0.034     3342.712
     NS sqrt iter    4 1.00000000   0.279E-01       0.034     3369.603
     NS sqrt iter    5 1.00000000   0.147E-03       0.034     3341.935
     NS sqrt iter    6 1.00000000   0.591E-10       0.023     2365.100
     Symmetrizing Results
     Final NS sqrt iter    6 1.00000000   0.213E-11

     Est. extremal eigenvalues     -0.83362     2.58189  converged:  T
     TRS4 it   1 1.00000000   0.284E+02       0.007     2141.285   0.100E-11
     TRS4 it   2 1.00000000   0.234E+02       0.013     2207.734   0.100E-11
     TRS4 it   3 1.00000000   0.155E+02       0.013     2202.938   0.100E-11
     TRS4 it   4 1.00000000   0.902E+01       0.013     2215.685   0.100E-11
     TRS4 it   5 1.00000000   0.377E+01       0.013     2189.559   0.100E-11
     TRS4 it   6 1.00000000   0.973E+00       0.013     2224.059   0.100E-11
     TRS4 it   7 1.00000000   0.121E+00       0.013     2203.059   0.100E-11
     TRS4 it   8 1.00000000   0.285E-02       0.013     2196.453   0.100E-11
     TRS4 it   9 1.00000000   0.215E-05       0.013     2203.192   0.100E-11
     TRS4 it  10 1.00000000   0.298E-11       0.013     2228.240   0.100E-11
     Final TRS4 iteration   10 1.00000000   0.298E-11
     Chemical potential (mu):       0.05061
 
 PAO| energy:  -191.64282272250210      penalty:   5.0675844350706978E-004
 PAO|CG| trace_G_new   0.28894702796039634     
 PAO|CG| trace_G_prev   0.75569631989673325     
 PAO|CG| trace_G_mix   -1.2576604809856257E-002
 PAO|CG| trace_D   0.88445524002658826     
 PAO|CG| trace_D_Gnew   1.2552058072016798E-002
 PAO|CG| beta:   0.39900106012353770     
 PAO| norm of gradient:  0.53753793164798735     
 PAO| energy improvement: -0.11983128785652752     
 PAO| step     13                 -191.642822723  0.105E-02  0.330E+00     1.979
 PAO|LS| adapt:  T F F
 PAO|LS| adapt: scan_steps:    0.0000000000000000        0.0000000000000000        0.0000000000000000     
 PAO|LS| adapt: energies:   -191.64282272250210        0.0000000000000000        0.0000000000000000     
 PAO| ======================= Iteration:        14 =============================

     Lanczos converged:  F threshold:   0.100E-02
     Est. extremal eigenvalues:    0.481E+01   0.133E+00
     Est. condition number :    0.362E+02

 Order=           3
     NS sqrt iter    1 1.00000000   0.124E+01       0.021     2690.171
     NS sqrt iter    2 1.00000000   0.629E+00       0.034     3352.519
     NS sqrt iter    3 1.00000000   0.202E+00       0.034     3344.565
     NS sqrt iter    4 1.00000000   0.257E-01       0.034     3359.916
     NS sqrt iter    5 1.00000000   0.116E-03       0.034     3367.637
     NS sqrt iter    6 1.00000000   0.297E-10       0.019     2243.624
     Symmetrizing Results
     Final NS sqrt iter    6 1.00000000   0.228E-11

     Est. extremal eigenvalues     -0.83399     2.57515  converged:  T
     TRS4 it   1 1.00000000   0.284E+02       0.007     2098.225   0.100E-11
     TRS4 it   2 1.00000000   0.234E+02       0.013     2190.593   0.100E-11
     TRS4 it   3 1.00000000   0.155E+02       0.013     2217.973   0.100E-11
     TRS4 it   4 1.00000000   0.896E+01       0.013     2191.054   0.100E-11
     TRS4 it   5 1.00000000   0.371E+01       0.013     2215.687   0.100E-11
     TRS4 it   6 1.00000000   0.943E+00       0.013     2198.257   0.100E-11
     TRS4 it   7 1.00000000   0.114E+00       0.013     2198.754   0.100E-11
     TRS4 it   8 1.00000000   0.251E-02       0.013     2215.579   0.100E-11
     TRS4 it   9 1.00000000   0.171E-05       0.013     2232.706   0.100E-11
     TRS4 it  10 1.00000000   0.193E-11       0.013     2195.896   0.100E-11
     Final TRS4 iteration   10 1.00000000   0.193E-11
     Chemical potential (mu):       0.05236
 
 PAO| energy:  -191.69723682303169      penalty:   5.0989858132009726E-004
 PAO|LS| adapt:  T T F
 PAO|LS| adapt: scan_steps:    0.0000000000000000       0.32997418558615027        0.0000000000000000     
 PAO|LS| adapt: energies:   -191.64282272250210       -191.69723682303169        0.0000000000000000     
 PAO| ======================= Iteration:        15 =============================

     Lanczos converged:  F threshold:   0.100E-02
     Est. extremal eigenvalues:    0.474E+01   0.136E+00
     Est. condition number :    0.349E+02

 Order=           3
     NS sqrt iter    1 1.00000000   0.122E+01       0.021     2708.442
     NS sqrt iter    2 1.00000000   0.618E+00       0.034     3370.187
     NS sqrt iter    3 1.00000000   0.196E+00       0.034     3374.051
     NS sqrt iter    4 1.00000000   0.237E-01       0.034     3379.317
     NS sqrt iter    5 1.00000000   0.928E-04       0.034     3360.154
     NS sqrt iter    6 1.00000000   0.150E-10       0.016     2158.691
     Symmetrizing Results
     Final NS sqrt iter    6 1.00000000   0.192E-11

     Est. extremal eigenvalues     -0.83409     2.56779  converged:  T
     TRS4 it   1 1.00000000   0.285E+02       0.007     2137.952   0.100E-11
     TRS4 it   2 1.00000000   0.234E+02       0.013     2212.480   0.100E-11
     TRS4 it   3 1.00000000   0.154E+02       0.013     2181.202   0.100E-11
     TRS4 it   4 1.00000000   0.890E+01       0.013     2209.512   0.100E-11
     TRS4 it   5 1.00000000   0.365E+01       0.013     2189.077   0.100E-11
     TRS4 it   6 1.00000000   0.913E+00       0.013     2195.914   0.100E-11
     TRS4 it   7 1.00000000   0.107E+00       0.013     2213.745   0.100E-11
     TRS4 it   8 1.00000000   0.222E-02       0.013     2194.742   0.100E-11
     TRS4 it   9 1.00000000   0.137E-05       0.013     2184.902   0.100E-11
     TRS4 it  10 1.00000000   0.125E-11       0.013     2214.281   0.100E-11
     Final TRS4 iteration   10 1.00000000   0.125E-11
     Chemical potential (mu):       0.05402
 
 PAO| energy:  -191.67430870717283      penalty:   5.2903150890374652E-004
 PAO|LS| adapt:  T T T
 PAO|LS| adapt: scan_steps:    0.0000000000000000       0.32997418558615027       0.65994837117230054     
 PAO|LS| adapt: energies:   -191.64282272250210       -191.69723682303169       -191.67430870717283     
 PAO|LS| adapt: suggested step_size:   0.39714036360799115     
 PAO|LS| adapt: predicted energy  -191.69883906446751     
 PAO| ======================= Iteration:        16 =============================

     Lanczos converged:  F threshold:   0.100E-02
     Est. extremal eigenvalues:    0.479E+01   0.133E+00
     Est. condition number :    0.359E+02

 Order=           3
     NS sqrt iter    1 1.00000000   0.123E+01       0.021     2685.936
     NS sqrt iter    2 1.00000000   0.627E+00       0.034     3364.235
     NS sqrt iter    3 1.00000000   0.201E+00       0.034     3355.473
     NS sqrt iter    4 1.00000000   0.252E-01       0.034     3331.896
     NS sqrt iter    5 1.00000000   0.111E-03       0.034     3352.159
     NS sqrt iter    6 1.00000000   0.259E-10       0.019     2210.358
     Symmetrizing Results
     Final NS sqrt iter    6 1.00000000   0.220E-11

     Est. extremal eigenvalues     -0.83404     2.57370  converged:  T
     TRS4 it   1 1.00000000   0.284E+02       0.007     2121.451   0.100E-11
     TRS4 it   2 1.00000000   0.234E+02       0.013     2202.777   0.100E-11
     TRS4 it   3 1.00000000   0.154E+02       0.013     2216.403   0.100E-11
     TRS4 it   4 1.00000000   0.895E+01       0.013     2219.200   0.100E-11
     TRS4 it   5 1.00000000   0.370E+01       0.013     2193.364   0.100E-11
     TRS4 it   6 1.00000000   0.936E+00       0.013     2210.334   0.100E-11
     TRS4 it   7 1.00000000   0.112E+00       0.013     2216.074   0.100E-11
     TRS4 it   8 1.00000000   0.245E-02       0.013     2199.687   0.100E-11
     TRS4 it   9 1.00000000   0.164E-05       0.013     2193.530   0.100E-11
     TRS4 it  10 1.00000000   0.177E-11       0.013     2198.204   0.100E-11
     Final TRS4 iteration   10 1.00000000   0.177E-11
     Chemical potential (mu):       0.05271
 
 PAO| energy:  -191.69877875431098      penalty:   5.1244059894564186E-004
 PAO|CG| trace_G_new   0.10942264531557269     
 PAO|CG| trace_G_prev   0.28894702796039634     
 PAO|CG| trace_G_mix    4.6578195761651786E-003
 PAO|CG| trace_D   0.41973736590412014     
 PAO|CG| trace_D_Gnew   8.2294677251316842E-004
 PAO|CG| beta:   0.36257450536493074     
 PAO| norm of gradient:  0.33079093898650352     
 PAO| energy improvement:  -5.5956031808875650E-002
 PAO| step     16                 -191.698778754  0.646E-03  0.397E+00     1.514
 PAO|LS| adapt:  T F F
 PAO|LS| adapt: scan_steps:    0.0000000000000000        0.0000000000000000        0.0000000000000000     
 PAO|LS| adapt: energies:   -191.69877875431098        0.0000000000000000        0.0000000000000000     
 PAO| ======================= Iteration:        17 =============================

     Lanczos converged:  F threshold:   0.100E-02
     Est. extremal eigenvalues:    0.475E+01   0.134E+00
     Est. condition number :    0.354E+02

 Order=           3
     NS sqrt iter    1 1.00000000   0.122E+01       0.021     2705.229
     NS sqrt iter    2 1.00000000   0.622E+00       0.034     3356.468
     NS sqrt iter    3 1.00000000   0.198E+00       0.034     3357.431
     NS sqrt iter    4 1.00000000   0.244E-01       0.034     3348.344
     NS sqrt iter    5 1.00000000   0.101E-03       0.034     3344.015
     NS sqrt iter    6 1.00000000   0.192E-10       0.017     2184.783
     Symmetrizing Results
     Final NS sqrt iter    6 1.00000000   0.202E-11

     Est. extremal eigenvalues     -0.83408     2.57099  converged:  T
     TRS4 it   1 1.00000000   0.285E+02       0.007     2104.733   0.100E-11
     TRS4 it   2 1.00000000   0.234E+02       0.013     2230.316   0.100E-11
     TRS4 it   3 1.00000000   0.154E+02       0.013     2210.133   0.100E-11
     TRS4 it   4 1.00000000   0.890E+01       0.013     2191.052   0.100E-11
     TRS4 it   5 1.00000000   0.365E+01       0.013     2198.024   0.100E-11
     TRS4 it   6 1.00000000   0.916E+00       0.013     2197.216   0.100E-11
     TRS4 it   7 1.00000000   0.108E+00       0.013     2189.116   0.100E-11
     TRS4 it   8 1.00000000   0.226E-02       0.013     2172.552   0.100E-11
     TRS4 it   9 1.00000000   0.140E-05       0.013     2190.690   0.100E-11
     TRS4 it  10 1.00000000   0.132E-11       0.013     2227.595   0.100E-11
     Final TRS4 iteration   10 1.00000000   0.132E-11
     Chemical potential (mu):       0.05379
 
 PAO| energy:  -191.70265610096143      penalty:   5.0598104672986940E-004
 PAO|LS| adapt:  T T F
 PAO|LS| adapt: scan_steps:    0.0000000000000000       0.39714036360799115        0.0000000000000000     
 PAO|LS| adapt: energies:   -191.69877875431098       -191.70265610096143        0.0000000000000000     
 PAO| ======================= Iteration:        18 =============================

     Lanczos converged:  F threshold:   0.100E-02
     Est. extremal eigenvalues:    0.472E+01   0.135E+00
     Est. condition number :    0.349E+02

 Order=           3
     NS sqrt iter    1 1.00000000   0.122E+01       0.021     2684.105
     NS sqrt iter    2 1.00000000   0.617E+00       0.033     3381.757
     NS sqrt iter    3 1.00000000   0.195E+00       0.034     3372.374
     NS sqrt iter    4 1.00000000   0.236E-01       0.033     3380.953
     NS sqrt iter    5 1.00000000   0.916E-04       0.034     3369.526
     NS sqrt iter    6 1.00000000   0.142E-10       0.016     2171.349
     Symmetrizing Results
     Final NS sqrt iter    6 1.00000000   0.191E-11

     Est. extremal eigenvalues     -0.83400     2.56801  converged:  T
     TRS4 it   1 1.00000000   0.285E+02       0.007     2123.956   0.100E-11
     TRS4 it   2 1.00000000   0.233E+02       0.013     2203.390   0.100E-11
     TRS4 it   3 1.00000000   0.154E+02       0.013     2200.277   0.100E-11
     TRS4 it   4 1.00000000   0.885E+01       0.013     2215.837   0.100E-11
     TRS4 it   5 1.00000000   0.361E+01       0.013     2200.868   0.100E-11
     TRS4 it   6 1.00000000   0.897E+00       0.013     2210.123   0.100E-11
     TRS4 it   7 1.00000000   0.104E+00       0.013     2210.875   0.100E-11
     TRS4 it   8 1.00000000   0.208E-02       0.013     2210.306   0.100E-11
     TRS4 it   9 1.00000000   0.121E-05       0.013     2180.196   0.100E-11
     TRS4 it  10 1.00000000   0.981E-12       0.013     2171.401   0.100E-11
     Final TRS4 iteration   10 1.00000000   0.981E-12
     Chemical potential (mu):       0.05495
 
 PAO| energy:  -191.62746823893644      penalty:   5.0774061465330244E-004
 PAO|LS| adapt:  T T T
 PAO|LS| adapt: scan_steps:    0.0000000000000000       0.39714036360799115       0.79428072721598231     
 PAO|LS| adapt: energies:   -191.69877875431098       -191.70265610096143       -191.62746823893644     
 PAO|LS| adapt: suggested step_size:   0.21804588906377051     
 PAO|LS| adapt: predicted energy  -191.71069565098631     
 PAO| ======================= Iteration:        19 =============================

     Lanczos converged:  F threshold:   0.100E-02
     Est. extremal eigenvalues:    0.477E+01   0.134E+00
     Est. condition number :    0.356E+02

 Order=           3
     NS sqrt iter    1 1.00000000   0.123E+01       0.021     2679.471
     NS sqrt iter    2 1.00000000   0.624E+00       0.034     3363.706
     NS sqrt iter    3 1.00000000   0.199E+00       0.034     3344.928
     NS sqrt iter    4 1.00000000   0.248E-01       0.034     3354.059
     NS sqrt iter    5 1.00000000   0.105E-03       0.034     3366.219
     NS sqrt iter    6 1.00000000   0.219E-10       0.018     2171.132
     Symmetrizing Results
     Final NS sqrt iter    6 1.00000000   0.209E-11

     Est. extremal eigenvalues     -0.83408     2.57224  converged:  T
     TRS4 it   1 1.00000000   0.284E+02       0.007     2115.852   0.100E-11
     TRS4 it   2 1.00000000   0.234E+02       0.013     2193.100   0.100E-11
     TRS4 it   3 1.00000000   0.154E+02       0.013     2200.604   0.100E-11
     TRS4 it   4 1.00000000   0.892E+01       0.013     2186.751   0.100E-11
     TRS4 it   5 1.00000000   0.367E+01       0.013     2207.265   0.100E-11
     TRS4 it   6 1.00000000   0.925E+00       0.013     2213.537   0.100E-11
     TRS4 it   7 1.00000000   0.110E+00       0.013     2177.139   0.100E-11
     TRS4 it   8 1.00000000   0.234E-02       0.013     2186.170   0.100E-11
     TRS4 it   9 1.00000000   0.150E-05       0.013     2174.255   0.100E-11
     TRS4 it  10 1.00000000   0.153E-11       0.013     2173.395   0.100E-11
     Final TRS4 iteration   10 1.00000000   0.153E-11
     Chemical potential (mu):       0.05329
 
 PAO| energy:  -191.71068484267155      penalty:   5.0789793315545036E-004
 PAO|CG| trace_G_new    2.1601029657719678E-002
 PAO|CG| trace_G_prev   0.10942264531557269     
 PAO|CG| trace_G_mix   -3.8733962971590811E-004
 PAO|CG| trace_D   0.16400467454299836     
 PAO|CG| trace_D_Gnew  -3.9530408204896828E-005
 PAO|CG| beta:   0.20094898294609470     
 PAO| norm of gradient:  0.14697288749194418     
 PAO| energy improvement:  -1.1906088360575495E-002
 PAO| step     19                 -191.710684843  0.287E-03  0.218E+00     1.511
 PAO|LS| adapt:  T F F
 PAO|LS| adapt: scan_steps:    0.0000000000000000        0.0000000000000000        0.0000000000000000     
 PAO|LS| adapt: energies:   -191.71068484267155        0.0000000000000000        0.0000000000000000     
 PAO| ======================= Iteration:        20 =============================

     Lanczos converged:  F threshold:   0.100E-02
     Est. extremal eigenvalues:    0.477E+01   0.134E+00
     Est. condition number :    0.356E+02

 Order=           3
     NS sqrt iter    1 1.00000000   0.123E+01       0.021     2689.679
     NS sqrt iter    2 1.00000000   0.623E+00       0.034     3355.244
     NS sqrt iter    3 1.00000000   0.199E+00       0.034     3346.303
     NS sqrt iter    4 1.00000000   0.248E-01       0.034     3348.006
     NS sqrt iter    5 1.00000000   0.105E-03       0.034     3375.131
     NS sqrt iter    6 1.00000000   0.215E-10       0.018     2198.511
     Symmetrizing Results
     Final NS sqrt iter    6 1.00000000   0.208E-11

     Est. extremal eigenvalues     -0.83409     2.57098  converged:  T
     TRS4 it   1 1.00000000   0.285E+02       0.007     2092.111   0.100E-11
     TRS4 it   2 1.00000000   0.234E+02       0.013     2178.298   0.100E-11
     TRS4 it   3 1.00000000   0.154E+02       0.013     2213.292   0.100E-11
     TRS4 it   4 1.00000000   0.891E+01       0.013     2189.732   0.100E-11
     TRS4 it   5 1.00000000   0.366E+01       0.013     2187.394   0.100E-11
     TRS4 it   6 1.00000000   0.921E+00       0.013     2240.406   0.100E-11
     TRS4 it   7 1.00000000   0.109E+00       0.013     2182.401   0.100E-11
     TRS4 it   8 1.00000000   0.231E-02       0.013     2185.219   0.100E-11
     TRS4 it   9 1.00000000   0.146E-05       0.013     2179.758   0.100E-11
     TRS4 it  10 1.00000000   0.144E-11       0.013     2184.525   0.100E-11
     Final TRS4 iteration   10 1.00000000   0.144E-11
     Chemical potential (mu):       0.05346
 
 PAO| energy:  -191.71449922376010      penalty:   4.9839003626590275E-004
 PAO|LS| adapt:  T T F
 PAO|LS| adapt: scan_steps:    0.0000000000000000       0.21804588906377051        0.0000000000000000     
 PAO|LS| adapt: energies:   -191.71068484267155       -191.71449922376010        0.0000000000000000     
 PAO| ======================= Iteration:        21 =============================

     Lanczos converged:  F threshold:   0.100E-02
     Est. extremal eigenvalues:    0.476E+01   0.134E+00
     Est. condition number :    0.356E+02

 Order=           3
     NS sqrt iter    1 1.00000000   0.122E+01       0.021     2691.089
     NS sqrt iter    2 1.00000000   0.623E+00       0.034     3376.789
     NS sqrt iter    3 1.00000000   0.199E+00       0.033     3383.123
     NS sqrt iter    4 1.00000000   0.247E-01       0.034     3354.596
     NS sqrt iter    5 1.00000000   0.104E-03       0.033     3381.971
     NS sqrt iter    6 1.00000000   0.211E-10       0.018     2187.717
     Symmetrizing Results
     Final NS sqrt iter    6 1.00000000   0.206E-11

     Est. extremal eigenvalues     -0.83409     2.56971  converged:  T
     TRS4 it   1 1.00000000   0.285E+02       0.007     2114.108   0.100E-11
     TRS4 it   2 1.00000000   0.234E+02       0.013     2183.689   0.100E-11
     TRS4 it   3 1.00000000   0.154E+02       0.013     2202.917   0.100E-11
     TRS4 it   4 1.00000000   0.890E+01       0.013     2170.327   0.100E-11
     TRS4 it   5 1.00000000   0.365E+01       0.013     2181.653   0.100E-11
     TRS4 it   6 1.00000000   0.917E+00       0.013     2195.264   0.100E-11
     TRS4 it   7 1.00000000   0.108E+00       0.013     2185.657   0.100E-11
     TRS4 it   8 1.00000000   0.227E-02       0.013     2200.725   0.100E-11
     TRS4 it   9 1.00000000   0.142E-05       0.013     2183.726   0.100E-11
     TRS4 it  10 1.00000000   0.136E-11       0.013     2177.289   0.100E-11
     Final TRS4 iteration   10 1.00000000   0.136E-11
     Chemical potential (mu):       0.05363
 
 PAO| energy:  -191.71650619916932      penalty:   4.8929941737209978E-004
 PAO|LS| adapt:  T T F
 PAO|LS| adapt: scan_steps:    0.0000000000000000       0.43609177812754102        0.0000000000000000     
 PAO|LS| adapt: energies:   -191.71068484267155       -191.71650619916932        0.0000000000000000     
 PAO| ======================= Iteration:        22 =============================

     Lanczos converged:  F threshold:   0.100E-02
     Est. extremal eigenvalues:    0.475E+01   0.134E+00
     Est. condition number :    0.355E+02

 Order=           3
     NS sqrt iter    1 1.00000000   0.122E+01       0.021     2692.072
     NS sqrt iter    2 1.00000000   0.622E+00       0.033     3380.958
     NS sqrt iter    3 1.00000000   0.199E+00       0.034     3378.479
     NS sqrt iter    4 1.00000000   0.247E-01       0.034     3370.463
     NS sqrt iter    5 1.00000000   0.104E-03       0.034     3362.607
     NS sqrt iter    6 1.00000000   0.204E-10       0.018     2140.713
     Symmetrizing Results
     Final NS sqrt iter    6 1.00000000   0.206E-11

     Est. extremal eigenvalues     -0.83410     2.56710  converged:  T
     TRS4 it   1 1.00000000   0.285E+02       0.007     2111.789   0.100E-11
     TRS4 it   2 1.00000000   0.233E+02       0.013     2171.294   0.100E-11
     TRS4 it   3 1.00000000   0.154E+02       0.013     2196.838   0.100E-11
     TRS4 it   4 1.00000000   0.888E+01       0.013     2192.985   0.100E-11
     TRS4 it   5 1.00000000   0.363E+01       0.013     2193.830   0.100E-11
     TRS4 it   6 1.00000000   0.909E+00       0.013     2199.806   0.100E-11
     TRS4 it   7 1.00000000   0.107E+00       0.013     2188.658   0.100E-11
     TRS4 it   8 1.00000000   0.220E-02       0.013     2209.231   0.100E-11
     TRS4 it   9 1.00000000   0.135E-05       0.013     2199.711   0.100E-11
     TRS4 it  10 1.00000000   0.121E-11       0.013     2205.722   0.100E-11
     Final TRS4 iteration   10 1.00000000   0.121E-11
     Chemical potential (mu):       0.05398
 
 PAO| energy:  -191.71502125949368      penalty:   4.7234444268065058E-004
 PAO|LS| Need extra step
 PAO|LS| adapt:  T T T
 PAO|LS| adapt: scan_steps:    0.0000000000000000       0.43609177812754102       0.87218355625508204     
 PAO|LS| adapt: energies:   -191.71068484267155       -191.71650619916932       -191.71502125949368     
 PAO|LS| adapt: suggested step_size:   0.56550589423943542     
 PAO|LS| adapt: predicted energy  -191.71682791674019     
 PAO| ======================= Iteration:        23 =============================

     Lanczos converged:  F threshold:   0.100E-02
     Est. extremal eigenvalues:    0.476E+01   0.134E+00
     Est. condition number :    0.356E+02

 Order=           3
     NS sqrt iter    1 1.00000000   0.122E+01       0.021     2698.173
     NS sqrt iter    2 1.00000000   0.623E+00       0.034     3346.126
     NS sqrt iter    3 1.00000000   0.199E+00       0.034     3334.974
     NS sqrt iter    4 1.00000000   0.247E-01       0.034     3357.272
     NS sqrt iter    5 1.00000000   0.104E-03       0.034     3362.304
     NS sqrt iter    6 1.00000000   0.209E-10       0.018     2174.711
     Symmetrizing Results
     Final NS sqrt iter    6 1.00000000   0.206E-11

     Est. extremal eigenvalues     -0.83410     2.56894  converged:  T
     TRS4 it   1 1.00000000   0.285E+02       0.007     2149.527   0.100E-11
     TRS4 it   2 1.00000000   0.233E+02       0.013     2189.299   0.100E-11
     TRS4 it   3 1.00000000   0.154E+02       0.013     2166.340   0.100E-11
     TRS4 it   4 1.00000000   0.889E+01       0.013     2204.344   0.100E-11
     TRS4 it   5 1.00000000   0.365E+01       0.013     2225.130   0.100E-11
     TRS4 it   6 1.00000000   0.915E+00       0.013     2169.584   0.100E-11
     TRS4 it   7 1.00000000   0.108E+00       0.013     2214.244   0.100E-11
     TRS4 it   8 1.00000000   0.225E-02       0.013     2213.306   0.100E-11
     TRS4 it   9 1.00000000   0.140E-05       0.013     2223.927   0.100E-11
     TRS4 it  10 1.00000000   0.133E-11       0.013     2179.902   0.100E-11
     Final TRS4 iteration   10 1.00000000   0.133E-11
     Chemical potential (mu):       0.05373
 
 PAO| energy:  -191.71683485569957      penalty:   4.8409847379338666E-004
 PAO|CG| trace_G_new    1.6970819999969564E-002
 PAO|CG| trace_G_prev    2.1601029657719678E-002
 PAO|CG| trace_G_mix    1.1053577619592235E-004
 PAO|CG| trace_D    2.8239506583241886E-002
 PAO|CG| trace_D_Gnew  -4.3325730191708485E-005
 PAO|CG| beta:   0.78053150664270254     
 PAO| norm of gradient:  0.13027209985246097     
 PAO| energy improvement:  -6.1500130280194298E-003
 PAO| step     23                 -191.716834856  0.254E-03  0.566E+00     1.965
 PAO|LS| adapt:  T F F
 PAO|LS| adapt: scan_steps:    0.0000000000000000        0.0000000000000000        0.0000000000000000     
 PAO|LS| adapt: energies:   -191.71683485569957        0.0000000000000000        0.0000000000000000     
 PAO| ======================= Iteration:        24 =============================

     Lanczos converged:  F threshold:   0.100E-02
     Est. extremal eigenvalues:    0.474E+01   0.134E+00
     Est. condition number :    0.355E+02

 Order=           3
     NS sqrt iter    1 1.00000000   0.122E+01       0.021     2683.802
     NS sqrt iter    2 1.00000000   0.621E+00       0.033     3383.482
     NS sqrt iter    3 1.00000000   0.198E+00       0.034     3380.136
     NS sqrt iter    4 1.00000000   0.247E-01       0.033     3383.263
     NS sqrt iter    5 1.00000000   0.104E-03       0.034     3348.547
     NS sqrt iter    6 1.00000000   0.203E-10       0.018     2183.371
     Symmetrizing Results
     Final NS sqrt iter    6 1.00000000   0.203E-11

     Est. extremal eigenvalues     -0.83412     2.56580  converged:  T
     TRS4 it   1 1.00000000   0.285E+02       0.007     2133.529   0.100E-11
     TRS4 it   2 1.00000000   0.233E+02       0.013     2220.961   0.100E-11
     TRS4 it   3 1.00000000   0.154E+02       0.013     2203.898   0.100E-11
     TRS4 it   4 1.00000000   0.887E+01       0.013     2209.129   0.100E-11
     TRS4 it   5 1.00000000   0.362E+01       0.013     2191.832   0.100E-11
     TRS4 it   6 1.00000000   0.905E+00       0.013     2182.685   0.100E-11
     TRS4 it   7 1.00000000   0.106E+00       0.013     2220.498   0.100E-11
     TRS4 it   8 1.00000000   0.218E-02       0.013     2231.460   0.100E-11
     TRS4 it   9 1.00000000   0.133E-05       0.013     2174.416   0.100E-11
     TRS4 it  10 1.00000000   0.117E-11       0.013     2195.916   0.100E-11
     Final TRS4 iteration   10 1.00000000   0.117E-11
     Chemical potential (mu):       0.05406
 
 PAO| energy:  -191.71976135873470      penalty:   4.4636349421740563E-004
 PAO|LS| adapt:  T T F
 PAO|LS| adapt: scan_steps:    0.0000000000000000       0.56550589423943542        0.0000000000000000     
 PAO|LS| adapt: energies:   -191.71683485569957       -191.71976135873470        0.0000000000000000     
 PAO| ======================= Iteration:        25 =============================

     Lanczos converged:  F threshold:   0.100E-02
     Est. extremal eigenvalues:    0.473E+01   0.133E+00
     Est. condition number :    0.354E+02

 Order=           3
     NS sqrt iter    1 1.00000000   0.122E+01       0.021     2693.865
     NS sqrt iter    2 1.00000000   0.620E+00       0.034     3368.198
     NS sqrt iter    3 1.00000000   0.198E+00       0.034     3308.023
     NS sqrt iter    4 1.00000000   0.246E-01       0.034     3358.080
     NS sqrt iter    5 1.00000000   0.103E-03       0.034     3367.017
     NS sqrt iter    6 1.00000000   0.199E-10       0.018     2165.412
     Symmetrizing Results
     Final NS sqrt iter    6 1.00000000   0.203E-11

     Est. extremal eigenvalues     -0.83413     2.56390  converged:  T
     TRS4 it   1 1.00000000   0.285E+02       0.007     2128.585   0.100E-11
     TRS4 it   2 1.00000000   0.233E+02       0.013     2174.374   0.100E-11
     TRS4 it   3 1.00000000   0.154E+02       0.013     2205.309   0.100E-11
     TRS4 it   4 1.00000000   0.884E+01       0.013     2187.975   0.100E-11
     TRS4 it   5 1.00000000   0.360E+01       0.013     2209.900   0.100E-11
     TRS4 it   6 1.00000000   0.896E+00       0.013     2188.106   0.100E-11
     TRS4 it   7 1.00000000   0.104E+00       0.013     2195.628   0.100E-11
     TRS4 it   8 1.00000000   0.211E-02       0.013     2199.289   0.100E-11
     TRS4 it   9 1.00000000   0.126E-05       0.013     2175.282   0.100E-11
     TRS4 it  10 1.00000000   0.108E-11       0.013     2205.336   0.100E-11
     Final TRS4 iteration   10 1.00000000   0.108E-11
     Chemical potential (mu):       0.05439
 
 PAO| energy:  -191.70909850724624      penalty:   4.1272660820882345E-004
 PAO|LS| adapt:  T T T
 PAO|LS| adapt: scan_steps:    0.0000000000000000       0.56550589423943542        1.1310117884788708     
 PAO|LS| adapt: energies:   -191.71683485569957       -191.71976135873470       -191.70909850724624     
 PAO|LS| adapt: suggested step_size:   0.40453612033821940     
 PAO|LS| adapt: predicted energy  -191.72031189157354     
 PAO| ======================= Iteration:        26 =============================

     Lanczos converged:  F threshold:   0.100E-02
     Est. extremal eigenvalues:    0.475E+01   0.134E+00
     Est. condition number :    0.355E+02

 Order=           3
     NS sqrt iter    1 1.00000000   0.122E+01       0.021     2691.777
     NS sqrt iter    2 1.00000000   0.622E+00       0.034     3360.435
     NS sqrt iter    3 1.00000000   0.199E+00       0.034     3372.085
     NS sqrt iter    4 1.00000000   0.247E-01       0.034     3367.654
     NS sqrt iter    5 1.00000000   0.104E-03       0.034     3363.068
     NS sqrt iter    6 1.00000000   0.205E-10       0.017     2208.485
     Symmetrizing Results
     Final NS sqrt iter    6 1.00000000   0.205E-11

     Est. extremal eigenvalues     -0.83412     2.56669  converged:  T
     TRS4 it   1 1.00000000   0.285E+02       0.007     2120.133   0.100E-11
     TRS4 it   2 1.00000000   0.233E+02       0.013     2181.814   0.100E-11
     TRS4 it   3 1.00000000   0.154E+02       0.013     2200.614   0.100E-11
     TRS4 it   4 1.00000000   0.887E+01       0.013     2200.333   0.100E-11
     TRS4 it   5 1.00000000   0.363E+01       0.013     2203.246   0.100E-11
     TRS4 it   6 1.00000000   0.908E+00       0.013     2199.716   0.100E-11
     TRS4 it   7 1.00000000   0.106E+00       0.013     2203.724   0.100E-11
     TRS4 it   8 1.00000000   0.220E-02       0.013     2197.727   0.100E-11
     TRS4 it   9 1.00000000   0.135E-05       0.013     2201.292   0.100E-11
     TRS4 it  10 1.00000000   0.122E-11       0.013     2207.361   0.100E-11
     Final TRS4 iteration   10 1.00000000   0.122E-11
     Chemical potential (mu):       0.05397
 
 PAO| energy:  -191.72029807810617      penalty:   4.5667955431841017E-004
 PAO|CG| trace_G_new    1.2629068631542506E-002
 PAO|CG| trace_G_prev    1.6970819999969564E-002
 PAO|CG| trace_G_mix    2.3390817451236946E-004
 PAO|CG| trace_D    3.4242792774904530E-002
 PAO|CG| trace_D_Gnew  -7.0473592928439678E-005
 PAO|CG| beta:   0.73038076280653297     
 PAO| norm of gradient:  0.11237912898551272     
 PAO| energy improvement:  -3.4632224065944683E-003
 PAO| step     26                 -191.720298078  0.219E-03  0.405E+00     1.511
 PAO|LS| adapt:  T F F
 PAO|LS| adapt: scan_steps:    0.0000000000000000        0.0000000000000000        0.0000000000000000     
 PAO|LS| adapt: energies:   -191.72029807810617        0.0000000000000000        0.0000000000000000     
 PAO| ======================= Iteration:        27 =============================

     Lanczos converged:  F threshold:   0.100E-02
     Est. extremal eigenvalues:    0.473E+01   0.133E+00
     Est. condition number :    0.355E+02

 Order=           3
     NS sqrt iter    1 1.00000000   0.122E+01       0.021     2693.551
     NS sqrt iter    2 1.00000000   0.620E+00       0.033     3383.368
     NS sqrt iter    3 1.00000000   0.198E+00       0.034     3332.906
     NS sqrt iter    4 1.00000000   0.246E-01       0.034     3361.269
     NS sqrt iter    5 1.00000000   0.103E-03       0.034     3328.446
     NS sqrt iter    6 1.00000000   0.202E-10       0.017     2199.125
     Symmetrizing Results
     Final NS sqrt iter    6 1.00000000   0.203E-11

     Est. extremal eigenvalues     -0.83414     2.56450  converged:  T
     TRS4 it   1 1.00000000   0.285E+02       0.007     2116.768   0.100E-11
     TRS4 it   2 1.00000000   0.233E+02       0.013     2220.367   0.100E-11
     TRS4 it   3 1.00000000   0.154E+02       0.013     2218.881   0.100E-11
     TRS4 it   4 1.00000000   0.886E+01       0.013     2213.258   0.100E-11
     TRS4 it   5 1.00000000   0.362E+01       0.013     2190.126   0.100E-11
     TRS4 it   6 1.00000000   0.901E+00       0.013     2194.827   0.100E-11
     TRS4 it   7 1.00000000   0.105E+00       0.013     2187.578   0.100E-11
     TRS4 it   8 1.00000000   0.214E-02       0.013     2208.781   0.100E-11
     TRS4 it   9 1.00000000   0.129E-05       0.013     2178.984   0.100E-11
     TRS4 it  10 1.00000000   0.117E-11       0.013     2205.338   0.100E-11
     Final TRS4 iteration   10 1.00000000   0.117E-11
     Chemical potential (mu):       0.05424
 
 PAO| energy:  -191.72290266297074      penalty:   4.2368378792639752E-004
 PAO|LS| adapt:  T T F
 PAO|LS| adapt: scan_steps:    0.0000000000000000       0.40453612033821940        0.0000000000000000     
 PAO|LS| adapt: energies:   -191.72029807810617       -191.72290266297074        0.0000000000000000     
 PAO| ======================= Iteration:        28 =============================

     Lanczos converged:  F threshold:   0.100E-02
     Est. extremal eigenvalues:    0.472E+01   0.133E+00
     Est. condition number :    0.355E+02

 Order=           3
     NS sqrt iter    1 1.00000000   0.121E+01       0.021     2720.656
     NS sqrt iter    2 1.00000000   0.618E+00       0.034     3361.785
     NS sqrt iter    3 1.00000000   0.197E+00       0.034     3344.162
     NS sqrt iter    4 1.00000000   0.244E-01       0.034     3367.918
     NS sqrt iter    5 1.00000000   0.103E-03       0.034     3361.516
     NS sqrt iter    6 1.00000000   0.199E-10       0.018     2187.160
     Symmetrizing Results
     Final NS sqrt iter    6 1.00000000   0.205E-11

     Est. extremal eigenvalues     -0.83415     2.56266  converged:  T
     TRS4 it   1 1.00000000   0.285E+02       0.007     2156.661   0.100E-11
     TRS4 it   2 1.00000000   0.233E+02       0.013     2213.185   0.100E-11
     TRS4 it   3 1.00000000   0.154E+02       0.013     2208.257   0.100E-11
     TRS4 it   4 1.00000000   0.884E+01       0.013     2194.389   0.100E-11
     TRS4 it   5 1.00000000   0.360E+01       0.013     2222.583   0.100E-11
     TRS4 it   6 1.00000000   0.893E+00       0.013     2169.000   0.100E-11
     TRS4 it   7 1.00000000   0.103E+00       0.013     2196.390   0.100E-11
     TRS4 it   8 1.00000000   0.208E-02       0.013     2207.389   0.100E-11
     TRS4 it   9 1.00000000   0.124E-05       0.013     2198.972   0.100E-11
     TRS4 it  10 1.00000000   0.104E-11       0.013     2208.610   0.100E-11
     Final TRS4 iteration   10 1.00000000   0.104E-11
     Chemical potential (mu):       0.05450
 
 PAO| energy:  -191.72041468018787      penalty:   3.9325205502198081E-004
 PAO|LS| adapt:  T T T
 PAO|LS| adapt: scan_steps:    0.0000000000000000       0.40453612033821940       0.80907224067643879     
 PAO|LS| adapt: energies:   -191.72029807810617       -191.72290266297074       -191.72041468018787     
 PAO|LS| adapt: suggested step_size:   0.40916735521043163     
 PAO|LS| adapt: predicted energy  -191.72290299669348     
 PAO| ======================= Iteration:        29 =============================

     Lanczos converged:  F threshold:   0.100E-02
     Est. extremal eigenvalues:    0.473E+01   0.133E+00
     Est. condition number :    0.355E+02

 Order=           3
     NS sqrt iter    1 1.00000000   0.122E+01       0.021     2700.895
     NS sqrt iter    2 1.00000000   0.620E+00       0.034     3368.286
     NS sqrt iter    3 1.00000000   0.198E+00       0.034     3361.921
     NS sqrt iter    4 1.00000000   0.246E-01       0.033     3382.302
     NS sqrt iter    5 1.00000000   0.103E-03       0.034     3379.480
     NS sqrt iter    6 1.00000000   0.202E-10       0.018     2185.683
     Symmetrizing Results
     Final NS sqrt iter    6 1.00000000   0.203E-11

     Est. extremal eigenvalues     -0.83414     2.56447  converged:  T
     TRS4 it   1 1.00000000   0.285E+02       0.007     2117.105   0.100E-11
     TRS4 it   2 1.00000000   0.233E+02       0.013     2202.015   0.100E-11
     TRS4 it   3 1.00000000   0.154E+02       0.013     2211.579   0.100E-11
     TRS4 it   4 1.00000000   0.886E+01       0.013     2212.649   0.100E-11
     TRS4 it   5 1.00000000   0.361E+01       0.013     2195.807   0.100E-11
     TRS4 it   6 1.00000000   0.900E+00       0.013     2200.146   0.100E-11
     TRS4 it   7 1.00000000   0.105E+00       0.013     2192.649   0.100E-11
     TRS4 it   8 1.00000000   0.214E-02       0.013     2194.920   0.100E-11
     TRS4 it   9 1.00000000   0.129E-05       0.013     2195.979   0.100E-11
[...]
     TRS4 it   3 1.00000000   0.155E+02       0.013     2198.043   0.100E-11
     TRS4 it   4 1.00000000   0.918E+01       0.013     2183.533   0.100E-11
     TRS4 it   5 1.00000000   0.409E+01       0.013     2201.843   0.100E-11
     TRS4 it   6 1.00000000   0.126E+01       0.013     2184.565   0.100E-11
     TRS4 it   7 1.00000000   0.223E+00       0.013     2197.635   0.100E-11
     TRS4 it   8 1.00000000   0.119E-01       0.013     2193.883   0.100E-11
     TRS4 it   9 1.00000000   0.507E-04       0.013     2177.220   0.100E-11
     TRS4 it  10 1.00000000   0.951E-09       0.013     2195.074   0.100E-11
     TRS4 it  11 1.00000000   0.160E-13       0.013     2188.946   0.100E-11
     Final TRS4 iteration   11 1.00000000   0.160E-13
     Chemical potential (mu):       0.02023
 
 PAO| energy:  -191.35366657275384      penalty:   1.1574849590502565E-008
 PAO| Writing restart file.
     Est. extremal eigenvalues     -0.83357     2.55050  converged:  T
     TRS4 it   1 1.00000000   0.287E+02       0.007     2111.683   0.100E-11
     TRS4 it   2 1.00000000   0.234E+02       0.013     2184.959   0.100E-11
     TRS4 it   3 1.00000000   0.155E+02       0.013     2205.637   0.100E-11
     TRS4 it   4 1.00000000   0.918E+01       0.013     2201.384   0.100E-11
     TRS4 it   5 1.00000000   0.409E+01       0.013     2187.213   0.100E-11
     TRS4 it   6 1.00000000   0.126E+01       0.013     2183.479   0.100E-11
     TRS4 it   7 1.00000000   0.223E+00       0.013     2180.928   0.100E-11
     TRS4 it   8 1.00000000   0.119E-01       0.013     2205.854   0.100E-11
     TRS4 it   9 1.00000000   0.507E-04       0.013     2200.919   0.100E-11
     TRS4 it  10 1.00000000   0.951E-09       0.013     2198.072   0.100E-11
     TRS4 it  11 1.00000000   0.160E-13       0.013     2196.816   0.100E-11
     Final TRS4 iteration   11 1.00000000   0.160E-13
     Chemical potential (mu):       0.02023

 SCF     1     -1103.041103033     -1103.041103033    1.772521

*********************************************************
 Using MIXING_FRACTION=0.450 to mix KS matrix:  iscf=  2
 KS_nw=0.450*KS + 0.550*KS_old
*********************************************************
     Est. extremal eigenvalues     -0.83357     2.55050  converged:  T
     TRS4 it   1 1.00000000   0.287E+02       0.007     2130.740   0.100E-11
     TRS4 it   2 1.00000000   0.234E+02       0.013     2212.213   0.100E-11
     TRS4 it   3 1.00000000   0.155E+02       0.013     2196.257   0.100E-11
     TRS4 it   4 1.00000000   0.918E+01       0.013     2192.897   0.100E-11
     TRS4 it   5 1.00000000   0.409E+01       0.013     2198.022   0.100E-11
     TRS4 it   6 1.00000000   0.126E+01       0.013     2180.446   0.100E-11
     TRS4 it   7 1.00000000   0.223E+00       0.013     2192.870   0.100E-11
     TRS4 it   8 1.00000000   0.119E-01       0.013     2201.215   0.100E-11
     TRS4 it   9 1.00000000   0.507E-04       0.013     2174.343   0.100E-11
     TRS4 it  10 1.00000000   0.951E-09       0.013     2193.918   0.100E-11
     TRS4 it  11 1.00000000   0.231E-13       0.013     2197.622   0.100E-11
     Final TRS4 iteration   11 1.00000000   0.231E-13
     Chemical potential (mu):       0.02023

 SCF     2     -1103.041103033        -0.000000000    1.772251


 SCF run converged in     2 steps.

 PAO| Storing density matrix for ASPC guess in slot:           1

 ENERGY| Total FORCE_EVAL ( QS ) energy [a.u.]:            -1103.041103033135641

 -------------------------------------------------------------------------------
 -                                                                             -
 -                                DBCSR STATISTICS                             -
 -                                                                             -
 -------------------------------------------------------------------------------
 COUNTER                                    TOTAL       BLAS       SMM       ACC
 flops     5 x     5 x     4             23116800       0.0%    100.0%      0.0%     
 flops    13 x     5 x     4             29818880       0.0%    100.0%      0.0%     
 flops     5 x    13 x     4             29818880       0.0%    100.0%      0.0%     
 flops    13 x    13 x     4             39370240       0.0%    100.0%      0.0%     
 flops     4 x     4 x     5           6491996160       0.0%    100.0%      0.0%     
 flops     5 x     4 x     5           8024883200       0.0%    100.0%      0.0%     
 flops     4 x     4 x    13           8439595008       0.0%    100.0%      0.0%     
 flops    13 x     4 x     5          10432348160       0.0%    100.0%      0.0%     
 flops     5 x     4 x    13          10432348160       0.0%    100.0%      0.0%     
 flops    13 x     4 x    13          13562052608       0.0%    100.0%      0.0%     
 flops     5 x     4 x     4         405025992000       0.0%    100.0%      0.0%     
 flops    13 x     4 x     4         533036090496       0.0%    100.0%      0.0%     
 flops     4 x     4 x     4       29913061667968       0.0%    100.0%      0.0%     
 flops inhomo. stacks                           0       0.0%      0.0%      0.0%
 flops total                        30.908629E+12       0.0%    100.0%      0.0%
 flops max/rank                    974.850047E+09       0.0%    100.0%      0.0%
 matmuls inhomo. stacks                         0       0.0%      0.0%      0.0%
 matmuls total                       237659945279       0.0%    100.0%      0.0%
 number of processed stacks             242786872       0.0%    100.0%      0.0%
 average stack size                                     0.0     978.9       0.0
 marketing flops                    53.439346E+12
 -------------------------------------------------------------------------------
 # multiplications                          50141
 max memory usage/rank             616.153088E+06
 # max total images/rank                        2
 # max 3D layers                                1
 # MPI messages exchanged                20858656
 MPI messages size (bytes):
  total size                         2.476777E+12
  min size                           0.000000E+00
  max size                         541.696000E+03
  average size                     118.740953E+03
 MPI breakdown and total messages size (bytes):
             size <=      128              891087                    12288
       128 < size <=     8192              340356               1261746048
      8192 < size <=    32768               66498               1622286720
     32768 < size <=   131072             8912605             665598819968
    131072 < size <=  4194304            10648110            1808696496640
   4194304 < size <= 16777216                   0                        0
  16777216 < size                               0                        0
 -------------------------------------------------------------------------------

 *** WARNING in dbcsr_mm.F:301 :: Using a non-square number of MPI ranks ***
 *** might lead to poor performance. Used ranks: 32 Suggested: 36 64     ***

 -------------------------------------------------------------------------------
 -                                                                             -
 -                      DBCSR MESSAGE PASSING PERFORMANCE                      -
 -                                                                             -
 -------------------------------------------------------------------------------
 ROUTINE             CALLS      AVE VOLUME [Bytes]
 MP_Bcast               14                     12.
 MP_Allreduce       301801                     37.
 MP_Alltoall        129454                  14572.
 MP_ISend          1678108                  55274.
 MP_IRecv          1641310                  56573.
 -------------------------------------------------------------------------------

 -------------------------------------------------------------------------------
 -                                                                             -
 -                                DBM STATISTICS                               -
 -                                                                             -
 -------------------------------------------------------------------------------
    M  x    N  x    K                                          COUNT     PERCENT
 -------------------------------------------------------------------------------

 -------------------------------------------------------------------------------
 -                                                                             -
 -                                GRID STATISTICS                              -
 -                                                                             -
 -------------------------------------------------------------------------------
 LP    KERNEL             BACKEND                              COUNT     PERCENT
 2     collocate ortho    CPU                               11472398      28.83%
 2     integrate ortho    CPU                               11472398      28.83%
 3     collocate ortho    CPU                                7376824      18.54%
 3     integrate ortho    CPU                                7376824      18.54%
 4     collocate ortho    CPU                                1046906       2.63%
 4     integrate ortho    CPU                                1046906       2.63%
 0     collocate general  CPU                                   6144       0.02%
 -------------------------------------------------------------------------------

 MEMORY| Estimated peak process memory [MiB]                                 588

 -------------------------------------------------------------------------------
 -                                                                             -
 -                         MESSAGE PASSING PERFORMANCE                         -
 -                                                                             -
 -------------------------------------------------------------------------------

 ROUTINE             CALLS      AVE VOLUME [Bytes]
 MP_Group                5
 MP_Bcast           364394                   1955.
 MP_Allreduce       905594                    514.
 MP_Sync                 5
 MP_Alltoall           369                3579156.
 MP_SendRecv          1302                  18832.
 MP_ISendRecv         1302                  18832.
 MP_Wait              3696
 MP_ISend             2166                 108220.
 MP_IRecv             2166                 108236.
 -------------------------------------------------------------------------------


 -------------------------------------------------------------------------------
 -                                                                             -
 -                           R E F E R E N C E S                               -
 -                                                                             -
 -------------------------------------------------------------------------------
 
 CP2K version 2024.3 (Development Version), the CP2K developers group (2024).
 CP2K is freely available from https://www.cp2k.org/ .
 
 T. D. Kuehne, M. Iannuzzi, M. Del Ben, V. V. Rybkin, P. Seewald, F. Stein, T. 
 Laino, R. Z. Khaliullin, O. Schuett, F. Schiffmann, D. Golze, J. Wilhelm, S. 
 Chulkov, M. H. Bani-Hashemian, V. Weber, U. Borstnik, M. Taillefumier, A. S. 
 Jakobovits, A. Lazzaro, H. Pabst, T. Mueller, R. Schade, M. Guidon, S. 
 Andermatt, N. Holmberg, G. K. Schenter, A. Hehn, A. Bussy, F. Belleflamme, G. 
 Tabacchi, A. Gloess, M. Lass, I. Bethune, C. J. Mundy, C. Plessl, M. Watkins, 
 J. VandeVondele, M. Krack, J. Hutter.
 J. Chem. Phys. 152, 194103 (2020).
 CP2K: An electronic structure and molecular dynamics software package - 
 Quickstep: Efficient and accurate electronic structure calculations.
 https://doi.org/10.1063/5.0007045

 O. Schuett, J. VandeVondele.
 J. Chem. Theory Comput. 14, 4168-4175 (2018).
 Machine Learning Adaptive Basis Sets for Efficient Large Scale Density 
 Functional Theory Simulation.
 https://doi.org/10.1021/acs.jctc.8b00378

 O. Schuett, P. Messmer, J. Hutter, J. VandeVondele.
 Electronic Structure Calculations on Graphics Processing Units, 173-190 (2016).
 GPU-Accelerated Sparse Matrix-Matrix Multiplication for Linear Scaling Density 
 Functional Theory.
 https://doi.org/10.1002/9781118670712.ch8

 A. Heinecke, G. Henry, M. Hutchinson, H. Pabst.
 Proceedings of Intl. Supercomputing Conference, 981-991 (2016).
 LIBXSMM: Accelerating Small Matrix Multiplications by Runtime Code Generation.
 https://doi.org/10.1109/SC.2016.83

 J. Hutter, M. Iannuzzi, F. Schiffmann, J. VandeVondele.
 WIREs Comput Mol Sci. 4, 15-25 (2014).
 CP2K: atomistic simulations of condensed matter systems.
 https://doi.org/10.1002/wcms.1159

 U. Borstnik, J. VandeVondele, V. Weber, J. Hutter.
 Parallel Comput. 40, 47-58 (2014).
 Sparse matrix multiplication: The distributed block-compressed sparse row 
 library.
 https://doi.org/10.1016/j.parco.2014.03.012

 A. Marek, V. Blum, R. Johanni, V. Havu, B. Lang, T. Auckenthaler, A. Heinecke, 
 H. Bungartz, H. Lederer.
 J. Phys. Condens. Matter 26, 213201 (2014).
 The ELPA library: scalable parallel eigenvalue solutions for electronic 
 structure theory and computational science.
 https://doi.org/10.1088/0953-8984/26/21/213201

 J. VandeVondele, U. Borstnik, J. Hutter.
 J. Chem. Theory Comput. 8, 3565-3573 (2012).
 Linear Scaling Self-Consistent Field Calculations with Millions of Atoms in the 
 Condensed Phase.
 https://doi.org/10.1021/ct200897x

 J. VandeVondele, J. Hutter.
 J. Chem. Phys. 127, 114105 (2007).
 Gaussian basis sets for accurate calculations on molecular systems in gas and 
 condensed phases.
 https://doi.org/10.1063/1.2770708

 J. VandeVondele, M. Krack, F. Mohamed, M. Parrinello, T. Chassaing, J. Hutter.
 Comput. Phys. Commun. 167, 103-128 (2005).
 QUICKSTEP: Fast and accurate density functional calculations using a mixed 
 Gaussian and plane waves approach.
 https://doi.org/10.1016/j.cpc.2004.12.014

 M. Krack.
 Theor. Chem. Acc. 114, 145-152 (2005).
 Pseudopotentials for H to Kr optimized for gradient-corrected 
 exchange-correlation functionals.
 https://doi.org/10.1007/s00214-005-0655-y

 M. Frigo, S. G. Johnson.
 Proc. IEEE 93, 216-231 (2005).
 The design and implementation of FFTW3.
 https://doi.org/10.1109/JPROC.2004.840301

 A. M. N. Niklasson, C. J. Tymczak, M. Challacombe.
 J. Chem. Phys. 118, 8611-8620 (2003).
 Trace resetting density matrix purification in O(N) self-consistent-field 
 theory.
 https://doi.org/10.1063/1.1559913

 C. Hartwigsen, S. Goedecker, J. Hutter.
 Phys. Rev. B 58, 3641-3662 (1998).
 Relativistic separable dual-space Gaussian pseudopotentials from H to Rn.
 https://doi.org/10.1103/PhysRevB.58.3641

 G. Lippert, J. Hutter, M. Parrinello.
 Mol. Phys. 92, 477-487 (1997).
 A hybrid Gaussian and plane wave density functional scheme.
 https://doi.org/10.1080/002689797170220

 S. Goedecker, M. Teter, J. Hutter.
 Phys. Rev. B 54, 1703-1710 (1996).
 Separable dual-space Gaussian pseudopotentials.
 https://doi.org/10.1103/PhysRevB.54.1703

 J. P. Perdew, K. Burke, M. Ernzerhof.
 Phys. Rev. Lett. 77, 3865-3868 (1996).
 Generalized gradient approximation made simple.
 https://doi.org/10.1103/PhysRevLett.77.3865


 -------------------------------------------------------------------------------
 -                                                                             -
 -                                T I M I N G                                  -
 -                                                                             -
 -------------------------------------------------------------------------------
 SUBROUTINE                       CALLS  ASD         SELF TIME        TOTAL TIME
                                MAXIMUM       AVERAGE  MAXIMUM  AVERAGE  MAXIMUM
 CP2K                                 1  1.0    0.012    0.015  444.754  444.754
 qs_energies                          1  2.0    0.000    0.000  444.599  444.600
 ls_scf                               1  3.0    0.000    0.000  443.576  443.576
 pao_update                           6  4.0    0.006    0.024  417.224  417.225
 pao_calc_energy                    816  5.0    0.003    0.019  373.990  373.993
 dbcsr_multiply_generic           50141  8.4    1.400    1.502  349.512  349.822
 multiply_cannon                  50141  9.4    2.584    2.826  282.510  287.746
 multiply_cannon_loop             50141 10.4    1.864    2.140  271.941  276.883
 ls_scf_init_matrix_S               822  7.0    0.008    0.010  206.545  206.619
 pao_rebuild_S                      816  6.0    0.002    0.003  205.022  205.095
 matrix_sqrt_Newton_Schulz          822  8.0    0.170    0.283  191.230  191.297
 multiply_cannon_multrec         401128 11.4  177.577  179.395  178.397  180.184
 pao_dm_trs4                        816  6.0    0.006    0.007  168.589  168.610
 density_matrix_trs4                829  7.0    0.215    0.355  162.487  162.584
 mp_waitall_1                   3210554 12.6   90.087   97.450   90.087   97.450
 multiply_cannon_metrocomm3      401128 11.4    0.700    0.757   72.407   77.954
 arnoldi_extremal                  1651  8.5    0.013    0.015   59.823   59.900
 arnoldi_normal_ev                 1651  9.5    0.036    0.061   59.807   59.882
 build_subspace                    5878 10.6    0.359    0.390   52.555   52.597
 make_m2s                        100282  9.4    0.543    0.696   51.108   52.155
 make_images                     100282 10.4    7.359    7.542   49.752   50.858
 dbcsr_matrix_vector_mult        179642 11.6    0.770    1.158   49.550   49.995
 dbcsr_matrix_vector_mult_local  179642 12.6   42.278   42.639   42.479   42.841
 pao_calc_AB                       1083  5.8    0.002    0.002   42.780   42.781
 pao_calc_AB_equi                  1083  6.8    0.040    0.099   42.778   42.780
 pao_calc_grad_lnv_wrt_AB           266  7.0    0.020    0.023   42.363   42.411
 make_images_data                100282 11.4    0.863    1.045   21.854   24.025
 ls_scf_main                          6  4.0    0.000    0.001   23.126   23.127
 hybrid_alltoall_any             101922 12.4    0.906    1.795   17.153   20.431
 ls_scf_dm_to_ks                     13  5.0    0.000    0.000   20.405   20.407
 matrix_qs_to_ls                   1651  7.5    0.016    0.024   17.265   17.394
 mp_sum_l                        204877  9.5    8.347   14.336    8.347   14.336
 calculate_norms                 748976 11.4   11.621   12.551   11.621   12.551
 qs_ks_update_qs_env                 14  6.0    0.000    0.000   12.297   12.299
 rebuild_ks_matrix                   14  7.0    0.000    0.000   12.287   12.289
 qs_ks_build_kohn_sham_matrix        14  8.0    0.002    0.003   12.287   12.289
 make_images_pack                100282 11.4   11.055   11.337   11.191   11.476
 qs_rho_update_rho_low               14  6.0    0.000    0.000    9.588    9.590
 calculate_rho_elec                  14  7.0    0.005    0.005    9.588    9.590
 dbcsr_multiply_generic_mpsum_f   36797  9.5    0.027    0.033    5.092    9.376
 sum_up_and_integrate                14  9.0    0.000    0.000    9.331    9.334
 integrate_v_rspace                  14 10.0    0.000    0.000    9.318    9.321
 -------------------------------------------------------------------------------

 The number of warnings for this run is : 1
 
 -------------------------------------------------------------------------------
  **** **** ******  **  PROGRAM ENDED AT                 2024-09-24 00:30:23.755
 ***** ** ***  *** **   PROGRAM RAN ON                                    moritz
 **    ****   ******    PROGRAM RAN BY                                       ole
 ***** **    ** ** **   PROGRAM PROCESS ID                                165203
  **** **  *******  **  PROGRAM STOPPED IN /home/ole/git/pao_ml_equivar/64H2O_MD
                                           /Frame1700
