     192
 i =     1700, time =     2550.000, E =     -1100.0618449076
  O         4.9283564108       -4.5492550124        4.3177829133
  H         5.7433793424       -5.0344437600        4.2435243078
  H         5.0349239669       -4.2078967395        5.2393718803
  O        -4.4866174677        2.1249760641        5.4798702309
  H        -4.3914593008        1.4321041241        4.7537259189
  H        -4.0637233913        1.8108303987        6.2286157857
  O         3.7801842748        1.9692953385        4.5051033222
  H         3.3079531454        2.7821136661        4.8530526747
  H         4.3400678647        2.5604693534        3.9668584226
  O        -2.1103560372       -0.3234258237       -2.9786230199
  H        -1.5838142211        0.2663535285       -2.4188909191
  H        -1.5241856887       -0.5947934715       -3.7471839170
  O        -3.9786763383        5.0940603716        5.9511020584
  H        -4.2330719356        4.1887804341        5.9730075763
  H        -4.1459031132        5.4125381413        4.9947809767
  O         8.1693662530        0.6135363937        3.2530550926
  H         7.5752801675       -0.0870975643        2.9951846443
  H         8.2154111674        1.2068178595        2.4819556516
  O         4.3736106160       -4.9545076721       -0.2823962467
  H         4.2508900965       -4.2464179594        0.4064948730
  H         4.6727203685       -4.3274999823       -1.0445488177
  O        -1.0321790030       -3.2709373792       -1.1483169662
  H        -1.9417797945       -3.2446281740       -1.6114605522
  H        -0.7923396809       -2.3497979597       -1.0790351398
  O         4.4541702127       -2.1652232257        3.0574758210
  H         4.5217287286       -3.0537862806        3.3788401078
  H         4.0051252171       -2.3178355029        2.1738482214
  O         2.4223859546        4.2556051337        5.5414114842
  H         1.5697608859        3.7826335763        5.3110850741
  H         2.4490654018        4.3109004306        6.4801163165
  O         5.1875323492       -3.5121681512       -2.1697014269
  H         4.8892596368       -3.9479404669       -3.0207018599
  H         5.6139795894       -2.6703047272       -2.3931959169
  O         2.7519795800       -2.7050257461        0.8814085731
  H         2.1567472856       -3.3683150530        1.0659889795
  H         2.6764273174       -2.6947122986       -0.1065216416
  O         2.1379317254       -5.3612567559       -4.8322240257
  H         2.2094460839       -6.2481652882       -4.4673154897
  H         1.6384400513       -5.3450422437       -5.7139448079
  O         5.1917883845        5.2977912551       -2.7366173482
  H         5.6218005556        4.4832532224       -2.3473752275
  H         5.6464401574        5.3277747463       -3.6620091358
  O         2.0088275532       -0.8239699839        3.7446381057
  H         2.9418082907       -0.9930094928        3.5739951406
  H         1.8038470745       -0.0972429727        3.1595703811
  O         0.1811564728        2.6951345193        4.6525313564
  H         0.4098571471        1.7641475099        4.9971800616
  H        -0.1055780894        2.6426802555        3.7276842111
  O        -0.5268142685       -2.4878222712        3.0013419872
  H        -0.4049509133       -3.2128508751        2.3769512671
  H         0.4289413918       -2.3004674097        3.2223741262
  O        -2.4450602261        3.2115143118        2.8544182834
  H        -1.8748583737        2.6027198166        2.3469898805
  H        -2.4982776388        2.7329378831        3.7241618977
  O         0.9363847986        0.1190554834       -6.3379728801
  H         1.5044128240       -0.3472957745       -7.0240298282
  H         1.6105088653        0.5042874321       -5.7749647347
  O        -0.2996478946       -0.5416712711       -0.7349480808
  H        -0.6373802012       -0.3094067881        0.0962710889
  H         0.5812211140       -0.1296013469       -0.6244480465
  O        -3.2578033838        3.4929499314       -2.4115354876
  H        -3.2853348697        4.4477924136       -2.3701214574
  H        -2.5815245945        3.1790834068       -1.7644133264
  O         4.8503794980        3.8439494777        2.6293161614
  H         4.5195458196        3.6283983440        1.7266434769
  H         4.5177585983        4.6693306442        2.8882735457
  O         4.7396609428        1.1183202050       -3.1912164676
  H         5.1542121639        1.1554782344       -4.0533127166
  H         5.1838016045        0.3944551707       -2.7907361213
  O        -4.1073244903        6.1363519124       -2.5227774540
  H        -4.7562911657        6.1579884442       -1.7590720376
  H        -4.6012143197        5.9456034745       -3.3473133151
  O         5.5715254171       -0.5810854098        0.2968174770
  H         6.0848618906       -0.9879362670        1.0397261033
  H         4.6408117493       -0.7738943316        0.5310888198
  O         2.6755942405        0.6717160147       -0.5627083007
  H         3.3260996523        1.3924566373       -0.7955438741
  H         3.0079056264       -0.1605693776       -0.9799689521
  O        -5.6387828305       -6.0240919480       -0.3589916248
  H        -5.5076198161       -6.7460586654        0.2217451655
  H        -6.5912117414       -5.7869944942       -0.3280027038
  O        -4.9463746516        4.5411714674        1.9504907016
  H        -5.6127944819        4.0711892757        2.4076767386
  H        -4.1475324705        4.0375261690        2.1912225912
  O         5.5282143021        1.0056308564       -6.0670020609
  H         6.3581506973        1.5332156038       -6.2164342097
  H         4.8801180263        1.5217141822       -6.5746774509
  O         2.9021520796       -1.8924267939       -1.5628794617
  H         3.7898614114       -2.0925381987       -1.8897953651
  H         2.2610432665       -2.1919432801       -2.2030723569
  O         3.8409673410        3.1584863704       -0.0657570883
  H         4.5518978441        3.4362822227       -0.6690493314
  H         3.1477346005        3.7320479822       -0.3718745805
  O        -1.8067385281       -0.2479971691        2.0879224064
  H        -1.4177085350       -1.0904597895        2.3444147201
  H        -2.6047680869       -0.1254417769        2.5948195973
  O         1.2645343401       -7.6125963614        1.9631531361
  H         1.7499014498       -7.5318622602        1.1265264272
  H         1.8347031651       -7.0859307654        2.4985857423
  O         1.0416430906       -3.1163668658       -3.2641219695
  H         0.3206174133       -3.5069355458       -2.6880159395
  H         1.4654405844       -3.8733771298       -3.7922590597
  O        -4.3082294017        1.5392750810        0.5623444286
  H        -3.5296714961        1.7680874674       -0.0032686429
  H        -4.9630480932        1.1252951560       -0.0335263691
  O         4.6292565825       -4.4036696587       -4.8835264880
  H         3.6703131716       -4.8024439622       -4.9454596477
  H         4.6095274281       -3.5343891957       -5.3480980078
  O         0.4374519065        3.5162134337       -3.2453996056
  H        -0.2207182242        3.5967230138       -3.9580690823
  H         0.1512299985        4.2090760068       -2.6285312042
  O        -5.0164623996       -5.9519893256        3.8791731979
  H        -4.4940658272       -5.1596601410        3.6491402433
  H        -5.0233696281       -6.5244853700        3.0640517476
  O         3.0959289173        6.0312455036        3.6190888858
  H         3.8066795598        6.6305683565        3.8954675349
  H         2.8045681463        5.5009127482        4.4033500862
  O        -3.6498759668        1.5838379620       -4.4033156993
  H        -3.0695902172        0.8915139005       -4.0236178025
  H        -3.4457297301        2.3719128290       -3.8420887700
  O         1.8259744735        1.0964595153        1.9324426128
  H         2.2153001766        0.8746720476        1.0719464611
  H         2.4022038307        1.7488849961        2.3566631616
  O        -5.5268793507       -1.5615025398        2.5226449770
  H        -6.3403051027       -1.9210412624        3.0072289598
  H        -4.8189795755       -2.2163871123        2.5792357968
  O        -0.4610878199        1.9110143718        1.4636020550
  H         0.4856204435        1.6034636366        1.6532427319
  H        -0.9957938339        1.1070291061        1.6321701083
  O        -1.7368609357        5.3725300434        0.4866926174
  H        -1.9281273927        4.8853847990        1.2968666264
  H        -2.1962628149        6.2279562857        0.5017900192
  O        -0.5146043283       -1.5833781194       -4.9549770775
  H         0.1086029639       -2.0227581773       -4.2828361307
  H         0.0276214401       -0.8624755648       -5.4405152877
  O        -6.0892075500        2.9937107889       -1.8513215764
  H        -5.1188533214        3.1444294342       -2.0892734009
  H        -6.4442324305        2.3116494188       -2.4198398401
  O         6.5975092842       -1.1278385318       -2.1467914836
  H         7.4146925880       -1.5788644168       -1.8623546361
  H         6.1647745449       -0.8532244239       -1.3339901099
  O        -1.1828180740        2.2267566201       -1.2222073815
  H        -0.5285687508        2.4501886871       -1.9481509463
  H        -0.7316831819        2.5449911115       -0.4221577325
  O        -0.3583295768        5.6208095471       -1.8923412987
  H        -0.9510686280        6.1445098059       -2.4707986283
  H        -0.8487972279        5.4843064602       -1.0133418042
  O         5.9680938083       -2.2027669215        6.1077146544
  H         6.7310091588       -2.2623285527        6.7740550430
  H         5.9100636449       -1.2510177388        6.1585337132
  O        -1.7878948593       -5.6625446767       -3.7867949446
  H        -1.8449133949       -6.3866102889       -4.3977107403
  H        -2.6245011976       -5.6416923042       -3.2658966366
  O        -3.3119031631       -2.7964234627       -2.3174495306
  H        -3.6325240481       -3.0089954557       -3.2216534116
  H        -2.9189314585       -1.8936985834       -2.5077514967
  O         2.2008903341        5.4557735439       -0.5460600002
  H         1.5251603588        5.7846543251       -1.1774101072
  H         2.9822777960        6.0062057683       -0.6721742540
  O        -4.2515446324       -3.4075746805       -4.8863431045
  H        -3.5493434844       -3.4710037015       -5.4955950197
  H        -4.6748292266       -4.3151349853       -4.8936242635
  O        -0.6768422343        5.9082015605        3.4119192675
  H        -1.1399772006        5.1895397536        3.8423483262
  H         0.0011377770        5.4563062015        2.9082686943
  O        -1.5483281260       -3.8210676363       -6.0320562891
  H        -1.4578970863       -4.4357301907       -5.3250973317
  H        -1.0567861205       -2.9708503284       -5.7579618179
  O        -3.6470021343       -3.7187940834        2.8971736520
  H        -2.8553357698       -3.5573236621        3.4020230726
  H        -3.3938293237       -3.8471815871        1.9829892677
  O         2.7915554010        4.6291216717       -3.9575450415
  H         3.5777723409        4.9722696949       -3.4652880374
  H         2.1180412889        4.1724376818       -3.4407000491
  O         1.9809699362        1.2379593433       -4.2336903883
  H         1.6166102550        2.0743388722       -4.0305405108
  H         2.8873845989        1.2926080986       -3.8869025461
  O        -1.1946724259        4.4826585324        7.0212511186
  H        -0.7058198979        4.4696448260        6.1707797930
  H        -2.0754080190        4.4616413802        6.6678089692
  O         0.2786814635       -4.2551740962        1.1224488202
  H         0.3890717894       -5.1966286901        1.1404245410
  H        -0.1228493284       -4.0416527550        0.2643532202
  O         6.8197880220        6.3024942386        7.6182340030
  H         6.0491190646        6.8427761409        7.4382364899
  H         7.2262553483        5.8927829516        6.7995251692
  O         0.6664115174       -5.2804759080        5.4366118809
  H         0.1656237526       -5.8463899359        4.8098312853
  H        -0.0424649497       -4.6738780166        5.8034174589
  O        -3.1169112461       -4.7336654594        0.3118116985
  H        -3.9283114861       -5.0035167990       -0.1212805391
  H        -2.7073981625       -4.2221144029       -0.4543377029
