       6
 i =      100, time =       20.000, E =       -34.4446002735
  O         2.8163982147        4.3282392309        3.3865268458
  H         2.0193450165        4.6010700904        3.8416874278
  H         2.5642581222        3.8105865456        2.5644829159
  O         5.9361449333        4.3078307835        4.7873545403
  H         6.3611037487        3.5219673916        5.2092215098
  H         5.0065856716        4.1071949646        4.8019564039