 DBCSR| CPU Multiplication driver                                           XSMM (U)
 DBCSR| Multrec recursion limit                                              512 (U)
 DBCSR| Multiplication stack size                                           1000 (D)
 DBCSR| Maximum elements for images                                    UNLIMITED (U)
 DBCSR| Multiplicative factor virtual images                                   1 (U)
 DBCSR| Use multiplication densification                                       T (D)
 DBCSR| Multiplication size stacks                                             3 (U)
 DBCSR| Use memory pool for CPU allocation                                     F (U)
 DBCSR| Number of 3D layers                                               SINGLE (U)
 DBCSR| Use MPI memory allocation                                              F (U)
 DBCSR| Use RMA algorithm                                                      F (U)
 DBCSR| Use Communication thread                                               T (U)
 DBCSR| Communication thread load                                             87 (D)
 DBCSR| MPI: My process id                                                     0
 DBCSR| MPI: Number of processes                                              32
 DBCSR| OMP: Current number of threads                                         1
 DBCSR| OMP: Max number of threads                                             1
 DBCSR| Split modifier for TAS multiplication algorithm                  1.0E+00 (U)


  **** **** ******  **  PROGRAM STARTED AT               2024-09-24 04:29:53.334
 ***** ** ***  *** **   PROGRAM STARTED ON                                moritz
 **    ****   ******    PROGRAM STARTED BY                                   ole
 ***** **    ** ** **   PROGRAM PROCESS ID                                168635
  **** **  *******  **  PROGRAM STARTED IN /home/ole/git/pao_ml_equivar/64H2O_MD
                                           /Frame5000

 CP2K| version string:                 CP2K version 2024.3 (Development Version)
 CP2K| source code revision number:                                  git:3f890bb
 CP2K| cp2kflags: omp libint fftw3 libxc libgrpp pexsi elpa parallel scalapack c
 CP2K|            osma quip deepmd xsmm plumed2 spglib libdftd4 sirius libvori l
 CP2K|            libbqb libvdwxc hdf5
 CP2K| is freely available from                            https://www.cp2k.org/
 CP2K| Program compiled at                          Mo 23 Sep 2024 17:17:04 CEST
 CP2K| Program compiled on                                                moritz
 CP2K| Program compiled for                                                local
 CP2K| Data directory path                               /home/ole/git/cp2k/data
 CP2K| Input file name                                           64H2O_pao44.inp

 GLOBAL| Force Environment number                                              1
 GLOBAL| Basis set file name                                        BASIS_MOLOPT
 GLOBAL| Potential file name                                      GTH_POTENTIALS
 GLOBAL| MM Potential file name                                     MM_POTENTIAL
 GLOBAL| Coordinate file name                                         coords.xyz
 GLOBAL| Method name                                                        CP2K
 GLOBAL| Project name                                                64H2O_pao44
 GLOBAL| Run type                                                         ENERGY
 GLOBAL| FFT library                                                       FFTW3
 GLOBAL| Diagonalization library                                            ELPA
 GLOBAL| DGEMM library                                                      BLAS
 GLOBAL| Minimum number of eigenvectors for ELPA usage                        16
 GLOBAL| Orthonormality check for eigenvectors                          DISABLED
 GLOBAL| Matrix multiplication library                                     COSMA
 GLOBAL| All-to-all communication in single precision                          F
 GLOBAL| FFTs using library dependent lengths                                  F
 GLOBAL| Grid backend                                                       AUTO
 GLOBAL| Global print level                                                  LOW
 GLOBAL| MPI I/O enabled                                                       T
 GLOBAL| Total number of message passing processes                            32
 GLOBAL| Number of threads for this process                                    1
 GLOBAL| This output is from process                                           0
 GLOBAL| Stack size for threads created by OpenMP (OMP_STACKSIZE)        default
 GLOBAL| CPU model name           AMD Ryzen Threadripper 3970X 32-Core Processor
 GLOBAL| CPUID                                                              1002

 MEMORY| system memory details [Kb]
 MEMORY|                        rank 0           min           max       average
 MEMORY| MemTotal            131752136     131752136     131752136     131752136
 MEMORY| MemFree             114268872     114268872     114268872     114268872
 MEMORY| Buffers               2018752       2018752       2018752       2018752
 MEMORY| Cached                8695504       8695504       8695504       8695504
 MEMORY| Slab                  1642860       1642860       1642860       1642860
 MEMORY| SReclaimable          1145548       1145548       1145548       1145548
 MEMORY| MemLikelyFree       126128676     126128676     126128676     126128676


 GENERATE|  Preliminary Number of Bonds generated:                             0
 GENERATE|  Achieved consistency in connectivity generation.

 *******************************************************************************
 *******************************************************************************
 **                                                                           **
 **     #####                         ##              ##                      **
 **    ##   ##            ##          ##              ##                      **
 **   ##     ##                       ##            ######                    **
 **   ##     ##  ##   ##  ##   #####  ##  ##   ####   ##    #####    #####    **
 **   ##     ##  ##   ##  ##  ##      ## ##   ##      ##   ##   ##  ##   ##   **
 **   ##  ## ##  ##   ##  ##  ##      ####     ###    ##   ######   ######    **
 **    ##  ###   ##   ##  ##  ##      ## ##      ##   ##   ##       ##        **
 **     #######   #####   ##   #####  ##  ##  ####    ##    #####   ##        **
 **           ##                                                    ##        **
 **                                                                           **
 **                                                ... make the atoms dance   **
 **                                                                           **
 **            Copyright (C) by CP2K developers group (2000-2024)             **
 **                      J. Chem. Phys. 152, 194103 (2020)                    **
 **                                                                           **
 *******************************************************************************


 TOTAL NUMBERS AND MAXIMUM NUMBERS

  Total number of            - Atomic kinds:                                   2
                             - Atoms:                                        192
                             - Shell sets:                                   192
                             - Shells:                                       704
                             - Primitive Cartesian functions:               1344
                             - Cartesian basis functions:                   1536
                             - Spherical basis functions:                   1472

  Maximum angular momentum of- Orbital basis functions:                        2
                             - Local part of the GTH pseudopotential:          2
                             - Non-local part of the GTH pseudopotential:      0

 ------------------------------ Linear scaling SCF -----------------------------
 eps_scf:                                                              0.100E-07
 eps_filter:                                                           0.100E-11
 mixing_fraction:                                                      0.450E+00
 max_scf:                                                                     25
 fixed chemical potential (mu)                                                 F
 has unit metric:                                                              F
 Computing inv(S):                                                             T
 Computing sqrt(S):                                                            T
 Computing S preconditioner                                                    F
 S sqrt method:                                                     NEWTONSCHULZ
 S sqrt order:                                                                 3
 Extrapolation order:                                                          1
 S preconditioner type                                                      NONE
 Polarized Atomic Orbitals (PAO)                                               T
 Purification method                                   Trace resetting 4th order
 Cluster type                                                             ATOMIC
 Computing Chebyshev                                                       FALSE
 Using PAO                                                                     T
 -------------------------------------------------------------------------------

 
 PAO|                                  EPS_PAO                           0.5E-06
 PAO|                                  MIXING                            0.5E+00
 PAO|                                  MAX_PAO                              1500
 PAO|                                  MAX_CYCLES                           1000
 PAO|                                  PARAMETERIZATION              EQUIVARIANT
 PAO|                                  PRECONDITION                            F
 PAO|                                  REGULARIZATION                    0.0E+00
 PAO|                                  EPS_PGF                           0.1E-09
 PAO|                                  PENALTY_DISTANCE                  0.1E+00
 PAO|                                  PENALTY_STRENGTH                  0.5E-02
 PAO|                                  LINPOT_PRECONDITION_DELTA         0.0E+00
 PAO|                                  LINPOT_INITGUESS_DELT             0.0E+00
 PAO|                                  LINPOT_REGULARIZATION_DELTA       0.0E+00
 PAO|                                  LINPOT_REGULARIZATION_STRENGTH    0.0E+00
 PAO|                                  OPTIMIZER                              CG
 PAO|                                  CG_INIT_STEPS                           2
 PAO|                                  CG_RESET_LIMIT                    0.1E+00
 PAO|                                  CHECK_UNITARY_TOL                -0.1E+01
 PAO|                                  CHECK_GRADIENT_TOL               -0.1E+01
 PAO|                                  NUM_GRADIENT_ORDER                      2
 PAO|                                  NUM_GRADIENT_EPS                  0.1E-07
 PAO|                                  PRINT%RESTART%WRITE_CYCLES            100
 PAO|                                  RESTART_FILE 
 PAO|                                  PREOPT_DM_FILE 64H2O_ref_LS_DM_SPIN_1_RESTART.dm
 PAO|                                  MACHINE_LEARNING%METHOD       GAUSSIAN_PR
 PAO|                                  MACHINE_LEARNING%PRIOR               ZERO
 PAO|                                  MACHINE_LEARNING%DESCRIPTOR     POTENTIAL
 PAO|                                  MACHINE_LEARNING%TOLERANCE        0.1E-01
 PAO|                                  MACHINE_LEARNING%GP_NOISE_VAR     0.1E+00
 PAO|                                  MACHINE_LEARNING%GP_SCALE         0.5E-01
 

 Calculating atomic Fock matrix for atomic kind: O

 Electronic structure
    Total number of core electrons                                          2.00
    Total number of valence electrons                                       6.00
    Total number of electrons                                               8.00
    Multiplicity                                                   not specified
    S   [  2.00] 2.00
    P      4.00


 *******************************************************************************
                  Iteration          Convergence                     Energy [au]
 *******************************************************************************
                          1        0.708315                     -15.576645311500
                          2        0.608879                     -15.587933561584
                          3        0.102828E-01                 -15.656849565404
                          4        0.113889E-02                 -15.656866888140
                          5        0.434197E-03                 -15.656867072159
                          6        0.263771E-03                 -15.656867091904
                          7        0.478536E-06                 -15.656867103452

 Energy components [Hartree]           Total Energy ::          -15.656867103452
                                        Band Energy ::           -3.000198112285
                                     Kinetic Energy ::           11.759971203220
                                   Potential Energy ::          -27.416838306672
                                      Virial (-V/T) ::            2.331369510426
                                        Core Energy ::          -26.140716385623
                                          XC Energy ::           -3.154051012914
                                     Coulomb Energy ::           13.637900295084
                       Total Pseudopotential Energy ::          -37.935781716540
                       Local Pseudopotential Energy ::          -39.218907440693
                    Nonlocal Pseudopotential Energy ::            1.283125724153
                                        Confinement ::            0.350941276976

 Orbital energies  State     L     Occupation   Energy[a.u.]          Energy[eV]

                       1     0          2.000      -0.864471          -23.523463

                       1     1          4.000      -0.317814           -8.648154


 Total Electron Density at R=0:                                         0.000068

 Calculating atomic Fock matrix for atomic kind: H

 Electronic structure
    Total number of core electrons                                          0.00
    Total number of valence electrons                                       1.00
    Total number of electrons                                               1.00
    Multiplicity                                                   not specified
    S      1.00


 *******************************************************************************
                  Iteration          Convergence                     Energy [au]
 *******************************************************************************
                          1        0.437545E-02                  -0.424159432110
                          2        0.531356E-03                  -0.424178438213
                          3        0.259176E-06                  -0.424178722480

 Energy components [Hartree]           Total Energy ::           -0.424178722480
                                        Band Energy ::           -0.199015229016
                                     Kinetic Energy ::            0.464007633961
                                   Potential Energy ::           -0.888186356441
                                      Virial (-V/T) ::            1.914163240935
                                        Core Energy ::           -0.479160803564
                                          XC Energy ::           -0.244352904054
                                     Coulomb Energy ::            0.299334985138
                       Total Pseudopotential Energy ::           -0.962295316385
                       Local Pseudopotential Energy ::           -0.962295316385
                    Nonlocal Pseudopotential Energy ::            0.000000000000
                                        Confinement ::            0.191268788606

 Orbital energies  State     L     Occupation   Energy[a.u.]          Energy[eV]

                       1     0          1.000      -0.199015           -5.415480


 Total Electron Density at R=0:                                         0.242907
 PAO| Made initial guess for matrix_X with norm:   27.712812921102035     

     Lanczos converged:  F threshold:   0.100E-02
     Est. extremal eigenvalues:    0.605E+01   0.928E-01
     Est. condition number :    0.652E+02

 Order=           3
     NS sqrt iter    1 1.00000000   0.148E+01       0.021     2697.596
     NS sqrt iter    2 1.00000000   0.806E+00       0.033     3392.855
     NS sqrt iter    3 1.00000000   0.325E+00       0.034     3367.107
     NS sqrt iter    4 1.00000000   0.897E-01       0.034     3365.513
     NS sqrt iter    5 1.00000000   0.309E-02       0.033     3403.467
     NS sqrt iter    6 1.00000000   0.247E-06       0.029     2950.541
     Symmetrizing Results
     Final NS sqrt iter    6 1.00000000   0.127E-12

 PAO| Read restart DM 64H2O_ref_LS_DM_SPIN_1_RESTART.dm with checksum:    6118.9433388515381     
 PAO| Quickstep energy from restart density:  -1103.1524674570269     
 PAO| ======================= Iteration:         1 =============================

     Lanczos converged:  F threshold:   0.100E-02
     Est. extremal eigenvalues:    0.605E+01   0.928E-01
     Est. condition number :    0.652E+02

 Order=           3
     NS sqrt iter    1 1.00000000   0.148E+01       0.021     2739.033
     NS sqrt iter    2 1.00000000   0.806E+00       0.033     3383.796
     NS sqrt iter    3 1.00000000   0.325E+00       0.034     3374.229
     NS sqrt iter    4 1.00000000   0.897E-01       0.033     3402.643
     NS sqrt iter    5 1.00000000   0.309E-02       0.033     3414.820
     NS sqrt iter    6 1.00000000   0.247E-06       0.029     2966.311
     Symmetrizing Results
     Final NS sqrt iter    6 1.00000000   0.127E-12

     Est. extremal eigenvalues     -0.82019     2.63678  converged:  T
     TRS4 it   1 1.00000000   0.274E+02       0.007     2132.098   0.100E-11
     TRS4 it   2 1.00000000   0.237E+02       0.013     2214.635   0.100E-11
     TRS4 it   3 1.00000000   0.160E+02       0.013     2218.770   0.100E-11
     TRS4 it   4 1.00000000   0.998E+01       0.013     2216.255   0.100E-11
     TRS4 it   5 1.00000000   0.480E+01       0.013     2215.806   0.100E-11
     TRS4 it   6 1.00000000   0.159E+01       0.013     2208.580   0.100E-11
     TRS4 it   7 1.00000000   0.311E+00       0.013     2215.859   0.100E-11
     TRS4 it   8 1.00000000   0.213E-01       0.013     2206.461   0.100E-11
     TRS4 it   9 1.00000000   0.173E-03       0.013     2211.730   0.100E-11
     TRS4 it  10 1.00000000   0.939E-08       0.013     2227.791   0.100E-11
     TRS4 it  11 1.00000000   0.284E-13       0.013     2208.474   0.100E-11
     Final TRS4 iteration   11 1.00000000   0.284E-13
     Chemical potential (mu):       0.00964
 
 PAO| energy:  -186.28447115389920      penalty:   1.4051584874249271E-031
 PAO|CG| warming up with steepest descent
 PAO|CG| beta:    0.0000000000000000     
 PAO| norm of gradient:   3.9756934753548614     
 PAO|LS| adapt:  T F F
 PAO|LS| adapt: scan_steps:    0.0000000000000000        0.0000000000000000        0.0000000000000000     
 PAO|LS| adapt: energies:   -186.28447115389920        0.0000000000000000        0.0000000000000000     
 PAO| ======================= Iteration:         2 =============================

     Lanczos converged:  F threshold:   0.100E-02
     Est. extremal eigenvalues:    0.585E+01   0.987E-01
     Est. condition number :    0.593E+02

 Order=           3
     NS sqrt iter    1 1.00000000   0.144E+01       0.021     2717.289
     NS sqrt iter    2 1.00000000   0.778E+00       0.033     3392.254
     NS sqrt iter    3 1.00000000   0.305E+00       0.034     3380.322
     NS sqrt iter    4 1.00000000   0.754E-01       0.033     3384.999
     NS sqrt iter    5 1.00000000   0.192E-02       0.033     3401.641
     NS sqrt iter    6 1.00000000   0.701E-07       0.029     2977.077
     Symmetrizing Results
     Final NS sqrt iter    6 1.00000000   0.136E-13

     Est. extremal eigenvalues     -0.82350     2.63005  converged:  T
     TRS4 it   1 1.00000000   0.276E+02       0.007     2145.231   0.100E-11
     TRS4 it   2 1.00000000   0.237E+02       0.013     2217.049   0.100E-11
     TRS4 it   3 1.00000000   0.159E+02       0.013     2230.169   0.100E-11
     TRS4 it   4 1.00000000   0.978E+01       0.013     2219.507   0.100E-11
     TRS4 it   5 1.00000000   0.459E+01       0.013     2216.634   0.100E-11
     TRS4 it   6 1.00000000   0.146E+01       0.013     2194.280   0.100E-11
     TRS4 it   7 1.00000000   0.266E+00       0.013     2207.849   0.100E-11
     TRS4 it   8 1.00000000   0.152E-01       0.013     2213.504   0.100E-11
     TRS4 it   9 1.00000000   0.797E-04       0.013     2205.447   0.100E-11
     TRS4 it  10 1.00000000   0.231E-08       0.013     2247.158   0.100E-11
     TRS4 it  11 1.00000000   0.338E-13       0.013     2217.436   0.100E-11
     Final TRS4 iteration   11 1.00000000   0.338E-13
     Chemical potential (mu):       0.01527
 
 PAO| energy:  -187.73742494313677      penalty:   4.6872271065355317E-007
 PAO|LS| adapt:  T T F
 PAO|LS| adapt: scan_steps:    0.0000000000000000       0.10000000000000001        0.0000000000000000     
 PAO|LS| adapt: energies:   -186.28447115389920       -187.73742494313677        0.0000000000000000     
 PAO| ======================= Iteration:         3 =============================

     Lanczos converged:  T threshold:   0.100E-02
     Est. extremal eigenvalues:    0.565E+01   0.104E+00
     Est. condition number :    0.543E+02

 Order=           3
     NS sqrt iter    1 1.00000000   0.140E+01       0.021     2709.350
     NS sqrt iter    2 1.00000000   0.750E+00       0.033     3398.561
     NS sqrt iter    3 1.00000000   0.285E+00       0.034     3373.313
     NS sqrt iter    4 1.00000000   0.632E-01       0.033     3403.387
     NS sqrt iter    5 1.00000000   0.122E-02       0.033     3391.108
     NS sqrt iter    6 1.00000000   0.209E-07       0.029     2924.049
     Symmetrizing Results
     Final NS sqrt iter    6 1.00000000   0.357E-14

     Est. extremal eigenvalues     -0.82665     2.62630  converged:  T
     TRS4 it   1 1.00000000   0.278E+02       0.007     2153.506   0.100E-11
     TRS4 it   2 1.00000000   0.237E+02       0.013     2207.763   0.100E-11
     TRS4 it   3 1.00000000   0.158E+02       0.013     2205.611   0.100E-11
     TRS4 it   4 1.00000000   0.960E+01       0.013     2232.160   0.100E-11
     TRS4 it   5 1.00000000   0.439E+01       0.013     2212.560   0.100E-11
     TRS4 it   6 1.00000000   0.134E+01       0.013     2233.733   0.100E-11
     TRS4 it   7 1.00000000   0.225E+00       0.013     2213.540   0.100E-11
     TRS4 it   8 1.00000000   0.105E-01       0.013     2192.579   0.100E-11
     TRS4 it   9 1.00000000   0.341E-04       0.013     2173.127   0.100E-11
     TRS4 it  10 1.00000000   0.494E-09       0.013     2209.657   0.100E-11
     TRS4 it  11 1.00000000   0.711E-14       0.013     2224.992   0.100E-11
     Final TRS4 iteration   11 1.00000000   0.711E-14
     Chemical potential (mu):       0.02162
 
 PAO| energy:  -188.91816048636704      penalty:   7.4995633704621751E-006
 PAO|LS| adapt:  T T F
 PAO|LS| adapt: scan_steps:    0.0000000000000000       0.20000000000000001        0.0000000000000000     
 PAO|LS| adapt: energies:   -186.28447115389920       -188.91816048636704        0.0000000000000000     
 PAO| ======================= Iteration:         4 =============================

     Lanczos converged:  T threshold:   0.100E-02
     Est. extremal eigenvalues:    0.526E+01   0.113E+00
     Est. condition number :    0.464E+02

 Order=           3
     NS sqrt iter    1 1.00000000   0.132E+01       0.021     2716.577
     NS sqrt iter    2 1.00000000   0.697E+00       0.033     3407.991
     NS sqrt iter    3 1.00000000   0.248E+00       0.033     3395.105
     NS sqrt iter    4 1.00000000   0.444E-01       0.034     3376.085
     NS sqrt iter    5 1.00000000   0.501E-03       0.034     3369.840
     NS sqrt iter    6 1.00000000   0.194E-08       0.029     2886.710
     Symmetrizing Results
     Final NS sqrt iter    6 1.00000000   0.172E-13

     Est. extremal eigenvalues     -0.83190     2.62588  converged:  T
     TRS4 it   1 1.00000000   0.282E+02       0.007     2125.956   0.100E-11
     TRS4 it   2 1.00000000   0.237E+02       0.013     2217.178   0.100E-11
     TRS4 it   3 1.00000000   0.156E+02       0.013     2194.943   0.100E-11
     TRS4 it   4 1.00000000   0.927E+01       0.013     2241.661   0.100E-11
     TRS4 it   5 1.00000000   0.404E+01       0.013     2226.152   0.100E-11
     TRS4 it   6 1.00000000   0.113E+01       0.013     2230.281   0.100E-11
     TRS4 it   7 1.00000000   0.160E+00       0.013     2234.891   0.100E-11
     TRS4 it   8 1.00000000   0.487E-02       0.013     2204.678   0.100E-11
     TRS4 it   9 1.00000000   0.577E-05       0.013     2205.729   0.100E-11
     TRS4 it  10 1.00000000   0.164E-10       0.013     2220.016   0.100E-11
     Final TRS4 iteration   10 1.00000000   0.164E-10
     Chemical potential (mu):       0.04156
 
 PAO| energy:  -190.41826028860169      penalty:   1.1999301392743723E-004
 PAO|LS| Need extra step
 PAO|LS| adapt:  T T F
 PAO|LS| adapt: scan_steps:    0.0000000000000000       0.40000000000000002        0.0000000000000000     
 PAO|LS| adapt: energies:   -186.28447115389920       -190.41826028860169        0.0000000000000000     
 PAO| ======================= Iteration:         5 =============================

     Lanczos converged:  T threshold:   0.100E-02
     Est. extremal eigenvalues:    0.462E+01   0.129E+00
     Est. condition number :    0.359E+02

 Order=           3
     NS sqrt iter    1 1.00000000   0.120E+01       0.021     2670.405
     NS sqrt iter    2 1.00000000   0.609E+00       0.033     3418.228
     NS sqrt iter    3 1.00000000   0.192E+00       0.033     3393.397
     NS sqrt iter    4 1.00000000   0.232E-01       0.033     3409.084
     NS sqrt iter    5 1.00000000   0.956E-04       0.033     3385.078
     NS sqrt iter    6 1.00000000   0.195E-10       0.017     2194.366
     Symmetrizing Results
     Final NS sqrt iter    6 1.00000000   0.209E-11

     Est. extremal eigenvalues     -0.83547     2.62491  converged:  T
     TRS4 it   1 1.00000000   0.288E+02       0.007     2132.705   0.100E-11
     TRS4 it   2 1.00000000   0.236E+02       0.013     2218.447   0.100E-11
     TRS4 it   3 1.00000000   0.154E+02       0.013     2216.446   0.100E-11
     TRS4 it   4 1.00000000   0.879E+01       0.013     2229.800   0.100E-11
     TRS4 it   5 1.00000000   0.353E+01       0.013     2224.366   0.100E-11
     TRS4 it   6 1.00000000   0.837E+00       0.013     2235.898   0.100E-11
     TRS4 it   7 1.00000000   0.870E-01       0.013     2227.633   0.100E-11
     TRS4 it   8 1.00000000   0.133E-02       0.013     2200.396   0.100E-11
     TRS4 it   9 1.00000000   0.385E-06       0.013     2230.136   0.100E-11
     TRS4 it  10 1.00000000   0.693E-13       0.013     2197.201   0.100E-11
     Final TRS4 iteration   10 1.00000000   0.693E-13
     Chemical potential (mu):       0.06420
 
 PAO| energy:  -190.08907624960116      penalty:   1.9198882228393293E-003
 PAO|LS| Need extra step
 PAO|LS| adapt:  T T T
 PAO|LS| adapt: scan_steps:    0.0000000000000000       0.40000000000000002       0.80000000000000004     
 PAO|LS| adapt: energies:   -186.28447115389920       -190.41826028860169       -190.08907624960116     
 PAO|LS| adapt: suggested step_size:   0.57049643578947229     
 PAO|LS| adapt: predicted energy  -190.82368004385395     
 PAO| ======================= Iteration:         6 =============================

     Lanczos converged:  T threshold:   0.100E-02
     Est. extremal eigenvalues:    0.495E+01   0.120E+00
     Est. condition number :    0.412E+02

 Order=           3
     NS sqrt iter    1 1.00000000   0.126E+01       0.021     2711.609
     NS sqrt iter    2 1.00000000   0.655E+00       0.033     3396.542
     NS sqrt iter    3 1.00000000   0.221E+00       0.033     3402.236
     NS sqrt iter    4 1.00000000   0.332E-01       0.033     3419.383
     NS sqrt iter    5 1.00000000   0.241E-03       0.033     3391.547
     NS sqrt iter    6 1.00000000   0.261E-09       0.028     2669.616
     Symmetrizing Results
     Final NS sqrt iter    6 1.00000000   0.594E-12

     Est. extremal eigenvalues     -0.83470     2.62666  converged:  T
     TRS4 it   1 1.00000000   0.285E+02       0.007     2175.183   0.100E-11
     TRS4 it   2 1.00000000   0.237E+02       0.013     2215.796   0.100E-11
     TRS4 it   3 1.00000000   0.155E+02       0.013     2226.010   0.100E-11
     TRS4 it   4 1.00000000   0.904E+01       0.013     2230.059   0.100E-11
     TRS4 it   5 1.00000000   0.379E+01       0.013     2229.998   0.100E-11
     TRS4 it   6 1.00000000   0.981E+00       0.013     2238.283   0.100E-11
     TRS4 it   7 1.00000000   0.121E+00       0.013     2228.870   0.100E-11
     TRS4 it   8 1.00000000   0.262E-02       0.013     2240.066   0.100E-11
     TRS4 it   9 1.00000000   0.151E-05       0.013     2214.377   0.100E-11
     TRS4 it  10 1.00000000   0.988E-12       0.013     2235.675   0.100E-11
     Final TRS4 iteration   10 1.00000000   0.988E-12
     Chemical potential (mu):       0.05250
 
 PAO| energy:  -190.79786221527459      penalty:   4.9650970118187473E-004
 PAO|CG| warming up with steepest descent
 PAO|CG| beta:    0.0000000000000000     
 PAO| norm of gradient:   2.0854220838534028     
 PAO| energy improvement:  -4.5133910613753869     
 PAO| step      6                 -190.797862215  0.407E-02  0.570E+00     2.382
 PAO|LS| adapt:  T F F
 PAO|LS| adapt: scan_steps:    0.0000000000000000        0.0000000000000000        0.0000000000000000     
 PAO|LS| adapt: energies:   -190.79786221527459        0.0000000000000000        0.0000000000000000     
 PAO| ======================= Iteration:         7 =============================

     Lanczos converged:  T threshold:   0.100E-02
     Est. extremal eigenvalues:    0.481E+01   0.128E+00
     Est. condition number :    0.375E+02

 Order=           3
     NS sqrt iter    1 1.00000000   0.123E+01       0.021     2738.842
     NS sqrt iter    2 1.00000000   0.632E+00       0.034     3377.953
     NS sqrt iter    3 1.00000000   0.205E+00       0.033     3396.955
     NS sqrt iter    4 1.00000000   0.269E-01       0.033     3409.843
     NS sqrt iter    5 1.00000000   0.135E-03       0.033     3387.981
     NS sqrt iter    6 1.00000000   0.473E-10       0.022     2333.973
     Symmetrizing Results
     Final NS sqrt iter    6 1.00000000   0.223E-11

     Est. extremal eigenvalues     -0.83530     2.61244  converged:  T
     TRS4 it   1 1.00000000   0.286E+02       0.007     2163.081   0.100E-11
     TRS4 it   2 1.00000000   0.237E+02       0.013     2213.369   0.100E-11
     TRS4 it   3 1.00000000   0.156E+02       0.013     2207.429   0.100E-11
     TRS4 it   4 1.00000000   0.917E+01       0.013     2256.992   0.100E-11
     TRS4 it   5 1.00000000   0.389E+01       0.013     2200.260   0.100E-11
     TRS4 it   6 1.00000000   0.101E+01       0.013     2247.568   0.100E-11
     TRS4 it   7 1.00000000   0.122E+00       0.013     2225.572   0.100E-11
     TRS4 it   8 1.00000000   0.265E-02       0.013     2216.327   0.100E-11
     TRS4 it   9 1.00000000   0.157E-05       0.013     2226.028   0.100E-11
     TRS4 it  10 1.00000000   0.114E-11       0.013     2223.438   0.100E-11
     Final TRS4 iteration   10 1.00000000   0.114E-11
     Chemical potential (mu):       0.05509
 
 PAO| energy:  -189.86210045262484      penalty:   6.8847727072922382E-004
 PAO|LS| adapt:  T F T
 PAO|LS| adapt: scan_steps:    0.0000000000000000        0.0000000000000000       0.57049643578947229     
 PAO|LS| adapt: energies:   -190.79786221527459        0.0000000000000000       -189.86210045262484     
 PAO| ======================= Iteration:         8 =============================

     Lanczos converged:  T threshold:   0.100E-02
     Est. extremal eigenvalues:    0.488E+01   0.124E+00
     Est. condition number :    0.393E+02

 Order=           3
     NS sqrt iter    1 1.00000000   0.125E+01       0.021     2707.777
     NS sqrt iter    2 1.00000000   0.643E+00       0.033     3407.666
     NS sqrt iter    3 1.00000000   0.213E+00       0.033     3399.424
     NS sqrt iter    4 1.00000000   0.299E-01       0.033     3404.375
     NS sqrt iter    5 1.00000000   0.181E-03       0.033     3385.467
     NS sqrt iter    6 1.00000000   0.113E-09       0.026     2521.078
     Symmetrizing Results
     Final NS sqrt iter    6 1.00000000   0.149E-11

     Est. extremal eigenvalues     -0.83587     2.62002  converged:  T
     TRS4 it   1 1.00000000   0.285E+02       0.007     2141.718   0.100E-11
     TRS4 it   2 1.00000000   0.236E+02       0.013     2224.318   0.100E-11
     TRS4 it   3 1.00000000   0.155E+02       0.013     2216.686   0.100E-11
     TRS4 it   4 1.00000000   0.907E+01       0.013     2236.408   0.100E-11
     TRS4 it   5 1.00000000   0.381E+01       0.013     2224.714   0.100E-11
     TRS4 it   6 1.00000000   0.985E+00       0.013     2209.717   0.100E-11
     TRS4 it   7 1.00000000   0.120E+00       0.013     2236.262   0.100E-11
     TRS4 it   8 1.00000000   0.261E-02       0.013     2222.428   0.100E-11
     TRS4 it   9 1.00000000   0.151E-05       0.013     2229.697   0.100E-11
     TRS4 it  10 1.00000000   0.101E-11       0.013     2234.575   0.100E-11
     Final TRS4 iteration   10 1.00000000   0.101E-11
     Chemical potential (mu):       0.05262
 
 PAO| energy:  -191.17106687207368      penalty:   5.2470542930327369E-004
 PAO|LS| adapt:  T T T
 PAO|LS| adapt: scan_steps:    0.0000000000000000       0.28524821789473614       0.57049643578947229     
 PAO|LS| adapt: energies:   -190.79786221527459       -191.17106687207368       -189.86210045262484     
 PAO|LS| adapt: suggested step_size:   0.20590897025850552     
 PAO|LS| adapt: predicted energy  -191.23613531909442     
 PAO| ======================= Iteration:         9 =============================

     Lanczos converged:  T threshold:   0.100E-02
     Est. extremal eigenvalues:    0.490E+01   0.123E+00
     Est. condition number :    0.398E+02

 Order=           3
     NS sqrt iter    1 1.00000000   0.125E+01       0.021     2687.724
     NS sqrt iter    2 1.00000000   0.647E+00       0.034     3376.923
     NS sqrt iter    3 1.00000000   0.215E+00       0.034     3372.148
     NS sqrt iter    4 1.00000000   0.308E-01       0.033     3389.273
     NS sqrt iter    5 1.00000000   0.196E-03       0.033     3405.411
     NS sqrt iter    6 1.00000000   0.143E-09       0.026     2591.554
     Symmetrizing Results
     Final NS sqrt iter    6 1.00000000   0.126E-11

     Est. extremal eigenvalues     -0.83573     2.62197  converged:  T
     TRS4 it   1 1.00000000   0.285E+02       0.007     2160.418   0.100E-11
     TRS4 it   2 1.00000000   0.236E+02       0.013     2218.765   0.100E-11
     TRS4 it   3 1.00000000   0.155E+02       0.013     2219.139   0.100E-11
     TRS4 it   4 1.00000000   0.906E+01       0.013     2226.124   0.100E-11
     TRS4 it   5 1.00000000   0.380E+01       0.013     2223.517   0.100E-11
     TRS4 it   6 1.00000000   0.982E+00       0.013     2221.122   0.100E-11
     TRS4 it   7 1.00000000   0.120E+00       0.013     2242.685   0.100E-11
     TRS4 it   8 1.00000000   0.261E-02       0.013     2236.900   0.100E-11
     TRS4 it   9 1.00000000   0.151E-05       0.013     2220.106   0.100E-11
     TRS4 it  10 1.00000000   0.101E-11       0.013     2228.639   0.100E-11
     Final TRS4 iteration   10 1.00000000   0.101E-11
     Chemical potential (mu):       0.05236
 
 PAO| energy:  -191.24037495279168      penalty:   5.0773573057761093E-004
 PAO|CG| trace_G_new   0.68238522971847737     
 PAO|CG| trace_G_prev    4.3489852678234682     
 PAO|CG| trace_G_mix   -4.0402241405033235E-002
 PAO|CG| trace_D    4.3489852678234682     
 PAO|CG| trace_D_Gnew   4.0402241405033235E-002
 PAO|CG| beta:   0.16619680836151537     
 PAO| norm of gradient:  0.82606611703814448     
 PAO| energy improvement: -0.44251273751709164     
 PAO| step      9                 -191.240374953  0.161E-02  0.206E+00     1.459
 PAO|LS| adapt:  T F F
 PAO|LS| adapt: scan_steps:    0.0000000000000000        0.0000000000000000        0.0000000000000000     
 PAO|LS| adapt: energies:   -191.24037495279168        0.0000000000000000        0.0000000000000000     
 PAO| ======================= Iteration:        10 =============================

     Lanczos converged:  T threshold:   0.100E-02
     Est. extremal eigenvalues:    0.485E+01   0.126E+00
     Est. condition number :    0.384E+02

 Order=           3
     NS sqrt iter    1 1.00000000   0.124E+01       0.021     2718.030
     NS sqrt iter    2 1.00000000   0.638E+00       0.033     3415.693
     NS sqrt iter    3 1.00000000   0.210E+00       0.033     3389.848
     NS sqrt iter    4 1.00000000   0.287E-01       0.033     3407.654
     NS sqrt iter    5 1.00000000   0.158E-03       0.033     3410.803
     NS sqrt iter    6 1.00000000   0.742E-10       0.024     2436.621
     Symmetrizing Results
     Final NS sqrt iter    6 1.00000000   0.200E-11

     Est. extremal eigenvalues     -0.83626     2.60706  converged:  T
     TRS4 it   1 1.00000000   0.285E+02       0.007     2175.303   0.100E-11
     TRS4 it   2 1.00000000   0.236E+02       0.013     2235.436   0.100E-11
     TRS4 it   3 1.00000000   0.155E+02       0.013     2228.084   0.100E-11
     TRS4 it   4 1.00000000   0.904E+01       0.013     2224.580   0.100E-11
     TRS4 it   5 1.00000000   0.378E+01       0.013     2240.895   0.100E-11
     TRS4 it   6 1.00000000   0.970E+00       0.013     2244.422   0.100E-11
     TRS4 it   7 1.00000000   0.117E+00       0.013     2219.994   0.100E-11
     TRS4 it   8 1.00000000   0.246E-02       0.013     2211.316   0.100E-11
     TRS4 it   9 1.00000000   0.134E-05       0.013     2231.802   0.100E-11
     TRS4 it  10 1.00000000   0.764E-12       0.013     2209.277   0.100E-11
     Final TRS4 iteration   10 1.00000000   0.764E-12
     Chemical potential (mu):       0.05324
 
 PAO| energy:  -191.33444019299489      penalty:   5.0902674225685915E-004
 PAO|LS| adapt:  T T F
 PAO|LS| adapt: scan_steps:    0.0000000000000000       0.20590897025850552        0.0000000000000000     
 PAO|LS| adapt: energies:   -191.24037495279168       -191.33444019299489        0.0000000000000000     
 PAO| ======================= Iteration:        11 =============================

     Lanczos converged:  T threshold:   0.100E-02
     Est. extremal eigenvalues:    0.480E+01   0.130E+00
     Est. condition number :    0.370E+02

 Order=           3
     NS sqrt iter    1 1.00000000   0.123E+01       0.021     2714.995
     NS sqrt iter    2 1.00000000   0.630E+00       0.033     3410.215
     NS sqrt iter    3 1.00000000   0.204E+00       0.033     3393.623
     NS sqrt iter    4 1.00000000   0.266E-01       0.033     3401.048
     NS sqrt iter    5 1.00000000   0.127E-03       0.033     3385.764
     NS sqrt iter    6 1.00000000   0.380E-10       0.020     2277.391
     Symmetrizing Results
     Final NS sqrt iter    6 1.00000000   0.228E-11

     Est. extremal eigenvalues     -0.83627     2.59181  converged:  T
     TRS4 it   1 1.00000000   0.285E+02       0.007     2124.477   0.100E-11
     TRS4 it   2 1.00000000   0.235E+02       0.013     2223.305   0.100E-11
     TRS4 it   3 1.00000000   0.155E+02       0.013     2228.482   0.100E-11
     TRS4 it   4 1.00000000   0.901E+01       0.013     2230.627   0.100E-11
     TRS4 it   5 1.00000000   0.375E+01       0.013     2185.251   0.100E-11
     TRS4 it   6 1.00000000   0.955E+00       0.013     2205.812   0.100E-11
     TRS4 it   7 1.00000000   0.113E+00       0.013     2206.045   0.100E-11
     TRS4 it   8 1.00000000   0.230E-02       0.013     2237.030   0.100E-11
     TRS4 it   9 1.00000000   0.117E-05       0.013     2204.577   0.100E-11
     TRS4 it  10 1.00000000   0.581E-12       0.013     2187.034   0.100E-11
     Final TRS4 iteration   10 1.00000000   0.581E-12
     Chemical potential (mu):       0.05420
 
 PAO| energy:  -191.34072012874475      penalty:   5.1946709278667691E-004
 PAO|LS| adapt:  T T F
 PAO|LS| adapt: scan_steps:    0.0000000000000000       0.41181794051701104        0.0000000000000000     
 PAO|LS| adapt: energies:   -191.24037495279168       -191.34072012874475        0.0000000000000000     
 PAO| ======================= Iteration:        12 =============================

     Lanczos converged:  T threshold:   0.100E-02
     Est. extremal eigenvalues:    0.471E+01   0.137E+00
     Est. condition number :    0.344E+02

 Order=           3
     NS sqrt iter    1 1.00000000   0.121E+01       0.021     2663.700
     NS sqrt iter    2 1.00000000   0.615E+00       0.033     3394.089
     NS sqrt iter    3 1.00000000   0.194E+00       0.033     3390.960
     NS sqrt iter    4 1.00000000   0.230E-01       0.033     3396.097
     NS sqrt iter    5 1.00000000   0.813E-04       0.033     3386.099
     NS sqrt iter    6 1.00000000   0.953E-11       0.015     2183.714
     Symmetrizing Results
     Final NS sqrt iter    6 1.00000000   0.161E-11

     Est. extremal eigenvalues     -0.83498     2.56134  converged:  T
     TRS4 it   1 1.00000000   0.284E+02       0.007     2119.689   0.100E-11
     TRS4 it   2 1.00000000   0.233E+02       0.013     2208.519   0.100E-11
     TRS4 it   3 1.00000000   0.154E+02       0.013     2209.103   0.100E-11
     TRS4 it   4 1.00000000   0.894E+01       0.013     2241.984   0.100E-11
     TRS4 it   5 1.00000000   0.369E+01       0.013     2225.652   0.100E-11
     TRS4 it   6 1.00000000   0.920E+00       0.013     2223.214   0.100E-11
     TRS4 it   7 1.00000000   0.105E+00       0.013     2202.566   0.100E-11
     TRS4 it   8 1.00000000   0.196E-02       0.013     2235.291   0.100E-11
     TRS4 it   9 1.00000000   0.859E-06       0.013     2225.861   0.100E-11
     TRS4 it  10 1.00000000   0.306E-12       0.013     2204.755   0.100E-11
     Final TRS4 iteration   10 1.00000000   0.306E-12
     Chemical potential (mu):       0.05631
 
 PAO| energy:  -191.10465402045946      penalty:   5.7379119924712751E-004
 PAO|LS| Need extra step
 PAO|LS| adapt:  T T T
 PAO|LS| adapt: scan_steps:    0.0000000000000000       0.41181794051701104       0.82363588103402208     
 PAO|LS| adapt: energies:   -191.24037495279168       -191.34072012874475       -191.10465402045946     
 PAO|LS| adapt: suggested step_size:   0.32874653736142789     
 PAO|LS| adapt: predicted energy  -191.34756449319391     
 PAO| ======================= Iteration:        13 =============================

     Lanczos converged:  T threshold:   0.100E-02
     Est. extremal eigenvalues:    0.482E+01   0.129E+00
     Est. condition number :    0.375E+02

 Order=           3
     NS sqrt iter    1 1.00000000   0.123E+01       0.021     2703.148
     NS sqrt iter    2 1.00000000   0.634E+00       0.033     3411.420
     NS sqrt iter    3 1.00000000   0.207E+00       0.033     3383.498
     NS sqrt iter    4 1.00000000   0.274E-01       0.033     3387.903
     NS sqrt iter    5 1.00000000   0.139E-03       0.033     3407.590
     NS sqrt iter    6 1.00000000   0.499E-10       0.022     2330.095
     Symmetrizing Results
     Final NS sqrt iter    6 1.00000000   0.220E-11

     Est. extremal eigenvalues     -0.83633     2.59799  converged:  T
     TRS4 it   1 1.00000000   0.285E+02       0.007     2105.625   0.100E-11
     TRS4 it   2 1.00000000   0.235E+02       0.013     2201.950   0.100E-11
     TRS4 it   3 1.00000000   0.155E+02       0.013     2225.447   0.100E-11
     TRS4 it   4 1.00000000   0.902E+01       0.013     2203.517   0.100E-11
     TRS4 it   5 1.00000000   0.376E+01       0.013     2214.154   0.100E-11
     TRS4 it   6 1.00000000   0.962E+00       0.013     2233.664   0.100E-11
     TRS4 it   7 1.00000000   0.115E+00       0.013     2257.730   0.100E-11
     TRS4 it   8 1.00000000   0.236E-02       0.013     2243.060   0.100E-11
     TRS4 it   9 1.00000000   0.124E-05       0.013     2241.497   0.100E-11
     TRS4 it  10 1.00000000   0.663E-12       0.013     2215.482   0.100E-11
     Final TRS4 iteration   10 1.00000000   0.663E-12
     Chemical potential (mu):       0.05380
 
 PAO| energy:  -191.34852044303574      penalty:   5.1408548503299723E-004
 PAO|CG| trace_G_new   0.25728962197379168     
 PAO|CG| trace_G_prev   0.68238522971847737     
 PAO|CG| trace_G_mix   -1.0745510179864554E-002
 PAO|CG| trace_D   0.78908075339855988     
 PAO|CG| trace_D_Gnew   1.0486850688695624E-002
 PAO|CG| beta:   0.39279152080158003     
 PAO| norm of gradient:  0.50723724426917993     
 PAO| energy improvement: -0.10814549024405551     
 PAO| step     13                 -191.348520443  0.991E-03  0.329E+00     1.875
 PAO|LS| adapt:  T F F
 PAO|LS| adapt: scan_steps:    0.0000000000000000        0.0000000000000000        0.0000000000000000     
 PAO|LS| adapt: energies:   -191.34852044303574        0.0000000000000000        0.0000000000000000     
 PAO| ======================= Iteration:        14 =============================

     Lanczos converged:  T threshold:   0.100E-02
     Est. extremal eigenvalues:    0.476E+01   0.131E+00
     Est. condition number :    0.363E+02

 Order=           3
     NS sqrt iter    1 1.00000000   0.122E+01       0.021     2711.672
     NS sqrt iter    2 1.00000000   0.623E+00       0.033     3405.218
     NS sqrt iter    3 1.00000000   0.200E+00       0.034     3364.129
     NS sqrt iter    4 1.00000000   0.254E-01       0.033     3405.307
     NS sqrt iter    5 1.00000000   0.111E-03       0.033     3391.054
     NS sqrt iter    6 1.00000000   0.262E-10       0.019     2210.434
     Symmetrizing Results
     Final NS sqrt iter    6 1.00000000   0.219E-11

     Est. extremal eigenvalues     -0.83677     2.59185  converged:  T
     TRS4 it   1 1.00000000   0.285E+02       0.007     2163.545   0.100E-11
     TRS4 it   2 1.00000000   0.235E+02       0.013     2217.177   0.100E-11
     TRS4 it   3 1.00000000   0.155E+02       0.013     2224.121   0.100E-11
     TRS4 it   4 1.00000000   0.897E+01       0.013     2215.006   0.100E-11
     TRS4 it   5 1.00000000   0.371E+01       0.013     2242.800   0.100E-11
     TRS4 it   6 1.00000000   0.933E+00       0.013     2229.002   0.100E-11
     TRS4 it   7 1.00000000   0.108E+00       0.013     2222.329   0.100E-11
     TRS4 it   8 1.00000000   0.209E-02       0.013     2224.768   0.100E-11
     TRS4 it   9 1.00000000   0.966E-06       0.013     2232.245   0.100E-11
     TRS4 it  10 1.00000000   0.396E-12       0.013     2239.893   0.100E-11
     Final TRS4 iteration   10 1.00000000   0.396E-12
     Chemical potential (mu):       0.05569
 
 PAO| energy:  -191.39705273991112      penalty:   5.1399524163921303E-004
 PAO|LS| adapt:  T T F
 PAO|LS| adapt: scan_steps:    0.0000000000000000       0.32874653736142789        0.0000000000000000     
 PAO|LS| adapt: energies:   -191.34852044303574       -191.39705273991112        0.0000000000000000     
 PAO| ======================= Iteration:        15 =============================

     Lanczos converged:  T threshold:   0.100E-02
     Est. extremal eigenvalues:    0.469E+01   0.134E+00
     Est. condition number :    0.351E+02

 Order=           3
     NS sqrt iter    1 1.00000000   0.121E+01       0.021     2709.834
     NS sqrt iter    2 1.00000000   0.613E+00       0.033     3384.130
     NS sqrt iter    3 1.00000000   0.195E+00       0.033     3386.026
     NS sqrt iter    4 1.00000000   0.235E-01       0.033     3395.380
     NS sqrt iter    5 1.00000000   0.898E-04       0.034     3362.996
     NS sqrt iter    6 1.00000000   0.138E-10       0.016     2162.492
     Symmetrizing Results
     Final NS sqrt iter    6 1.00000000   0.189E-11

     Est. extremal eigenvalues     -0.83673     2.58549  converged:  T
     TRS4 it   1 1.00000000   0.285E+02       0.007     2147.338   0.100E-11
     TRS4 it   2 1.00000000   0.234E+02       0.013     2221.906   0.100E-11
     TRS4 it   3 1.00000000   0.154E+02       0.013     2216.186   0.100E-11
     TRS4 it   4 1.00000000   0.891E+01       0.013     2204.774   0.100E-11
     TRS4 it   5 1.00000000   0.365E+01       0.013     2206.810   0.100E-11
     TRS4 it   6 1.00000000   0.905E+00       0.013     2218.677   0.100E-11
     TRS4 it   7 1.00000000   0.102E+00       0.013     2218.194   0.100E-11
     TRS4 it   8 1.00000000   0.184E-02       0.013     2221.795   0.100E-11
     TRS4 it   9 1.00000000   0.755E-06       0.013     2220.216   0.100E-11
     TRS4 it  10 1.00000000   0.240E-12       0.013     2186.883   0.100E-11
     Final TRS4 iteration   10 1.00000000   0.240E-12
     Chemical potential (mu):       0.05747
 
 PAO| energy:  -191.37718322676599      penalty:   5.2778212617770161E-004
 PAO|LS| adapt:  T T T
 PAO|LS| adapt: scan_steps:    0.0000000000000000       0.32874653736142789       0.65749307472285579     
 PAO|LS| adapt: energies:   -191.34852044303574       -191.39705273991112       -191.37718322676599     
 PAO|LS| adapt: suggested step_size:   0.39762476514250689     
 PAO|LS| adapt: predicted energy  -191.39855408024650     
 PAO| ======================= Iteration:        16 =============================

     Lanczos converged:  T threshold:   0.100E-02
     Est. extremal eigenvalues:    0.474E+01   0.132E+00
     Est. condition number :    0.360E+02

 Order=           3
     NS sqrt iter    1 1.00000000   0.122E+01       0.021     2722.286
     NS sqrt iter    2 1.00000000   0.621E+00       0.033     3386.437
     NS sqrt iter    3 1.00000000   0.199E+00       0.033     3386.642
     NS sqrt iter    4 1.00000000   0.250E-01       0.033     3398.124
     NS sqrt iter    5 1.00000000   0.106E-03       0.033     3396.024
     NS sqrt iter    6 1.00000000   0.229E-10       0.018     2213.466
     Symmetrizing Results
     Final NS sqrt iter    6 1.00000000   0.216E-11

     Est. extremal eigenvalues     -0.83680     2.59052  converged:  T
     TRS4 it   1 1.00000000   0.285E+02       0.007     2154.090   0.100E-11
     TRS4 it   2 1.00000000   0.235E+02       0.013     2234.501   0.100E-11
     TRS4 it   3 1.00000000   0.155E+02       0.013     2198.980   0.100E-11
     TRS4 it   4 1.00000000   0.896E+01       0.013     2209.753   0.100E-11
     TRS4 it   5 1.00000000   0.370E+01       0.013     2214.434   0.100E-11
     TRS4 it   6 1.00000000   0.927E+00       0.013     2197.257   0.100E-11
     TRS4 it   7 1.00000000   0.107E+00       0.013     2211.177   0.100E-11
     TRS4 it   8 1.00000000   0.203E-02       0.013     2215.771   0.100E-11
     TRS4 it   9 1.00000000   0.918E-06       0.013     2231.640   0.100E-11
     TRS4 it  10 1.00000000   0.373E-12       0.013     2210.023   0.100E-11
     Final TRS4 iteration   10 1.00000000   0.373E-12
     Chemical potential (mu):       0.05608
 
 PAO| energy:  -191.39850351996773      penalty:   5.1569473226962138E-004
 PAO|CG| trace_G_new    9.5523153744699399E-002
 PAO|CG| trace_G_prev   0.25728962197379168     
 PAO|CG| trace_G_mix    3.9586315673165711E-003
 PAO|CG| trace_D   0.37079479504940932     
 PAO|CG| trace_D_Gnew   6.6890367143973561E-004
 PAO|CG| beta:   0.35588113300080898     
 PAO| norm of gradient:  0.30906820241606769     
 PAO| energy improvement:  -4.9983076931994219E-002
 PAO| step     16                 -191.398503520  0.604E-03  0.398E+00     1.439
 PAO|LS| adapt:  T F F
 PAO|LS| adapt: scan_steps:    0.0000000000000000        0.0000000000000000        0.0000000000000000     
 PAO|LS| adapt: energies:   -191.39850351996773        0.0000000000000000        0.0000000000000000     
 PAO| ======================= Iteration:        17 =============================

     Lanczos converged:  T threshold:   0.100E-02
     Est. extremal eigenvalues:    0.471E+01   0.132E+00
     Est. condition number :    0.356E+02

 Order=           3
     NS sqrt iter    1 1.00000000   0.121E+01       0.021     2714.644
     NS sqrt iter    2 1.00000000   0.617E+00       0.033     3389.517
     NS sqrt iter    3 1.00000000   0.197E+00       0.034     3377.093
     NS sqrt iter    4 1.00000000   0.242E-01       0.033     3403.719
     NS sqrt iter    5 1.00000000   0.975E-04       0.033     3386.836
     NS sqrt iter    6 1.00000000   0.178E-10       0.017     2176.959
     Symmetrizing Results
     Final NS sqrt iter    6 1.00000000   0.205E-11

     Est. extremal eigenvalues     -0.83685     2.58905  converged:  T
     TRS4 it   1 1.00000000   0.285E+02       0.007     2168.874   0.100E-11
     TRS4 it   2 1.00000000   0.235E+02       0.013     2225.791   0.100E-11
     TRS4 it   3 1.00000000   0.154E+02       0.013     2235.029   0.100E-11
     TRS4 it   4 1.00000000   0.891E+01       0.013     2240.369   0.100E-11
     TRS4 it   5 1.00000000   0.366E+01       0.013     2222.562   0.100E-11
     TRS4 it   6 1.00000000   0.908E+00       0.013     2251.108   0.100E-11
     TRS4 it   7 1.00000000   0.102E+00       0.013     2216.343   0.100E-11
     TRS4 it   8 1.00000000   0.187E-02       0.013     2229.975   0.100E-11
     TRS4 it   9 1.00000000   0.779E-06       0.013     2228.128   0.100E-11
     TRS4 it  10 1.00000000   0.261E-12       0.013     2227.211   0.100E-11
     Final TRS4 iteration   10 1.00000000   0.261E-12
     Chemical potential (mu):       0.05723
 
 PAO| energy:  -191.40228496859697      penalty:   5.0649456286986586E-004
 PAO|LS| adapt:  T T F
 PAO|LS| adapt: scan_steps:    0.0000000000000000       0.39762476514250689        0.0000000000000000     
 PAO|LS| adapt: energies:   -191.39850351996773       -191.40228496859697        0.0000000000000000     
 PAO| ======================= Iteration:        18 =============================

     Lanczos converged:  T threshold:   0.100E-02
     Est. extremal eigenvalues:    0.467E+01   0.133E+00
     Est. condition number :    0.351E+02

 Order=           3
     NS sqrt iter    1 1.00000000   0.120E+01       0.021     2696.608
     NS sqrt iter    2 1.00000000   0.612E+00       0.033     3404.414
     NS sqrt iter    3 1.00000000   0.194E+00       0.033     3393.492
     NS sqrt iter    4 1.00000000   0.235E-01       0.033     3398.306
     NS sqrt iter    5 1.00000000   0.896E-04       0.033     3394.867
     NS sqrt iter    6 1.00000000   0.139E-10       0.016     2198.538
     Symmetrizing Results
     Final NS sqrt iter    6 1.00000000   0.189E-11

     Est. extremal eigenvalues     -0.83671     2.58767  converged:  T
     TRS4 it   1 1.00000000   0.286E+02       0.007     2113.157   0.100E-11
     TRS4 it   2 1.00000000   0.234E+02       0.013     2231.690   0.100E-11
     TRS4 it   3 1.00000000   0.154E+02       0.013     2211.056   0.100E-11
     TRS4 it   4 1.00000000   0.887E+01       0.013     2208.695   0.100E-11
     TRS4 it   5 1.00000000   0.362E+01       0.013     2237.129   0.100E-11
     TRS4 it   6 1.00000000   0.889E+00       0.013     2216.336   0.100E-11
     TRS4 it   7 1.00000000   0.985E-01       0.013     2220.049   0.100E-11
     TRS4 it   8 1.00000000   0.173E-02       0.013     2238.899   0.100E-11
     TRS4 it   9 1.00000000   0.663E-06       0.013     2208.342   0.100E-11
     TRS4 it  10 1.00000000   0.179E-12       0.013     2199.015   0.100E-11
     Final TRS4 iteration   10 1.00000000   0.179E-12
     Chemical potential (mu):       0.05841
 
 PAO| energy:  -191.33772705925247      penalty:   5.0427829712147926E-004
 PAO|LS| adapt:  T T T
 PAO|LS| adapt: scan_steps:    0.0000000000000000       0.39762476514250689       0.79524953028501377     
 PAO|LS| adapt: energies:   -191.39850351996773       -191.40228496859697       -191.33772705925247     
 PAO|LS| adapt: suggested step_size:   0.22081431041608243     
 PAO|LS| adapt: predicted energy  -191.40904128422275     
 PAO| ======================= Iteration:        19 =============================

     Lanczos converged:  T threshold:   0.100E-02
     Est. extremal eigenvalues:    0.472E+01   0.132E+00
     Est. condition number :    0.358E+02

 Order=           3
     NS sqrt iter    1 1.00000000   0.121E+01       0.021     2722.351
     NS sqrt iter    2 1.00000000   0.619E+00       0.033     3393.486
     NS sqrt iter    3 1.00000000   0.198E+00       0.034     3363.661
     NS sqrt iter    4 1.00000000   0.245E-01       0.033     3397.955
     NS sqrt iter    5 1.00000000   0.101E-03       0.033     3388.042
     NS sqrt iter    6 1.00000000   0.199E-10       0.017     2211.321
     Symmetrizing Results
     Final NS sqrt iter    6 1.00000000   0.212E-11

     Est. extremal eigenvalues     -0.83685     2.58970  converged:  T
     TRS4 it   1 1.00000000   0.285E+02       0.007     2172.079   0.100E-11
     TRS4 it   2 1.00000000   0.235E+02       0.013     2221.834   0.100E-11
     TRS4 it   3 1.00000000   0.154E+02       0.013     2233.200   0.100E-11
     TRS4 it   4 1.00000000   0.893E+01       0.013     2216.764   0.100E-11
     TRS4 it   5 1.00000000   0.368E+01       0.013     2234.448   0.100E-11
     TRS4 it   6 1.00000000   0.916E+00       0.013     2250.511   0.100E-11
     TRS4 it   7 1.00000000   0.104E+00       0.013     2242.878   0.100E-11
     TRS4 it   8 1.00000000   0.194E-02       0.013     2210.347   0.100E-11
     TRS4 it   9 1.00000000   0.838E-06       0.013     2244.640   0.100E-11
     TRS4 it  10 1.00000000   0.279E-12       0.013     2237.465   0.100E-11
     Final TRS4 iteration   10 1.00000000   0.279E-12
     Chemical potential (mu):       0.05671
 
 PAO| energy:  -191.40903152578676      penalty:   5.0973468465225066E-004
 PAO|CG| trace_G_new    2.0581780430533967E-002
 PAO|CG| trace_G_prev    9.5523153744699399E-002
 PAO|CG| trace_G_mix   -2.9119999770602968E-004
 PAO|CG| trace_D   0.14200872614785753     
 PAO|CG| trace_D_Gnew  -3.5026639977590954E-005
 PAO|CG| beta:   0.21851226231523208     
 PAO| norm of gradient:  0.14346351602597077     
 PAO| energy improvement:  -1.0528005819026021E-002
 PAO| step     19                 -191.409031526  0.280E-03  0.221E+00     1.433
 PAO|LS| adapt:  T F F
 PAO|LS| adapt: scan_steps:    0.0000000000000000        0.0000000000000000        0.0000000000000000     
 PAO|LS| adapt: energies:   -191.40903152578676        0.0000000000000000        0.0000000000000000     
 PAO| ======================= Iteration:        20 =============================

     Lanczos converged:  T threshold:   0.100E-02
     Est. extremal eigenvalues:    0.472E+01   0.132E+00
     Est. condition number :    0.358E+02

 Order=           3
     NS sqrt iter    1 1.00000000   0.121E+01       0.021     2742.280
     NS sqrt iter    2 1.00000000   0.618E+00       0.033     3389.271
     NS sqrt iter    3 1.00000000   0.198E+00       0.033     3408.000
     NS sqrt iter    4 1.00000000   0.245E-01       0.033     3407.884
     NS sqrt iter    5 1.00000000   0.101E-03       0.033     3407.493
     NS sqrt iter    6 1.00000000   0.197E-10       0.017     2200.291
     Symmetrizing Results
     Final NS sqrt iter    6 1.00000000   0.212E-11

     Est. extremal eigenvalues     -0.83686     2.58865  converged:  T
     TRS4 it   1 1.00000000   0.285E+02       0.007     2158.763   0.100E-11
     TRS4 it   2 1.00000000   0.235E+02       0.013     2241.145   0.100E-11
     TRS4 it   3 1.00000000   0.154E+02       0.013     2233.200   0.100E-11
     TRS4 it   4 1.00000000   0.892E+01       0.013     2238.911   0.100E-11
     TRS4 it   5 1.00000000   0.367E+01       0.013     2213.020   0.100E-11
     TRS4 it   6 1.00000000   0.912E+00       0.013     2226.239   0.100E-11
     TRS4 it   7 1.00000000   0.103E+00       0.013     2234.768   0.100E-11
     TRS4 it   8 1.00000000   0.191E-02       0.013     2225.925   0.100E-11
     TRS4 it   9 1.00000000   0.809E-06       0.013     2210.524   0.100E-11
     TRS4 it  10 1.00000000   0.302E-12       0.013     2213.462   0.100E-11
     Final TRS4 iteration   10 1.00000000   0.302E-12
     Chemical potential (mu):       0.05694
 
 PAO| energy:  -191.41270503818566      penalty:   4.9968501959987363E-004
 PAO|LS| adapt:  T T F
 PAO|LS| adapt: scan_steps:    0.0000000000000000       0.22081431041608243        0.0000000000000000     
 PAO|LS| adapt: energies:   -191.40903152578676       -191.41270503818566        0.0000000000000000     
 PAO| ======================= Iteration:        21 =============================

     Lanczos converged:  T threshold:   0.100E-02
     Est. extremal eigenvalues:    0.471E+01   0.132E+00
     Est. condition number :    0.357E+02

 Order=           3
     NS sqrt iter    1 1.00000000   0.121E+01       0.021     2720.724
     NS sqrt iter    2 1.00000000   0.618E+00       0.033     3398.162
     NS sqrt iter    3 1.00000000   0.198E+00       0.033     3392.712
     NS sqrt iter    4 1.00000000   0.245E-01       0.033     3393.237
     NS sqrt iter    5 1.00000000   0.101E-03       0.033     3399.997
     NS sqrt iter    6 1.00000000   0.195E-10       0.017     2209.485
     Symmetrizing Results
     Final NS sqrt iter    6 1.00000000   0.211E-11

     Est. extremal eigenvalues     -0.83686     2.58760  converged:  T
     TRS4 it   1 1.00000000   0.285E+02       0.007     2139.204   0.100E-11
     TRS4 it   2 1.00000000   0.234E+02       0.013     2218.807   0.100E-11
     TRS4 it   3 1.00000000   0.154E+02       0.013     2243.783   0.100E-11
     TRS4 it   4 1.00000000   0.891E+01       0.013     2213.152   0.100E-11
     TRS4 it   5 1.00000000   0.366E+01       0.013     2240.709   0.100E-11
     TRS4 it   6 1.00000000   0.908E+00       0.013     2239.858   0.100E-11
     TRS4 it   7 1.00000000   0.103E+00       0.013     2212.347   0.100E-11
     TRS4 it   8 1.00000000   0.188E-02       0.013     2220.732   0.100E-11
     TRS4 it   9 1.00000000   0.781E-06       0.013     2239.526   0.100E-11
     TRS4 it  10 1.00000000   0.234E-12       0.013     2222.997   0.100E-11
     Final TRS4 iteration   10 1.00000000   0.234E-12
     Chemical potential (mu):       0.05716
 
 PAO| energy:  -191.41462024823645      penalty:   4.9006872777164695E-004
 PAO|LS| adapt:  T T F
 PAO|LS| adapt: scan_steps:    0.0000000000000000       0.44162862083216486        0.0000000000000000     
 PAO|LS| adapt: energies:   -191.40903152578676       -191.41462024823645        0.0000000000000000     
 PAO| ======================= Iteration:        22 =============================

     Lanczos converged:  T threshold:   0.100E-02
     Est. extremal eigenvalues:    0.470E+01   0.132E+00
     Est. condition number :    0.357E+02

 Order=           3
     NS sqrt iter    1 1.00000000   0.121E+01       0.021     2697.183
     NS sqrt iter    2 1.00000000   0.617E+00       0.033     3411.873
     NS sqrt iter    3 1.00000000   0.198E+00       0.034     3375.873
     NS sqrt iter    4 1.00000000   0.245E-01       0.033     3391.887
     NS sqrt iter    5 1.00000000   0.100E-03       0.033     3394.611
     NS sqrt iter    6 1.00000000   0.192E-10       0.017     2196.947
     Symmetrizing Results
     Final NS sqrt iter    6 1.00000000   0.209E-11

     Est. extremal eigenvalues     -0.83683     2.58550  converged:  T
     TRS4 it   1 1.00000000   0.285E+02       0.007     2156.476   0.100E-11
     TRS4 it   2 1.00000000   0.234E+02       0.013     2234.871   0.100E-11
     TRS4 it   3 1.00000000   0.154E+02       0.013     2214.566   0.100E-11
     TRS4 it   4 1.00000000   0.888E+01       0.013     2238.756   0.100E-11
     TRS4 it   5 1.00000000   0.364E+01       0.013     2220.529   0.100E-11
     TRS4 it   6 1.00000000   0.899E+00       0.013     2239.609   0.100E-11
     TRS4 it   7 1.00000000   0.101E+00       0.013     2215.525   0.100E-11
     TRS4 it   8 1.00000000   0.181E-02       0.013     2203.072   0.100E-11
     TRS4 it   9 1.00000000   0.728E-06       0.013     2219.755   0.100E-11
     TRS4 it  10 1.00000000   0.220E-12       0.013     2219.767   0.100E-11
     Final TRS4 iteration   10 1.00000000   0.220E-12
     Chemical potential (mu):       0.05762
 
 PAO| energy:  -191.41310047157563      penalty:   4.7210759307089885E-004
 PAO|LS| Need extra step
 PAO|LS| adapt:  T T T
 PAO|LS| adapt: scan_steps:    0.0000000000000000       0.44162862083216486       0.88325724166432973     
 PAO|LS| adapt: energies:   -191.40903152578676       -191.41462024823645       -191.41310047157563     
 PAO|LS| adapt: suggested step_size:   0.56802400254687457     
 PAO|LS| adapt: predicted energy  -191.41491138423393     
 PAO| ======================= Iteration:        23 =============================

     Lanczos converged:  T threshold:   0.100E-02
     Est. extremal eigenvalues:    0.471E+01   0.132E+00
     Est. condition number :    0.357E+02

 Order=           3
     NS sqrt iter    1 1.00000000   0.121E+01       0.021     2718.253
     NS sqrt iter    2 1.00000000   0.617E+00       0.033     3405.994
     NS sqrt iter    3 1.00000000   0.198E+00       0.033     3395.913
     NS sqrt iter    4 1.00000000   0.245E-01       0.034     3377.849
     NS sqrt iter    5 1.00000000   0.101E-03       0.033     3420.301
     NS sqrt iter    6 1.00000000   0.194E-10       0.017     2176.583
     Symmetrizing Results
     Final NS sqrt iter    6 1.00000000   0.211E-11

     Est. extremal eigenvalues     -0.83685     2.58700  converged:  T
     TRS4 it   1 1.00000000   0.285E+02       0.007     2184.932   0.100E-11
     TRS4 it   2 1.00000000   0.234E+02       0.013     2241.114   0.100E-11
     TRS4 it   3 1.00000000   0.154E+02       0.013     2197.779   0.100E-11
     TRS4 it   4 1.00000000   0.890E+01       0.013     2220.716   0.100E-11
     TRS4 it   5 1.00000000   0.365E+01       0.013     2225.208   0.100E-11
     TRS4 it   6 1.00000000   0.905E+00       0.013     2253.275   0.100E-11
     TRS4 it   7 1.00000000   0.102E+00       0.013     2211.797   0.100E-11
     TRS4 it   8 1.00000000   0.186E-02       0.013     2234.401   0.100E-11
     TRS4 it   9 1.00000000   0.766E-06       0.013     2223.656   0.100E-11
     TRS4 it  10 1.00000000   0.243E-12       0.013     2234.531   0.100E-11
     Final TRS4 iteration   10 1.00000000   0.243E-12
     Chemical potential (mu):       0.05730
 
 PAO| energy:  -191.41491799962597      penalty:   4.8475637657776840E-004
 PAO|CG| trace_G_new    1.5468221763461401E-002
 PAO|CG| trace_G_prev    2.0581780430533967E-002
 PAO|CG| trace_G_mix    1.0482888393757939E-004
 PAO|CG| trace_D    2.7377665030974808E-002
 PAO|CG| trace_D_Gnew  -4.3059057374572672E-005
 PAO|CG| beta:   0.74645597019058463     
 PAO| norm of gradient:  0.12437130602941099     
 PAO| energy improvement:  -5.8864738392117033E-003
 PAO| step     23                 -191.414918000  0.243E-03  0.568E+00     1.861
 PAO|LS| adapt:  T F F
 PAO|LS| adapt: scan_steps:    0.0000000000000000        0.0000000000000000        0.0000000000000000     
 PAO|LS| adapt: energies:   -191.41491799962597        0.0000000000000000        0.0000000000000000     
 PAO| ======================= Iteration:        24 =============================

     Lanczos converged:  T threshold:   0.100E-02
     Est. extremal eigenvalues:    0.469E+01   0.132E+00
     Est. condition number :    0.357E+02

 Order=           3
     NS sqrt iter    1 1.00000000   0.121E+01       0.021     2706.049
     NS sqrt iter    2 1.00000000   0.616E+00       0.033     3418.906
     NS sqrt iter    3 1.00000000   0.197E+00       0.033     3391.175
     NS sqrt iter    4 1.00000000   0.245E-01       0.033     3400.333
     NS sqrt iter    5 1.00000000   0.101E-03       0.033     3398.764
     NS sqrt iter    6 1.00000000   0.192E-10       0.017     2190.582
     Symmetrizing Results
     Final NS sqrt iter    6 1.00000000   0.211E-11

     Est. extremal eigenvalues     -0.83686     2.58339  converged:  T
     TRS4 it   1 1.00000000   0.285E+02       0.007     2124.258   0.100E-11
     TRS4 it   2 1.00000000   0.234E+02       0.013     2249.117   0.100E-11
     TRS4 it   3 1.00000000   0.154E+02       0.013     2208.296   0.100E-11
     TRS4 it   4 1.00000000   0.887E+01       0.013     2213.541   0.100E-11
     TRS4 it   5 1.00000000   0.363E+01       0.013     2214.606   0.100E-11
     TRS4 it   6 1.00000000   0.895E+00       0.013     2204.615   0.100E-11
     TRS4 it   7 1.00000000   0.100E+00       0.013     2236.680   0.100E-11
     TRS4 it   8 1.00000000   0.179E-02       0.013     2223.772   0.100E-11
     TRS4 it   9 1.00000000   0.708E-06       0.013     2217.697   0.100E-11
     TRS4 it  10 1.00000000   0.222E-12       0.013     2199.655   0.100E-11
     Final TRS4 iteration   10 1.00000000   0.222E-12
     Chemical potential (mu):       0.05779
 
 PAO| energy:  -191.41835159821900      penalty:   4.4671778864233900E-004
 PAO|LS| adapt:  T T F
 PAO|LS| adapt: scan_steps:    0.0000000000000000       0.56802400254687457        0.0000000000000000     
 PAO|LS| adapt: energies:   -191.41491799962597       -191.41835159821900        0.0000000000000000     
 PAO| ======================= Iteration:        25 =============================

     Lanczos converged:  T threshold:   0.100E-02
     Est. extremal eigenvalues:    0.468E+01   0.131E+00
     Est. condition number :    0.356E+02

 Order=           3
     NS sqrt iter    1 1.00000000   0.120E+01       0.021     2671.415
     NS sqrt iter    2 1.00000000   0.615E+00       0.033     3405.423
     NS sqrt iter    3 1.00000000   0.197E+00       0.034     3364.970
     NS sqrt iter    4 1.00000000   0.244E-01       0.033     3402.376
     NS sqrt iter    5 1.00000000   0.101E-03       0.033     3414.948
     NS sqrt iter    6 1.00000000   0.191E-10       0.017     2193.606
     Symmetrizing Results
     Final NS sqrt iter    6 1.00000000   0.211E-11

     Est. extremal eigenvalues     -0.83678     2.57979  converged:  T
     TRS4 it   1 1.00000000   0.285E+02       0.007     2156.492   0.100E-11
     TRS4 it   2 1.00000000   0.234E+02       0.013     2218.134   0.100E-11
     TRS4 it   3 1.00000000   0.154E+02       0.013     2208.159   0.100E-11
     TRS4 it   4 1.00000000   0.885E+01       0.013     2215.190   0.100E-11
     TRS4 it   5 1.00000000   0.361E+01       0.013     2225.568   0.100E-11
     TRS4 it   6 1.00000000   0.886E+00       0.013     2253.396   0.100E-11
     TRS4 it   7 1.00000000   0.981E-01       0.013     2237.994   0.100E-11
     TRS4 it   8 1.00000000   0.172E-02       0.013     2241.830   0.100E-11
     TRS4 it   9 1.00000000   0.655E-06       0.013     2217.977   0.100E-11
     TRS4 it  10 1.00000000   0.181E-12       0.013     2213.442   0.100E-11
     Final TRS4 iteration   10 1.00000000   0.181E-12
     Chemical potential (mu):       0.05828
 
 PAO| energy:  -191.41085565290476      penalty:   4.1262140518748063E-004
 PAO|LS| adapt:  T T T
 PAO|LS| adapt: scan_steps:    0.0000000000000000       0.56802400254687457        1.1360480050937491     
 PAO|LS| adapt: energies:   -191.41491799962597       -191.41835159821900       -191.41085565290476     
 PAO|LS| adapt: suggested step_size:   0.46246102279712936     
 PAO|LS| adapt: predicted energy  -191.41854033734919     
 PAO| ======================= Iteration:        26 =============================

     Lanczos converged:  T threshold:   0.100E-02
     Est. extremal eigenvalues:    0.470E+01   0.132E+00
     Est. condition number :    0.357E+02

 Order=           3
     NS sqrt iter    1 1.00000000   0.121E+01       0.021     2708.807
     NS sqrt iter    2 1.00000000   0.616E+00       0.033     3417.749
     NS sqrt iter    3 1.00000000   0.197E+00       0.033     3387.455
     NS sqrt iter    4 1.00000000   0.245E-01       0.034     3378.414
     NS sqrt iter    5 1.00000000   0.101E-03       0.033     3384.234
     NS sqrt iter    6 1.00000000   0.193E-10       0.017     2187.222
     Symmetrizing Results
     Final NS sqrt iter    6 1.00000000   0.211E-11

     Est. extremal eigenvalues     -0.83686     2.58406  converged:  T
     TRS4 it   1 1.00000000   0.285E+02       0.007     2137.131   0.100E-11
     TRS4 it   2 1.00000000   0.234E+02       0.013     2232.906   0.100E-11
     TRS4 it   3 1.00000000   0.154E+02       0.013     2227.277   0.100E-11
     TRS4 it   4 1.00000000   0.888E+01       0.013     2201.228   0.100E-11
     TRS4 it   5 1.00000000   0.363E+01       0.013     2232.554   0.100E-11
     TRS4 it   6 1.00000000   0.897E+00       0.013     2234.655   0.100E-11
     TRS4 it   7 1.00000000   0.100E+00       0.013     2213.352   0.100E-11
     TRS4 it   8 1.00000000   0.180E-02       0.013     2208.373   0.100E-11
     TRS4 it   9 1.00000000   0.719E-06       0.013     2214.044   0.100E-11
     TRS4 it  10 1.00000000   0.243E-12       0.013     2210.079   0.100E-11
     Final TRS4 iteration   10 1.00000000   0.243E-12
     Chemical potential (mu):       0.05770
 
 PAO| energy:  -191.41853185469992      penalty:   4.5348311160457169E-004
 PAO|CG| trace_G_new    1.3385748696133865E-002
 PAO|CG| trace_G_prev    1.5468221763461401E-002
 PAO|CG| trace_G_mix    2.4331822369352352E-004
 PAO|CG| trace_D    3.0787244700313091E-002
 PAO|CG| trace_D_Gnew  -7.4461613045201359E-005
 PAO|CG| beta:   0.84964068096599332     
 PAO| norm of gradient:  0.11569679639529293     
 PAO| energy improvement:  -3.6138550739508446E-003
 PAO| step     26                 -191.418531855  0.226E-03  0.462E+00     1.436
 PAO|LS| adapt:  T F F
 PAO|LS| adapt: scan_steps:    0.0000000000000000        0.0000000000000000        0.0000000000000000     
 PAO|LS| adapt: energies:   -191.41853185469992        0.0000000000000000        0.0000000000000000     
 PAO| ======================= Iteration:        27 =============================

     Lanczos converged:  T threshold:   0.100E-02
     Est. extremal eigenvalues:    0.468E+01   0.131E+00
     Est. condition number :    0.356E+02

 Order=           3
     NS sqrt iter    1 1.00000000   0.120E+01       0.021     2703.646
     NS sqrt iter    2 1.00000000   0.615E+00       0.033     3415.404
     NS sqrt iter    3 1.00000000   0.197E+00       0.034     3375.618
     NS sqrt iter    4 1.00000000   0.244E-01       0.033     3390.520
     NS sqrt iter    5 1.00000000   0.100E-03       0.033     3387.856
     NS sqrt iter    6 1.00000000   0.193E-10       0.017     2220.640
     Symmetrizing Results
     Final NS sqrt iter    6 1.00000000   0.211E-11

     Est. extremal eigenvalues     -0.83687     2.58123  converged:  T
     TRS4 it   1 1.00000000   0.286E+02       0.007     2120.630   0.100E-11
     TRS4 it   2 1.00000000   0.234E+02       0.013     2237.554   0.100E-11
     TRS4 it   3 1.00000000   0.154E+02       0.013     2210.016   0.100E-11
     TRS4 it   4 1.00000000   0.885E+01       0.013     2233.044   0.100E-11
     TRS4 it   5 1.00000000   0.361E+01       0.013     2211.458   0.100E-11
     TRS4 it   6 1.00000000   0.888E+00       0.013     2213.932   0.100E-11
     TRS4 it   7 1.00000000   0.984E-01       0.013     2252.817   0.100E-11
     TRS4 it   8 1.00000000   0.173E-02       0.013     2214.501   0.100E-11
     TRS4 it   9 1.00000000   0.663E-06       0.013     2236.106   0.100E-11
     TRS4 it  10 1.00000000   0.155E-12       0.013     2224.846   0.100E-11
     Final TRS4 iteration   10 1.00000000   0.155E-12
     Chemical potential (mu):       0.05822
 
 PAO| energy:  -191.42098332211273      penalty:   4.1295521668509170E-004
 PAO|LS| adapt:  T T F
 PAO|LS| adapt: scan_steps:    0.0000000000000000       0.46246102279712936        0.0000000000000000     
 PAO|LS| adapt: energies:   -191.41853185469992       -191.42098332211273        0.0000000000000000     
 PAO| ======================= Iteration:        28 =============================

     Lanczos converged:  T threshold:   0.100E-02
     Est. extremal eigenvalues:    0.467E+01   0.131E+00
     Est. condition number :    0.356E+02

 Order=           3
     NS sqrt iter    1 1.00000000   0.120E+01       0.021     2727.914
     NS sqrt iter    2 1.00000000   0.613E+00       0.034     3376.572
     NS sqrt iter    3 1.00000000   0.196E+00       0.033     3400.010
     NS sqrt iter    4 1.00000000   0.243E-01       0.033     3382.194
     NS sqrt iter    5 1.00000000   0.100E-03       0.033     3398.730
     NS sqrt iter    6 1.00000000   0.194E-10       0.017     2190.653
     Symmetrizing Results
     Final NS sqrt iter    6 1.00000000   0.210E-11

     Est. extremal eigenvalues     -0.83686     2.57849  converged:  T
     TRS4 it   1 1.00000000   0.286E+02       0.007     2113.930   0.100E-11
     TRS4 it   2 1.00000000   0.234E+02       0.013     2236.756   0.100E-11
     TRS4 it   3 1.00000000   0.154E+02       0.013     2218.672   0.100E-11
     TRS4 it   4 1.00000000   0.883E+01       0.013     2185.627   0.100E-11
     TRS4 it   5 1.00000000   0.359E+01       0.013     2210.667   0.100E-11
     TRS4 it   6 1.00000000   0.878E+00       0.013     2231.542   0.100E-11
     TRS4 it   7 1.00000000   0.964E-01       0.013     2227.172   0.100E-11
     TRS4 it   8 1.00000000   0.166E-02       0.013     2227.983   0.100E-11
     TRS4 it   9 1.00000000   0.612E-06       0.013     2246.009   0.100E-11
     TRS4 it  10 1.00000000   0.140E-12       0.013     2225.199   0.100E-11
     Final TRS4 iteration   10 1.00000000   0.140E-12
     Chemical potential (mu):       0.05875
 
 PAO| energy:  -191.41582306474965      penalty:   3.7631898829890029E-004
 PAO|LS| adapt:  T T T
 PAO|LS| adapt: scan_steps:    0.0000000000000000       0.46246102279712936       0.92492204559425872     
 PAO|LS| adapt: energies:   -191.41853185469992       -191.42098332211273       -191.41582306474965     
 PAO|LS| adapt: suggested step_size:   0.38017285501459608     
 PAO|LS| adapt: predicted energy  -191.42110381949030     
 PAO| ======================= Iteration:        29 =============================

     Lanczos converged:  T threshold:   0.100E-02
     Est. extremal eigenvalues:    0.468E+01   0.131E+00
     Est. condition number :    0.356E+02

 Order=           3
     NS sqrt iter    1 1.00000000   0.120E+01       0.021     2681.887
     NS sqrt iter    2 1.00000000   0.615E+00       0.033     3405.620
     NS sqrt iter    3 1.00000000   0.197E+00       0.033     3412.287
     NS sqrt iter    4 1.00000000   0.244E-01       0.033     3403.438
     NS sqrt iter    5 1.00000000   0.100E-03       0.033     3399.851
     NS sqrt iter    6 1.00000000   0.193E-10       0.017     2193.633
     Symmetrizing Results
     Final NS sqrt iter    6 1.00000000   0.210E-11

     Est. extremal eigenvalues     -0.83687     2.58173  converged:  T
     TRS4 it   1 1.00000000   0.286E+02       0.007     2152.858   0.100E-11
     TRS4 it   2 1.00000000   0.234E+02       0.013     2231.556   0.100E-11
     TRS4 it   3 1.00000000   0.154E+02       0.013     2202.548   0.100E-11
     TRS4 it   4 1.00000000   0.886E+01       0.013     2226.031   0.100E-11
     TRS4 it   5 1.00000000   0.362E+01       0.013     2209.839   0.100E-11
     TRS4 it   6 1.00000000   0.889E+00       0.013     2252.829   0.100E-11
     TRS4 it   7 1.00000000   0.987E-01       0.013     2213.881   0.100E-11
     TRS4 it   8 1.00000000   0.174E-02       0.013     2215.670   0.100E-11
     TRS4 it   9 1.00000000   0.673E-06       0.013     2225.836   0.100E-11
[...]
     TRS4 it   2 1.00000000   0.235E+02       0.013     2238.195   0.100E-11
     TRS4 it   3 1.00000000   0.155E+02       0.013     2216.648   0.100E-11
     TRS4 it   4 1.00000000   0.918E+01       0.013     2226.780   0.100E-11
     TRS4 it   5 1.00000000   0.408E+01       0.013     2209.374   0.100E-11
     TRS4 it   6 1.00000000   0.124E+01       0.013     2177.705   0.100E-11
     TRS4 it   7 1.00000000   0.210E+00       0.013     2243.189   0.100E-11
     TRS4 it   8 1.00000000   0.908E-02       0.013     2193.157   0.100E-11
     TRS4 it   9 1.00000000   0.213E-04       0.013     2234.578   0.100E-11
     TRS4 it  10 1.00000000   0.190E-09       0.013     2212.524   0.100E-11
     Final TRS4 iteration   10 1.00000000   0.190E-09
     Chemical potential (mu):       0.03153
 
 PAO| energy:  -191.02211142005800      penalty:   2.9951189167925055E-008
 PAO| Writing restart file.
     Est. extremal eigenvalues     -0.83711     2.55728  converged:  T
     TRS4 it   1 1.00000000   0.287E+02       0.007     2154.941   0.100E-11
     TRS4 it   2 1.00000000   0.235E+02       0.013     2216.156   0.100E-11
     TRS4 it   3 1.00000000   0.155E+02       0.013     2217.944   0.100E-11
     TRS4 it   4 1.00000000   0.918E+01       0.013     2231.194   0.100E-11
     TRS4 it   5 1.00000000   0.408E+01       0.013     2200.963   0.100E-11
     TRS4 it   6 1.00000000   0.124E+01       0.013     2208.997   0.100E-11
     TRS4 it   7 1.00000000   0.210E+00       0.013     2216.025   0.100E-11
     TRS4 it   8 1.00000000   0.908E-02       0.013     2229.542   0.100E-11
     TRS4 it   9 1.00000000   0.213E-04       0.013     2220.531   0.100E-11
     TRS4 it  10 1.00000000   0.190E-09       0.013     2232.667   0.100E-11
     Final TRS4 iteration   10 1.00000000   0.190E-09
     Chemical potential (mu):       0.03153

 SCF     1     -1103.059482423     -1103.059482423    1.747600

*********************************************************
 Using MIXING_FRACTION=0.450 to mix KS matrix:  iscf=  2
 KS_nw=0.450*KS + 0.550*KS_old
*********************************************************
     Est. extremal eigenvalues     -0.83711     2.55728  converged:  T
     TRS4 it   1 1.00000000   0.287E+02       0.007     2119.184   0.100E-11
     TRS4 it   2 1.00000000   0.235E+02       0.013     2225.173   0.100E-11
     TRS4 it   3 1.00000000   0.155E+02       0.013     2221.555   0.100E-11
     TRS4 it   4 1.00000000   0.918E+01       0.013     2221.340   0.100E-11
     TRS4 it   5 1.00000000   0.408E+01       0.013     2220.560   0.100E-11
     TRS4 it   6 1.00000000   0.124E+01       0.013     2207.229   0.100E-11
     TRS4 it   7 1.00000000   0.210E+00       0.013     2216.324   0.100E-11
     TRS4 it   8 1.00000000   0.908E-02       0.013     2223.640   0.100E-11
     TRS4 it   9 1.00000000   0.213E-04       0.013     2212.824   0.100E-11
     TRS4 it  10 1.00000000   0.190E-09       0.013     2218.864   0.100E-11
     Final TRS4 iteration   10 1.00000000   0.190E-09
     Chemical potential (mu):       0.03153

 SCF     2     -1103.059482424        -0.000000000    1.748842


 SCF run converged in     2 steps.

 PAO| Storing density matrix for ASPC guess in slot:           1

 ENERGY| Total FORCE_EVAL ( QS ) energy [a.u.]:            -1103.059482423570216

 -------------------------------------------------------------------------------
 -                                                                             -
 -                                DBCSR STATISTICS                             -
 -                                                                             -
 -------------------------------------------------------------------------------
 COUNTER                                    TOTAL       BLAS       SMM       ACC
 flops     5 x     5 x     4             23116800       0.0%    100.0%      0.0%     
 flops    13 x     5 x     4             29818880       0.0%    100.0%      0.0%     
 flops     5 x    13 x     4             29818880       0.0%    100.0%      0.0%     
 flops    13 x    13 x     4             39370240       0.0%    100.0%      0.0%     
 flops     4 x     4 x     5           6240337920       0.0%    100.0%      0.0%     
 flops     5 x     4 x     5           7697203200       0.0%    100.0%      0.0%     
 flops     4 x     4 x    13           8112439296       0.0%    100.0%      0.0%     
 flops    13 x     4 x     5          10006364160       0.0%    100.0%      0.0%     
 flops     5 x     4 x    13          10006364160       0.0%    100.0%      0.0%     
 flops    13 x     4 x    13          13008273408       0.0%    100.0%      0.0%     
 flops     5 x     4 x     4         399660850560       0.0%    100.0%      0.0%     
 flops    13 x     4 x     4         549646876480       0.0%    100.0%      0.0%     
 flops     4 x     4 x     4       28018971918464       0.0%    100.0%      0.0%     
 flops inhomo. stacks                           0       0.0%      0.0%      0.0%
 flops total                        29.023473E+12       0.0%    100.0%      0.0%
 flops max/rank                    915.691916E+09       0.0%    100.0%      0.0%
 matmuls inhomo. stacks                         0       0.0%      0.0%      0.0%
 matmuls total                       222862721055       0.0%    100.0%      0.0%
 number of processed stacks             227639680       0.0%    100.0%      0.0%
 average stack size                                     0.0     979.0       0.0
 marketing flops                    50.182079E+12
 -------------------------------------------------------------------------------
 # multiplications                          46905
 max memory usage/rank             620.707840E+06
 # max total images/rank                        2
 # max 3D layers                                1
 # MPI messages exchanged                19512480
 MPI messages size (bytes):
  total size                         2.313766E+12
  min size                           0.000000E+00
  max size                         541.696000E+03
  average size                     118.578789E+03
 MPI breakdown and total messages size (bytes):
             size <=      128              856002                    13440
       128 < size <=     8192              291099               1094099072
      8192 < size <=    32768               77291               1846950528
     32768 < size <=   131072             8362668             618587332096
    131072 < size <=  4194304             9925420            1692615697664
   4194304 < size <= 16777216                   0                        0
  16777216 < size                               0                        0
 -------------------------------------------------------------------------------

 *** WARNING in dbcsr_mm.F:301 :: Using a non-square number of MPI ranks ***
 *** might lead to poor performance. Used ranks: 32 Suggested: 36 64     ***

 -------------------------------------------------------------------------------
 -                                                                             -
 -                      DBCSR MESSAGE PASSING PERFORMANCE                      -
 -                                                                             -
 -------------------------------------------------------------------------------
 ROUTINE             CALLS      AVE VOLUME [Bytes]
 MP_Bcast               14                     12.
 MP_Allreduce       280513                     37.
 MP_Alltoall        121822                  14865.
 MP_ISend          1566636                  55245.
 MP_IRecv          1533798                  56493.
 -------------------------------------------------------------------------------

 -------------------------------------------------------------------------------
 -                                                                             -
 -                                DBM STATISTICS                               -
 -                                                                             -
 -------------------------------------------------------------------------------
    M  x    N  x    K                                          COUNT     PERCENT
 -------------------------------------------------------------------------------

 -------------------------------------------------------------------------------
 -                                                                             -
 -                                GRID STATISTICS                              -
 -                                                                             -
 -------------------------------------------------------------------------------
 LP    KERNEL             BACKEND                              COUNT     PERCENT
 2     collocate ortho    CPU                               11478222      28.84%
 2     integrate ortho    CPU                               11478222      28.84%
 3     collocate ortho    CPU                                7374542      18.53%
 3     integrate ortho    CPU                                7374542      18.53%
 4     collocate ortho    CPU                                1046962       2.63%
 4     integrate ortho    CPU                                1046962       2.63%
 0     collocate general  CPU                                   6144       0.02%
 -------------------------------------------------------------------------------

 MEMORY| Estimated peak process memory [MiB]                                 592

 -------------------------------------------------------------------------------
 -                                                                             -
 -                         MESSAGE PASSING PERFORMANCE                         -
 -                                                                             -
 -------------------------------------------------------------------------------

 ROUTINE             CALLS      AVE VOLUME [Bytes]
 MP_Group                5
 MP_Bcast           272182                   2314.
 MP_Allreduce       677266                    514.
 MP_Sync                 5
 MP_Alltoall           369                5473685.
 MP_SendRecv          1302                  18832.
 MP_ISendRecv         1302                  18832.
 MP_Wait              3696
 MP_ISend             2166                 108220.
 MP_IRecv             2166                 108236.
 -------------------------------------------------------------------------------


 -------------------------------------------------------------------------------
 -                                                                             -
 -                           R E F E R E N C E S                               -
 -                                                                             -
 -------------------------------------------------------------------------------
 
 CP2K version 2024.3 (Development Version), the CP2K developers group (2024).
 CP2K is freely available from https://www.cp2k.org/ .
 
 T. D. Kuehne, M. Iannuzzi, M. Del Ben, V. V. Rybkin, P. Seewald, F. Stein, T. 
 Laino, R. Z. Khaliullin, O. Schuett, F. Schiffmann, D. Golze, J. Wilhelm, S. 
 Chulkov, M. H. Bani-Hashemian, V. Weber, U. Borstnik, M. Taillefumier, A. S. 
 Jakobovits, A. Lazzaro, H. Pabst, T. Mueller, R. Schade, M. Guidon, S. 
 Andermatt, N. Holmberg, G. K. Schenter, A. Hehn, A. Bussy, F. Belleflamme, G. 
 Tabacchi, A. Gloess, M. Lass, I. Bethune, C. J. Mundy, C. Plessl, M. Watkins, 
 J. VandeVondele, M. Krack, J. Hutter.
 J. Chem. Phys. 152, 194103 (2020).
 CP2K: An electronic structure and molecular dynamics software package - 
 Quickstep: Efficient and accurate electronic structure calculations.
 https://doi.org/10.1063/5.0007045

 O. Schuett, J. VandeVondele.
 J. Chem. Theory Comput. 14, 4168-4175 (2018).
 Machine Learning Adaptive Basis Sets for Efficient Large Scale Density 
 Functional Theory Simulation.
 https://doi.org/10.1021/acs.jctc.8b00378

 O. Schuett, P. Messmer, J. Hutter, J. VandeVondele.
 Electronic Structure Calculations on Graphics Processing Units, 173-190 (2016).
 GPU-Accelerated Sparse Matrix-Matrix Multiplication for Linear Scaling Density 
 Functional Theory.
 https://doi.org/10.1002/9781118670712.ch8

 A. Heinecke, G. Henry, M. Hutchinson, H. Pabst.
 Proceedings of Intl. Supercomputing Conference, 981-991 (2016).
 LIBXSMM: Accelerating Small Matrix Multiplications by Runtime Code Generation.
 https://doi.org/10.1109/SC.2016.83

 J. Hutter, M. Iannuzzi, F. Schiffmann, J. VandeVondele.
 WIREs Comput Mol Sci. 4, 15-25 (2014).
 CP2K: atomistic simulations of condensed matter systems.
 https://doi.org/10.1002/wcms.1159

 U. Borstnik, J. VandeVondele, V. Weber, J. Hutter.
 Parallel Comput. 40, 47-58 (2014).
 Sparse matrix multiplication: The distributed block-compressed sparse row 
 library.
 https://doi.org/10.1016/j.parco.2014.03.012

 A. Marek, V. Blum, R. Johanni, V. Havu, B. Lang, T. Auckenthaler, A. Heinecke, 
 H. Bungartz, H. Lederer.
 J. Phys. Condens. Matter 26, 213201 (2014).
 The ELPA library: scalable parallel eigenvalue solutions for electronic 
 structure theory and computational science.
 https://doi.org/10.1088/0953-8984/26/21/213201

 J. VandeVondele, U. Borstnik, J. Hutter.
 J. Chem. Theory Comput. 8, 3565-3573 (2012).
 Linear Scaling Self-Consistent Field Calculations with Millions of Atoms in the 
 Condensed Phase.
 https://doi.org/10.1021/ct200897x

 J. VandeVondele, J. Hutter.
 J. Chem. Phys. 127, 114105 (2007).
 Gaussian basis sets for accurate calculations on molecular systems in gas and 
 condensed phases.
 https://doi.org/10.1063/1.2770708

 J. VandeVondele, M. Krack, F. Mohamed, M. Parrinello, T. Chassaing, J. Hutter.
 Comput. Phys. Commun. 167, 103-128 (2005).
 QUICKSTEP: Fast and accurate density functional calculations using a mixed 
 Gaussian and plane waves approach.
 https://doi.org/10.1016/j.cpc.2004.12.014

 M. Krack.
 Theor. Chem. Acc. 114, 145-152 (2005).
 Pseudopotentials for H to Kr optimized for gradient-corrected 
 exchange-correlation functionals.
 https://doi.org/10.1007/s00214-005-0655-y

 M. Frigo, S. G. Johnson.
 Proc. IEEE 93, 216-231 (2005).
 The design and implementation of FFTW3.
 https://doi.org/10.1109/JPROC.2004.840301

 A. M. N. Niklasson, C. J. Tymczak, M. Challacombe.
 J. Chem. Phys. 118, 8611-8620 (2003).
 Trace resetting density matrix purification in O(N) self-consistent-field 
 theory.
 https://doi.org/10.1063/1.1559913

 C. Hartwigsen, S. Goedecker, J. Hutter.
 Phys. Rev. B 58, 3641-3662 (1998).
 Relativistic separable dual-space Gaussian pseudopotentials from H to Rn.
 https://doi.org/10.1103/PhysRevB.58.3641

 G. Lippert, J. Hutter, M. Parrinello.
 Mol. Phys. 92, 477-487 (1997).
 A hybrid Gaussian and plane wave density functional scheme.
 https://doi.org/10.1080/002689797170220

 S. Goedecker, M. Teter, J. Hutter.
 Phys. Rev. B 54, 1703-1710 (1996).
 Separable dual-space Gaussian pseudopotentials.
 https://doi.org/10.1103/PhysRevB.54.1703

 J. P. Perdew, K. Burke, M. Ernzerhof.
 Phys. Rev. Lett. 77, 3865-3868 (1996).
 Generalized gradient approximation made simple.
 https://doi.org/10.1103/PhysRevLett.77.3865


 -------------------------------------------------------------------------------
 -                                                                             -
 -                                T I M I N G                                  -
 -                                                                             -
 -------------------------------------------------------------------------------
 SUBROUTINE                       CALLS  ASD         SELF TIME        TOTAL TIME
                                MAXIMUM       AVERAGE  MAXIMUM  AVERAGE  MAXIMUM
 CP2K                                 1  1.0    0.012    0.016  401.992  401.993
 qs_energies                          1  2.0    0.000    0.000  401.839  401.839
 ls_scf                               1  3.0    0.000    0.000  400.652  400.653
 pao_update                           6  4.0    0.006    0.024  374.755  374.755
 pao_calc_energy                    784  5.0    0.003    0.016  333.740  333.742
 dbcsr_multiply_generic           46905  8.4    1.310    1.378  323.118  323.340
 multiply_cannon                  46905  9.4    2.433    2.868  260.652  263.840
 multiply_cannon_loop             46905 10.4    1.750    1.968  250.763  254.041
 ls_scf_init_matrix_S               790  7.0    0.008    0.009  187.214  187.270
 pao_rebuild_S                      784  6.0    0.002    0.003  185.769  185.825
 matrix_sqrt_Newton_Schulz          790  8.0    0.164    0.272  172.748  172.779
 multiply_cannon_multrec         375240 11.4  166.823  168.417  167.604  169.183
 pao_dm_trs4                        784  6.0    0.006    0.007  147.607  147.628
 density_matrix_trs4                797  7.0    0.194    0.326  141.730  141.785
 mp_waitall_1                   3003450 12.6   80.208   85.521   80.208   85.521
 multiply_cannon_metrocomm3      375240 11.4    0.652    0.700   63.458   67.894
 make_m2s                         93810  9.4    0.516    0.668   47.980   48.824
 make_images                      93810 10.4    6.899    7.229   46.697   47.472
 arnoldi_extremal                  1587  8.5    0.012    0.014   44.225   44.253
 arnoldi_normal_ev                 1587  9.5    0.030    0.049   44.209   44.237
 pao_calc_AB                       1039  5.8    0.002    0.002   40.570   40.572
 pao_calc_AB_equi                  1039  6.8    0.039    0.096   40.568   40.571
 pao_calc_grad_lnv_wrt_AB           254  7.0    0.019    0.022   40.169   40.208
 build_subspace                    4370 10.5    0.269    0.293   39.095   39.137
 dbcsr_matrix_vector_mult        134274 11.5    0.574    0.866   37.022   37.304
 dbcsr_matrix_vector_mult_local  134274 12.5   31.599   31.929   31.748   32.078
 ls_scf_main                          6  4.0    0.000    0.001   22.737   22.738
 make_images_data                 93810 11.4    0.825    1.039   20.445   22.306
 ls_scf_dm_to_ks                     13  5.0    0.000    0.000   20.344   20.346
 hybrid_alltoall_any              95386 12.4    0.851    1.834   16.021   19.178
 matrix_qs_to_ls                   1587  7.5    0.016    0.021   16.192   16.265
 mp_sum_l                        191185  9.5    7.362   12.914    7.362   12.914
 qs_ks_update_qs_env                 14  6.0    0.000    0.000   12.249   12.251
 rebuild_ks_matrix                   14  7.0    0.000    0.000   12.239   12.241
 qs_ks_build_kohn_sham_matrix        14  8.0    0.002    0.003   12.239   12.241
 calculate_norms                 699248 11.4   10.882   11.676   10.882   11.676
 make_images_pack                 93810 11.4   10.303   10.557   10.431   10.684
 qs_rho_update_rho_low               14  6.0    0.000    0.000    9.577    9.579
 calculate_rho_elec                  14  7.0    0.005    0.005    9.577    9.579
 sum_up_and_integrate                14  9.0    0.000    0.000    9.282    9.284
 integrate_v_rspace                  14 10.0    0.000    0.001    9.268    9.270
 dbcsr_multiply_generic_mpsum_f   34109  9.5    0.025    0.031    4.316    8.978
 grid_collocate_task_list            14  8.0    8.508    8.630    8.508    8.630
 grid_integrate_task_list            14 11.0    8.127    8.328    8.127    8.328
 -------------------------------------------------------------------------------

 The number of warnings for this run is : 1
 
 -------------------------------------------------------------------------------
  **** **** ******  **  PROGRAM ENDED AT                 2024-09-24 04:36:35.894
 ***** ** ***  *** **   PROGRAM RAN ON                                    moritz
 **    ****   ******    PROGRAM RAN BY                                       ole
 ***** **    ** ** **   PROGRAM PROCESS ID                                168635
  **** **  *******  **  PROGRAM STOPPED IN /home/ole/git/pao_ml_equivar/64H2O_MD
                                           /Frame5000
