 DBCSR| CPU Multiplication driver                                           XSMM (U)
 DBCSR| Multrec recursion limit                                              512 (U)
 DBCSR| Multiplication stack size                                           1000 (D)
 DBCSR| Maximum elements for images                                    UNLIMITED (U)
 DBCSR| Multiplicative factor virtual images                                   1 (U)
 DBCSR| Use multiplication densification                                       T (D)
 DBCSR| Multiplication size stacks                                             3 (U)
 DBCSR| Use memory pool for CPU allocation                                     F (U)
 DBCSR| OMP: Current number of threads                                         1
 DBCSR| OMP: Max number of threads                                             1
 DBCSR| Split modifier for TAS multiplication algorithm                  1.0E+00 (U)


  **** **** ******  **  PROGRAM STARTED AT               2023-02-01 10:47:55.649
 ***** ** ***  *** **   PROGRAM STARTED ON                                moritz
 **    ****   ******    PROGRAM STARTED BY                                   ole
 ***** **    ** ** **   PROGRAM PROCESS ID                                148809
  **** **  *******  **  PROGRAM STARTED IN /home/ole/git/pao_ml_equivar/2H2O_MD/
                                           frame_1750

 CP2K| version string:                 CP2K version 2023.1 (Development Version)
 CP2K| source code revision number:                                  git:03b4147
 CP2K| cp2kflags: omp libint fftw3 libxc quip xsmm spglib libvori libbqb libtorc
 CP2K|            h
 CP2K| is freely available from                            https://www.cp2k.org/
 CP2K| Program compiled at                           Mi 01 Feb 2023 10:36:52 CET
 CP2K| Program compiled on                                                moritz
 CP2K| Program compiled for                                                local
 CP2K| Data directory path                               /home/ole/git/cp2k/data
 CP2K| Input file name                                            2H2O_pao44.inp

 GLOBAL| Force Environment number                                              1
 GLOBAL| Basis set file name                                        BASIS_MOLOPT
 GLOBAL| Potential file name                                      GTH_POTENTIALS
 GLOBAL| MM Potential file name                                     MM_POTENTIAL
 GLOBAL| Coordinate file name                                         coords.xyz
 GLOBAL| Method name                                                        CP2K
 GLOBAL| Project name                                                 2H2O_pao44
 GLOBAL| Run type                                                         ENERGY
 GLOBAL| FFT library                                                       FFTW3
 GLOBAL| Diagonalization library                                       ScaLAPACK
 GLOBAL| DGEMM library                                                      BLAS
 GLOBAL| Orthonormality check for eigenvectors                          DISABLED
 GLOBAL| Matrix multiplication library                                 ScaLAPACK
 GLOBAL| All-to-all communication in single precision                          F
 GLOBAL| FFTs using library dependent lengths                                  F
 GLOBAL| Grid backend                                                       AUTO
 GLOBAL| Global print level                                                  LOW
 GLOBAL| MPI I/O enabled                                                       T
 GLOBAL| Total number of message passing processes                             1
 GLOBAL| Number of threads for this process                                    1
 GLOBAL| This output is from process                                           0
 GLOBAL| Stack size for threads created by OpenMP (OMP_STACKSIZE)        default
 GLOBAL| CPU model name           AMD Ryzen Threadripper 3970X 32-Core Processor
 GLOBAL| CPUID                                                              1002
 GLOBAL| Compiled for CPUID                                                    0

 *** HINT in environment.F:884 :: The compiler target flags (generic) used ***
 *** to build this binary cannot exploit all extensions of this CPU model  ***
 *** (x86_avx2). Consider compiler target flags as part of FCFLAGS and     ***
 *** CFLAGS (ARCH file).                                                   ***


 MEMORY| system memory details [Kb]
 MEMORY|                        rank 0           min           max       average
 MEMORY| MemTotal            131773860     131773860     131773860     131773860
 MEMORY| MemFree             110070036     110070036     110070036     110070036
 MEMORY| Buffers                302624        302624        302624        302624
 MEMORY| Cached                7056636       7056636       7056636       7056636
 MEMORY| Slab                   780228        780228        780228        780228
 MEMORY| SReclaimable           332704        332704        332704        332704
 MEMORY| MemLikelyFree       117762000     117762000     117762000     117762000


 GENERATE|  Preliminary Number of Bonds generated:                             0
 GENERATE|  Achieved consistency in connectivity generation.

 *******************************************************************************
 *******************************************************************************
 **                                                                           **
 **     #####                         ##              ##                      **
 **    ##   ##            ##          ##              ##                      **
 **   ##     ##                       ##            ######                    **
 **   ##     ##  ##   ##  ##   #####  ##  ##   ####   ##    #####    #####    **
 **   ##     ##  ##   ##  ##  ##      ## ##   ##      ##   ##   ##  ##   ##   **
 **   ##  ## ##  ##   ##  ##  ##      ####     ###    ##   ######   ######    **
 **    ##  ###   ##   ##  ##  ##      ## ##      ##   ##   ##       ##        **
 **     #######   #####   ##   #####  ##  ##  ####    ##    #####   ##        **
 **           ##                                                    ##        **
 **                                                                           **
 **                                                ... make the atoms dance   **
 **                                                                           **
 **            Copyright (C) by CP2K developers group (2000-2023)             **
 **                      J. Chem. Phys. 152, 194103 (2020)                    **
 **                                                                           **
 *******************************************************************************


 TOTAL NUMBERS AND MAXIMUM NUMBERS

  Total number of            - Atomic kinds:                                   2
                             - Atoms:                                          6
                             - Shell sets:                                     6
                             - Shells:                                        22
                             - Primitive Cartesian functions:                 42
                             - Cartesian basis functions:                     48
                             - Spherical basis functions:                     46

  Maximum angular momentum of- Orbital basis functions:                        2
                             - Local part of the GTH pseudopotential:          2
                             - Non-local part of the GTH pseudopotential:      0

 ------------------------------ Linear scaling SCF -----------------------------
 eps_scf:                                                              0.100E-07
 eps_filter:                                                           0.100E-07
 mixing_fraction:                                                      0.450E+00
 max_scf:                                                                     25
 fixed chemical potential (mu)                                                 F
 has unit metric:                                                              F
 Computing inv(S):                                                             T
 Computing sqrt(S):                                                            T
 Computing S preconditioner                                                    F
 S sqrt method:                                                     NEWTONSCHULZ
 S sqrt order:                                                                 3
 Extrapolation order:                                                          1
 Use single precision matrices                                                 F
 S preconditioner type                                                      NONE
 Polarized Atomic Orbitals (PAO)                                               T
 Purification method                                   Trace resetting 4th order
 Cluster type                                                             ATOMIC
 Computing Chebyshev                                                       FALSE
 Using PAO                                                                     T
 -------------------------------------------------------------------------------

 
 PAO|                                  EPS_PAO                           0.5E-06
 PAO|                                  MIXING                            0.5E+00
 PAO|                                  MAX_PAO                              1500
 PAO|                                  MAX_CYCLES                           1000
 PAO|                                  PARAMETERIZATION              EQUIVARIANT
 PAO|                                  PRECONDITION                            F
 PAO|                                  REGULARIZATION                    0.0E+00
 PAO|                                  EPS_PGF                           0.1E-09
 PAO|                                  PENALTY_DISTANCE                  0.1E+00
 PAO|                                  PENALTY_STRENGTH                  0.5E-02
 PAO|                                  LINPOT_PRECONDITION_DELTA         0.0E+00
 PAO|                                  LINPOT_INITGUESS_DELT             0.0E+00
 PAO|                                  LINPOT_REGULARIZATION_DELTA       0.0E+00
 PAO|                                  LINPOT_REGULARIZATION_STRENGTH    0.0E+00
 PAO|                                  OPTIMIZER                              CG
 PAO|                                  CG_INIT_STEPS                           2
 PAO|                                  CG_RESET_LIMIT                    0.1E+00
 PAO|                                  CHECK_UNITARY_TOL                -0.1E+01
 PAO|                                  CHECK_GRADIENT_TOL               -0.1E+01
 PAO|                                  NUM_GRADIENT_ORDER                      2
 PAO|                                  NUM_GRADIENT_EPS                  0.1E-07
 PAO|                                  PRINT%RESTART%WRITE_CYCLES            100
 PAO|                                  RESTART_FILE 
 PAO|                                  PREOPT_DM_FILE 2H2O_ref_LS_DM_SPIN_1_RESTART.dm
 PAO|                                  MACHINE_LEARNING%METHOD       GAUSSIAN_PR
 PAO|                                  MACHINE_LEARNING%PRIOR               ZERO
 PAO|                                  MACHINE_LEARNING%DESCRIPTOR     POTENTIAL
 PAO|                                  MACHINE_LEARNING%TOLERANCE        0.1E-01
 PAO|                                  MACHINE_LEARNING%GP_NOISE_VAR     0.1E+00
 PAO|                                  MACHINE_LEARNING%GP_SCALE         0.5E-01
 

 Calculating atomic Fock matrix for atomic kind: O

 Electronic structure
    Total number of core electrons                                          2.00
    Total number of valence electrons                                       6.00
    Total number of electrons                                               8.00
    Multiplicity                                                   not specified
    S   [  2.00] 2.00
    P      4.00


 *******************************************************************************
                  Iteration          Convergence                     Energy [au]
 *******************************************************************************
                          1        0.708315                     -15.576645311500
                          2        0.608879                     -15.587933561584
                          3        0.102828E-01                 -15.656849565404
                          4        0.113889E-02                 -15.656866888140
                          5        0.434197E-03                 -15.656867072159
                          6        0.263771E-03                 -15.656867091904
                          7        0.478536E-06                 -15.656867103452

 Energy components [Hartree]           Total Energy ::          -15.656867103452
                                        Band Energy ::           -3.000198112285
                                     Kinetic Energy ::           11.759971203220
                                   Potential Energy ::          -27.416838306672
                                      Virial (-V/T) ::            2.331369510426
                                        Core Energy ::          -26.140716385623
                                          XC Energy ::           -3.154051012914
                                     Coulomb Energy ::           13.637900295084
                       Total Pseudopotential Energy ::          -37.935781716540
                       Local Pseudopotential Energy ::          -39.218907440693
                    Nonlocal Pseudopotential Energy ::            1.283125724153
                                        Confinement ::            0.350941276976

 Orbital energies  State     L     Occupation   Energy[a.u.]          Energy[eV]

                       1     0          2.000      -0.864471          -23.523463

                       1     1          4.000      -0.317814           -8.648154


 Total Electron Density at R=0:                                         0.000068

 Calculating atomic Fock matrix for atomic kind: H

 Electronic structure
    Total number of core electrons                                          0.00
    Total number of valence electrons                                       1.00
    Total number of electrons                                               1.00
    Multiplicity                                                   not specified
    S      1.00


 *******************************************************************************
                  Iteration          Convergence                     Energy [au]
 *******************************************************************************
                          1        0.437545E-02                  -0.424159432110
                          2        0.531356E-03                  -0.424178438213
                          3        0.259176E-06                  -0.424178722480

 Energy components [Hartree]           Total Energy ::           -0.424178722480
                                        Band Energy ::           -0.199015229016
                                     Kinetic Energy ::            0.464007633961
                                   Potential Energy ::           -0.888186356441
                                      Virial (-V/T) ::            1.914163240935
                                        Core Energy ::           -0.479160803564
                                          XC Energy ::           -0.244352904054
                                     Coulomb Energy ::            0.299334985138
                       Total Pseudopotential Energy ::           -0.962295316385
                       Local Pseudopotential Energy ::           -0.962295316385
                    Nonlocal Pseudopotential Energy ::            0.000000000000
                                        Confinement ::            0.191268788606

 Orbital energies  State     L     Occupation   Energy[a.u.]          Energy[eV]

                       1     0          1.000      -0.199015           -5.415480


 Total Electron Density at R=0:                                         0.242907
 PAO| Made initial guess for matrix_X with norm:   4.8989794855663558     

     Lanczos converged:  T threshold:   0.100E-02
     Est. extremal eigenvalues:    0.325E+01   0.114E+00
     Est. condition number :    0.285E+02

 Order=           3
     NS sqrt iter    1 1.00000000   0.791E+00       0.001       61.086
     NS sqrt iter    2 1.00000000   0.419E+00       0.001      108.681
     NS sqrt iter    3 1.00000000   0.157E+00       0.001      110.592
     NS sqrt iter    4 1.00000000   0.172E-01       0.001      110.592
     NS sqrt iter    5 1.00000000   0.366E-04       0.001       84.864
     Symmetrizing Results
     Final NS sqrt iter    5 1.00000000   0.227E-08

 PAO| Read restart DM 2H2O_ref_LS_DM_SPIN_1_RESTART.dm with checksum:    53.676247251496363     
 PAO| Quickstep energy from restart density:  -34.446459267527644     
 PAO| ======================= Iteration:         1 =============================

     Lanczos converged:  T threshold:   0.100E-02
     Est. extremal eigenvalues:    0.325E+01   0.114E+00
     Est. condition number :    0.285E+02

 Order=           3
     NS sqrt iter    1 1.00000000   0.791E+00       0.001       58.248
     NS sqrt iter    2 1.00000000   0.419E+00       0.001      102.128
     NS sqrt iter    3 1.00000000   0.157E+00       0.001      103.904
     NS sqrt iter    4 1.00000000   0.172E-01       0.001      101.760
     NS sqrt iter    5 1.00000000   0.366E-04       0.001       82.129
     Symmetrizing Results
     Final NS sqrt iter    5 1.00000000   0.227E-08

     Est. extremal eigenvalues     -0.91207     1.83277  converged:  T
     TRS4 it   1 1.00000000   0.890E+00       0.000       16.128   0.100E-07
     TRS4 it   2 1.00000000   0.689E+00       0.001       32.256   0.100E-07
     TRS4 it   3 1.00000000   0.501E+00       0.001       32.256   0.100E-07
     TRS4 it   4 1.00000000   0.319E+00       0.001       32.256   0.100E-07
     TRS4 it   5 1.00000000   0.161E+00       0.001       32.256   0.100E-07
     TRS4 it   6 1.00000000   0.505E-01       0.001       32.256   0.100E-07
     TRS4 it   7 1.00000000   0.644E-02       0.001       32.256   0.100E-07
     TRS4 it   8 1.00000000   0.140E-03       0.001       32.256   0.100E-07
     TRS4 it   9 1.00000000   0.819E-07       0.001       32.256   0.100E-07
     TRS4 it  10 1.00000000   0.304E-13       0.001       32.256   0.100E-07
     Final TRS4 iteration   10 1.00000000   0.304E-13
     Chemical potential (mu):      -0.06621
 
 PAO| energy:  -7.5441066424142962      penalty:   4.2524533172070178E-033
 PAO|CG| warming up with steepest descent
 PAO|CG| beta:    0.0000000000000000     
 PAO| norm of gradient:  0.78214353193129549     
 PAO|LS| adapt:  T F F
 PAO|LS| adapt: scan_steps:    0.0000000000000000        0.0000000000000000        0.0000000000000000     
 PAO|LS| adapt: energies:   -7.5441066424142962        0.0000000000000000        0.0000000000000000     
 PAO| ======================= Iteration:         2 =============================

     Lanczos converged:  T threshold:   0.100E-02
     Est. extremal eigenvalues:    0.318E+01   0.127E+00
     Est. condition number :    0.250E+02

 Order=           3
     NS sqrt iter    1 1.00000000   0.778E+00       0.001       60.630
     NS sqrt iter    2 1.00000000   0.404E+00       0.001      106.022
     NS sqrt iter    3 1.00000000   0.141E+00       0.001      104.774
     NS sqrt iter    4 1.00000000   0.118E-01       0.001      105.668
     NS sqrt iter    5 1.00000000   0.120E-04       0.001       81.346
     Symmetrizing Results
     Final NS sqrt iter    5 1.00000000   0.248E-09

     Est. extremal eigenvalues     -0.91581     1.78609  converged:  T
     TRS4 it   1 1.00000000   0.888E+00       0.000       16.128   0.100E-07
     TRS4 it   2 1.00000000   0.672E+00       0.001       32.256   0.100E-07
     TRS4 it   3 1.00000000   0.485E+00       0.001       32.256   0.100E-07
     TRS4 it   4 1.00000000   0.299E+00       0.001       32.256   0.100E-07
     TRS4 it   5 1.00000000   0.142E+00       0.001       32.256   0.100E-07
     TRS4 it   6 1.00000000   0.390E-01       0.001       32.256   0.100E-07
     TRS4 it   7 1.00000000   0.383E-02       0.001       32.256   0.100E-07
     TRS4 it   8 1.00000000   0.497E-04       0.001       32.256   0.100E-07
     TRS4 it   9 1.00000000   0.104E-07       0.001       32.256   0.100E-07
     Final TRS4 iteration    9 1.00000000   0.104E-07
     Chemical potential (mu):      -0.05430
 
 PAO| energy:  -7.5992676002404096      penalty:   2.2372232442680152E-008
 PAO|LS| adapt:  T T F
 PAO|LS| adapt: scan_steps:    0.0000000000000000       0.10000000000000001        0.0000000000000000     
 PAO|LS| adapt: energies:   -7.5441066424142962       -7.5992676002404096        0.0000000000000000     
 PAO| ======================= Iteration:         3 =============================

     Lanczos converged:  T threshold:   0.100E-02
     Est. extremal eigenvalues:    0.310E+01   0.139E+00
     Est. condition number :    0.223E+02

 Order=           3
     NS sqrt iter    1 1.00000000   0.763E+00       0.001       60.708
     NS sqrt iter    2 1.00000000   0.389E+00       0.001      104.874
     NS sqrt iter    3 1.00000000   0.125E+00       0.001      104.359
     NS sqrt iter    4 1.00000000   0.816E-02       0.001      107.443
     NS sqrt iter    5 1.00000000   0.422E-05       0.001       82.944
     Symmetrizing Results
     Final NS sqrt iter    5 1.00000000   0.318E-10

     Est. extremal eigenvalues     -0.91923     1.74980  converged:  T
     TRS4 it   1 1.00000000   0.888E+00       0.000       16.128   0.100E-07
     TRS4 it   2 1.00000000   0.657E+00       0.001       32.256   0.100E-07
     TRS4 it   3 1.00000000   0.470E+00       0.001       32.256   0.100E-07
     TRS4 it   4 1.00000000   0.279E+00       0.001       32.256   0.100E-07
     TRS4 it   5 1.00000000   0.123E+00       0.001       32.256   0.100E-07
     TRS4 it   6 1.00000000   0.292E-01       0.001       32.256   0.100E-07
     TRS4 it   7 1.00000000   0.213E-02       0.001       32.256   0.100E-07
     TRS4 it   8 1.00000000   0.152E-04       0.001       32.256   0.100E-07
     TRS4 it   9 1.00000000   0.964E-09       0.001       32.256   0.100E-07
     Final TRS4 iteration    9 1.00000000   0.964E-09
     Chemical potential (mu):      -0.04123
 
 PAO| energy:  -7.6417753749787902      penalty:   3.5795573072151418E-007
 PAO|LS| adapt:  T T F
 PAO|LS| adapt: scan_steps:    0.0000000000000000       0.20000000000000001        0.0000000000000000     
 PAO|LS| adapt: energies:   -7.5441066424142962       -7.6417753749787902        0.0000000000000000     
 PAO| ======================= Iteration:         4 =============================

     Lanczos converged:  T threshold:   0.100E-02
     Est. extremal eigenvalues:    0.293E+01   0.157E+00
     Est. condition number :    0.187E+02

 Order=           3
     NS sqrt iter    1 1.00000000   0.731E+00       0.001       63.030
     NS sqrt iter    2 1.00000000   0.357E+00       0.001      106.893
     NS sqrt iter    3 1.00000000   0.971E-01       0.001      105.549
     NS sqrt iter    4 1.00000000   0.406E-02       0.001      108.366
     NS sqrt iter    5 1.00000000   0.648E-06       0.001       81.435
     Symmetrizing Results
     Final NS sqrt iter    5 1.00000000   0.584E-09

     Est. extremal eigenvalues     -0.92433     1.69931  converged:  T
     TRS4 it   1 1.00000000   0.888E+00       0.000       16.128   0.100E-07
     TRS4 it   2 1.00000000   0.633E+00       0.001       32.256   0.100E-07
     TRS4 it   3 1.00000000   0.442E+00       0.001       32.256   0.100E-07
     TRS4 it   4 1.00000000   0.242E+00       0.001       32.256   0.100E-07
     TRS4 it   5 1.00000000   0.908E-01       0.001       32.256   0.100E-07
     TRS4 it   6 1.00000000   0.153E-01       0.001       32.256   0.100E-07
     TRS4 it   7 1.00000000   0.550E-03       0.001       32.256   0.100E-07
     TRS4 it   8 1.00000000   0.962E-06       0.001       32.256   0.100E-07
     TRS4 it   9 1.00000000   0.380E-11       0.001       32.256   0.100E-07
     Final TRS4 iteration    9 1.00000000   0.380E-11
     Chemical potential (mu):      -0.01267
 
 PAO| energy:  -7.6873756662830361      penalty:   5.7272917846532734E-006
 PAO|LS| Need extra step
 PAO|LS| adapt:  T T F
 PAO|LS| adapt: scan_steps:    0.0000000000000000       0.40000000000000002        0.0000000000000000     
 PAO|LS| adapt: energies:   -7.5441066424142962       -7.6873756662830361        0.0000000000000000     
 PAO| ======================= Iteration:         5 =============================

     Lanczos converged:  T threshold:   0.100E-02
     Est. extremal eigenvalues:    0.260E+01   0.184E+00
     Est. condition number :    0.141E+02

 Order=           3
     NS sqrt iter    1 1.00000000   0.673E+00       0.001       62.446
     NS sqrt iter    2 1.00000000   0.298E+00       0.001      106.462
     NS sqrt iter    3 1.00000000   0.599E-01       0.001      108.241
     NS sqrt iter    4 1.00000000   0.116E-02       0.001      106.027
     NS sqrt iter    5 1.00000000   0.184E-07       0.001       46.896
     Symmetrizing Results
     Final NS sqrt iter    5 1.00000000   0.351E-08

     Est. extremal eigenvalues     -0.92450     1.64557  converged:  T
     TRS4 it   1 1.00000000   0.889E+00       0.000       16.128   0.100E-07
     TRS4 it   2 1.00000000   0.601E+00       0.001       32.256   0.100E-07
     TRS4 it   3 1.00000000   0.396E+00       0.001       32.256   0.100E-07
     TRS4 it   4 1.00000000   0.186E+00       0.001       32.256   0.100E-07
     TRS4 it   5 1.00000000   0.501E-01       0.001       32.256   0.100E-07
     TRS4 it   6 1.00000000   0.424E-02       0.001       32.256   0.100E-07
     TRS4 it   7 1.00000000   0.370E-04       0.001       32.256   0.100E-07
     TRS4 it   8 1.00000000   0.396E-08       0.001       32.256   0.100E-07
     Final TRS4 iteration    8 1.00000000   0.396E-08
     Chemical potential (mu):       0.03174
 
 PAO| energy:  -7.6279201018921832      penalty:   9.1636669299324054E-005
 PAO|LS| Need extra step
 PAO|LS| adapt:  T T T
 PAO|LS| adapt: scan_steps:    0.0000000000000000       0.40000000000000002       0.80000000000000004     
 PAO|LS| adapt: energies:   -7.5441066424142962       -7.6873756662830361       -7.6279201018921832     
 PAO|LS| adapt: suggested step_size:   0.48268701907097933     
 PAO|LS| adapt: predicted energy  -7.6917070944844443     
 PAO| ======================= Iteration:         6 =============================

     Lanczos converged:  T threshold:   0.100E-02
     Est. extremal eigenvalues:    0.286E+01   0.163E+00
     Est. condition number :    0.175E+02

 Order=           3
     NS sqrt iter    1 1.00000000   0.718E+00       0.001       60.142
     NS sqrt iter    2 1.00000000   0.344E+00       0.001      107.001
     NS sqrt iter    3 1.00000000   0.875E-01       0.001      108.527
     NS sqrt iter    4 1.00000000   0.309E-02       0.001      106.991
     NS sqrt iter    5 1.00000000   0.310E-06       0.001       77.732
     Symmetrizing Results
     Final NS sqrt iter    5 1.00000000   0.923E-09

     Est. extremal eigenvalues     -0.92555     1.68436  converged:  T
     TRS4 it   1 1.00000000   0.888E+00       0.000       16.128   0.100E-07
     TRS4 it   2 1.00000000   0.625E+00       0.001       32.256   0.100E-07
     TRS4 it   3 1.00000000   0.431E+00       0.001       32.256   0.100E-07
     TRS4 it   4 1.00000000   0.229E+00       0.001       32.256   0.100E-07
     TRS4 it   5 1.00000000   0.799E-01       0.001       32.256   0.100E-07
     TRS4 it   6 1.00000000   0.116E-01       0.001       32.256   0.100E-07
     TRS4 it   7 1.00000000   0.302E-03       0.001       32.256   0.100E-07
     TRS4 it   8 1.00000000   0.277E-06       0.001       32.256   0.100E-07
     TRS4 it   9 1.00000000   0.307E-12       0.001       32.256   0.100E-07
     Final TRS4 iteration    9 1.00000000   0.307E-12
     Chemical potential (mu):      -0.00047
 
 PAO| energy:  -7.6910034517052637      penalty:   1.2144281436269452E-005
 PAO|CG| warming up with steepest descent
 PAO|CG| beta:    0.0000000000000000     
 PAO| norm of gradient:  0.40896345642020288     
 PAO| energy improvement: -0.14689680929096749     
 PAO| step      6                   -7.691003452  0.256E-01  0.483E+00     0.090
 PAO|LS| adapt:  T F F
 PAO|LS| adapt: scan_steps:    0.0000000000000000        0.0000000000000000        0.0000000000000000     
 PAO|LS| adapt: energies:   -7.6910034517052637        0.0000000000000000        0.0000000000000000     
 PAO| ======================= Iteration:         7 =============================

     Lanczos converged:  T threshold:   0.100E-02
     Est. extremal eigenvalues:    0.277E+01   0.177E+00
     Est. condition number :    0.157E+02

 Order=           3
     NS sqrt iter    1 1.00000000   0.701E+00       0.001       62.420
     NS sqrt iter    2 1.00000000   0.323E+00       0.001      105.195
     NS sqrt iter    3 1.00000000   0.729E-01       0.001      107.393
     NS sqrt iter    4 1.00000000   0.188E-02       0.001      109.287
     NS sqrt iter    5 1.00000000   0.756E-07       0.001       70.720
     Symmetrizing Results
     Final NS sqrt iter    5 1.00000000   0.779E-09

     Est. extremal eigenvalues     -0.92757     1.68580  converged:  T
     TRS4 it   1 1.00000000   0.892E+00       0.000       16.128   0.100E-07
     TRS4 it   2 1.00000000   0.628E+00       0.001       32.256   0.100E-07
     TRS4 it   3 1.00000000   0.434E+00       0.001       32.256   0.100E-07
     TRS4 it   4 1.00000000   0.232E+00       0.001       32.256   0.100E-07
     TRS4 it   5 1.00000000   0.821E-01       0.001       32.256   0.100E-07
     TRS4 it   6 1.00000000   0.121E-01       0.001       32.256   0.100E-07
     TRS4 it   7 1.00000000   0.316E-03       0.001       32.256   0.100E-07
     TRS4 it   8 1.00000000   0.288E-06       0.001       32.256   0.100E-07
     TRS4 it   9 1.00000000   0.309E-12       0.001       32.256   0.100E-07
     Final TRS4 iteration    9 1.00000000   0.309E-12
     Chemical potential (mu):       0.00018
 
 PAO| energy:  -7.6887670084152946      penalty:   1.7870447473797887E-005
 PAO|LS| adapt:  T F T
 PAO|LS| adapt: scan_steps:    0.0000000000000000        0.0000000000000000       0.48268701907097933     
 PAO|LS| adapt: energies:   -7.6910034517052637        0.0000000000000000       -7.6887670084152946     
 PAO| ======================= Iteration:         8 =============================

     Lanczos converged:  T threshold:   0.100E-02
     Est. extremal eigenvalues:    0.281E+01   0.170E+00
     Est. condition number :    0.166E+02

 Order=           3
     NS sqrt iter    1 1.00000000   0.709E+00       0.001       62.894
     NS sqrt iter    2 1.00000000   0.334E+00       0.001      105.370
     NS sqrt iter    3 1.00000000   0.801E-01       0.001      106.385
     NS sqrt iter    4 1.00000000   0.243E-02       0.001      106.254
     NS sqrt iter    5 1.00000000   0.157E-06       0.001       76.288
     Symmetrizing Results
     Final NS sqrt iter    5 1.00000000   0.916E-09

     Est. extremal eigenvalues     -0.92772     1.68482  converged:  T
     TRS4 it   1 1.00000000   0.889E+00       0.000       16.128   0.100E-07
     TRS4 it   2 1.00000000   0.626E+00       0.001       32.256   0.100E-07
     TRS4 it   3 1.00000000   0.432E+00       0.001       32.256   0.100E-07
     TRS4 it   4 1.00000000   0.230E+00       0.001       32.256   0.100E-07
     TRS4 it   5 1.00000000   0.810E-01       0.001       32.256   0.100E-07
     TRS4 it   6 1.00000000   0.120E-01       0.001       32.256   0.100E-07
     TRS4 it   7 1.00000000   0.321E-03       0.001       32.256   0.100E-07
     TRS4 it   8 1.00000000   0.305E-06       0.001       32.256   0.100E-07
     TRS4 it   9 1.00000000   0.363E-12       0.001       32.256   0.100E-07
     Final TRS4 iteration    9 1.00000000   0.363E-12
     Chemical potential (mu):      -0.00069
 
 PAO| energy:  -7.7103904082168393      penalty:   1.3094785955675640E-005
 PAO|LS| adapt:  T T T
 PAO|LS| adapt: scan_steps:    0.0000000000000000       0.24134350953548966       0.48268701907097933     
 PAO|LS| adapt: energies:   -7.6910034517052637       -7.7103904082168393       -7.6887670084152946     
 PAO|LS| adapt: suggested step_size:   0.23476284161398772     
 PAO|LS| adapt: predicted energy  -7.7104056533861050     
 PAO| ======================= Iteration:         9 =============================

     Lanczos converged:  T threshold:   0.100E-02
     Est. extremal eigenvalues:    0.281E+01   0.170E+00
     Est. condition number :    0.166E+02

 Order=           3
     NS sqrt iter    1 1.00000000   0.710E+00       0.001       63.195
     NS sqrt iter    2 1.00000000   0.334E+00       0.001      104.215
     NS sqrt iter    3 1.00000000   0.803E-01       0.001      106.545
     NS sqrt iter    4 1.00000000   0.245E-02       0.001      105.039
     NS sqrt iter    5 1.00000000   0.160E-06       0.001       74.272
     Symmetrizing Results
     Final NS sqrt iter    5 1.00000000   0.935E-09

     Est. extremal eigenvalues     -0.92769     1.68480  converged:  T
     TRS4 it   1 1.00000000   0.889E+00       0.000       16.128   0.100E-07
     TRS4 it   2 1.00000000   0.626E+00       0.001       32.256   0.100E-07
     TRS4 it   3 1.00000000   0.432E+00       0.001       32.256   0.100E-07
     TRS4 it   4 1.00000000   0.230E+00       0.001       32.256   0.100E-07
     TRS4 it   5 1.00000000   0.810E-01       0.001       32.256   0.100E-07
     TRS4 it   6 1.00000000   0.120E-01       0.001       32.256   0.100E-07
     TRS4 it   7 1.00000000   0.320E-03       0.001       32.256   0.100E-07
     TRS4 it   8 1.00000000   0.305E-06       0.001       32.256   0.100E-07
     TRS4 it   9 1.00000000   0.363E-12       0.001       32.256   0.100E-07
     Final TRS4 iteration    9 1.00000000   0.363E-12
     Chemical potential (mu):      -0.00069
 
 PAO| energy:  -7.7104151626286654      penalty:   1.3031276613781727E-005
 PAO|CG| trace_G_new    3.7641752121878147E-002
 PAO|CG| trace_G_prev   0.16725110868715917     
 PAO|CG| trace_G_mix   -1.4305378083446574E-003
 PAO|CG| trace_D   0.16725110868715917     
 PAO|CG| trace_D_Gnew   1.4305378083446574E-003
 PAO|CG| beta:   0.23361453467735732     
 PAO| norm of gradient:  0.19401482448998103     
 PAO| energy improvement:  -1.9411710923401770E-002
 PAO| step      9                   -7.710415163  0.121E-01  0.235E+00     0.055
 PAO|LS| adapt:  T F F
 PAO|LS| adapt: scan_steps:    0.0000000000000000        0.0000000000000000        0.0000000000000000     
 PAO|LS| adapt: energies:   -7.7104151626286654        0.0000000000000000        0.0000000000000000     
 PAO| ======================= Iteration:        10 =============================

     Lanczos converged:  T threshold:   0.100E-02
     Est. extremal eigenvalues:    0.278E+01   0.175E+00
     Est. condition number :    0.158E+02

 Order=           3
     NS sqrt iter    1 1.00000000   0.702E+00       0.001       62.396
     NS sqrt iter    2 1.00000000   0.325E+00       0.001      107.523
     NS sqrt iter    3 1.00000000   0.748E-01       0.001      102.503
     NS sqrt iter    4 1.00000000   0.199E-02       0.001      105.052
     NS sqrt iter    5 1.00000000   0.877E-07       0.001       71.109
     Symmetrizing Results
     Final NS sqrt iter    5 1.00000000   0.739E-09

     Est. extremal eigenvalues     -0.92866     1.68463  converged:  T
     TRS4 it   1 1.00000000   0.889E+00       0.000       16.128   0.100E-07
     TRS4 it   2 1.00000000   0.626E+00       0.001       32.256   0.100E-07
     TRS4 it   3 1.00000000   0.431E+00       0.001       32.256   0.100E-07
     TRS4 it   4 1.00000000   0.228E+00       0.001       32.256   0.100E-07
     TRS4 it   5 1.00000000   0.792E-01       0.001       32.256   0.100E-07
     TRS4 it   6 1.00000000   0.114E-01       0.001       32.256   0.100E-07
     TRS4 it   7 1.00000000   0.284E-03       0.001       32.256   0.100E-07
     TRS4 it   8 1.00000000   0.232E-06       0.001       32.256   0.100E-07
     TRS4 it   9 1.00000000   0.204E-12       0.001       32.256   0.100E-07
     Final TRS4 iteration    9 1.00000000   0.204E-12
     Chemical potential (mu):       0.00259
 
 PAO| energy:  -7.7154758893074691      penalty:   1.3606428118746791E-005
 PAO|LS| adapt:  T T F
 PAO|LS| adapt: scan_steps:    0.0000000000000000       0.23476284161398772        0.0000000000000000     
 PAO|LS| adapt: energies:   -7.7104151626286654       -7.7154758893074691        0.0000000000000000     
 PAO| ======================= Iteration:        11 =============================

     Lanczos converged:  T threshold:   0.100E-02
     Est. extremal eigenvalues:    0.274E+01   0.181E+00
     Est. condition number :    0.151E+02

 Order=           3
     NS sqrt iter    1 1.00000000   0.693E+00       0.001       62.563
     NS sqrt iter    2 1.00000000   0.316E+00       0.001      103.970
     NS sqrt iter    3 1.00000000   0.694E-01       0.001      105.018
     NS sqrt iter    4 1.00000000   0.161E-02       0.001      105.533
     NS sqrt iter    5 1.00000000   0.467E-07       0.001       63.168
     Symmetrizing Results
     Final NS sqrt iter    5 1.00000000   0.565E-09

     Est. extremal eigenvalues     -0.92848     1.68532  converged:  T
     TRS4 it   1 1.00000000   0.889E+00       0.000       16.128   0.100E-07
     TRS4 it   2 1.00000000   0.626E+00       0.001       32.256   0.100E-07
     TRS4 it   3 1.00000000   0.430E+00       0.001       32.256   0.100E-07
     TRS4 it   4 1.00000000   0.226E+00       0.001       32.256   0.100E-07
     TRS4 it   5 1.00000000   0.774E-01       0.001       32.256   0.100E-07
     TRS4 it   6 1.00000000   0.108E-01       0.001       32.256   0.100E-07
     TRS4 it   7 1.00000000   0.251E-03       0.001       32.256   0.100E-07
     TRS4 it   8 1.00000000   0.175E-06       0.001       32.256   0.100E-07
     TRS4 it   9 1.00000000   0.111E-12       0.001       32.256   0.100E-07
     Final TRS4 iteration    9 1.00000000   0.111E-12
     Chemical potential (mu):       0.00592
 
 PAO| energy:  -7.7134170008509528      penalty:   1.4903429594592263E-005
 PAO|LS| adapt:  T T T
 PAO|LS| adapt: scan_steps:    0.0000000000000000       0.23476284161398772       0.46952568322797544     
 PAO|LS| adapt: energies:   -7.7104151626286654       -7.7154758893074691       -7.7134170008509528     
 PAO|LS| adapt: suggested step_size:   0.28425428586591112     
 PAO|LS| adapt: predicted energy  -7.7156340971695077     
 PAO| ======================= Iteration:        12 =============================

     Lanczos converged:  T threshold:   0.100E-02
     Est. extremal eigenvalues:    0.277E+01   0.177E+00
     Est. condition number :    0.157E+02

 Order=           3
     NS sqrt iter    1 1.00000000   0.700E+00       0.001       61.182
     NS sqrt iter    2 1.00000000   0.323E+00       0.001      103.392
     NS sqrt iter    3 1.00000000   0.736E-01       0.001      104.738
     NS sqrt iter    4 1.00000000   0.191E-02       0.001      104.901
     NS sqrt iter    5 1.00000000   0.770E-07       0.001       69.759
     Symmetrizing Results
     Final NS sqrt iter    5 1.00000000   0.745E-09

     Est. extremal eigenvalues     -0.92871     1.68471  converged:  T
     TRS4 it   1 1.00000000   0.889E+00       0.000       16.128   0.100E-07
     TRS4 it   2 1.00000000   0.626E+00       0.001       32.256   0.100E-07
     TRS4 it   3 1.00000000   0.431E+00       0.001       32.256   0.100E-07
     TRS4 it   4 1.00000000   0.227E+00       0.001       32.256   0.100E-07
     TRS4 it   5 1.00000000   0.788E-01       0.001       32.256   0.100E-07
     TRS4 it   6 1.00000000   0.112E-01       0.001       32.256   0.100E-07
     TRS4 it   7 1.00000000   0.277E-03       0.001       32.256   0.100E-07
     TRS4 it   8 1.00000000   0.219E-06       0.001       32.256   0.100E-07
     TRS4 it   9 1.00000000   0.178E-12       0.001       32.256   0.100E-07
     Final TRS4 iteration    9 1.00000000   0.178E-12
     Chemical potential (mu):       0.00330
 
 PAO| energy:  -7.7156199168037416      penalty:   1.3812887270841772E-005
 PAO|CG| trace_G_new    1.3025976329089728E-002
 PAO|CG| trace_G_prev    3.7641752121878147E-002
 PAO|CG| trace_G_mix   -5.3930405466856687E-004
 PAO|CG| trace_D    4.6101218103836328E-002
 PAO|CG| trace_D_Gnew   2.6071211672900989E-004
 PAO|CG| beta:   0.36037855888950188     
 PAO| norm of gradient:  0.11413139940038293     
 PAO| energy improvement:  -5.2047541750761539E-003
 PAO| step     12                   -7.715619917  0.713E-02  0.284E+00     0.056
 PAO|LS| adapt:  T F F
 PAO|LS| adapt: scan_steps:    0.0000000000000000        0.0000000000000000        0.0000000000000000     
 PAO|LS| adapt: energies:   -7.7156199168037416        0.0000000000000000        0.0000000000000000     
 PAO| ======================= Iteration:        13 =============================

     Lanczos converged:  T threshold:   0.100E-02
     Est. extremal eigenvalues:    0.273E+01   0.181E+00
     Est. condition number :    0.151E+02

 Order=           3
     NS sqrt iter    1 1.00000000   0.693E+00       0.001       62.956
     NS sqrt iter    2 1.00000000   0.316E+00       0.001      105.224
     NS sqrt iter    3 1.00000000   0.693E-01       0.001      106.618
     NS sqrt iter    4 1.00000000   0.160E-02       0.001      106.038
     NS sqrt iter    5 1.00000000   0.453E-07       0.001       65.024
     Symmetrizing Results
     Final NS sqrt iter    5 1.00000000   0.544E-09

     Est. extremal eigenvalues     -0.92930     1.67661  converged:  T
     TRS4 it   1 1.00000000   0.888E+00       0.000       16.128   0.100E-07
     TRS4 it   2 1.00000000   0.622E+00       0.001       32.256   0.100E-07
     TRS4 it   3 1.00000000   0.426E+00       0.001       32.256   0.100E-07
     TRS4 it   4 1.00000000   0.222E+00       0.001       32.256   0.100E-07
     TRS4 it   5 1.00000000   0.746E-01       0.001       32.256   0.100E-07
     TRS4 it   6 1.00000000   0.100E-01       0.001       32.256   0.100E-07
     TRS4 it   7 1.00000000   0.216E-03       0.001       32.256   0.100E-07
     TRS4 it   8 1.00000000   0.130E-06       0.001       32.256   0.100E-07
     TRS4 it   9 1.00000000   0.607E-13       0.001       32.256   0.100E-07
     Final TRS4 iteration    9 1.00000000   0.607E-13
     Chemical potential (mu):       0.00812
 
 PAO| energy:  -7.7178692663476411      penalty:   1.4181362602684302E-005
 PAO|LS| adapt:  T T F
 PAO|LS| adapt: scan_steps:    0.0000000000000000       0.28425428586591112        0.0000000000000000     
 PAO|LS| adapt: energies:   -7.7156199168037416       -7.7178692663476411        0.0000000000000000     
 PAO| ======================= Iteration:        14 =============================

     Lanczos converged:  T threshold:   0.100E-02
     Est. extremal eigenvalues:    0.270E+01   0.186E+00
     Est. condition number :    0.145E+02

 Order=           3
     NS sqrt iter    1 1.00000000   0.685E+00       0.001       62.512
     NS sqrt iter    2 1.00000000   0.309E+00       0.001      106.028
     NS sqrt iter    3 1.00000000   0.652E-01       0.001      104.387
     NS sqrt iter    4 1.00000000   0.133E-02       0.001      106.767
     NS sqrt iter    5 1.00000000   0.263E-07       0.001       56.064
     Symmetrizing Results
     Final NS sqrt iter    5 1.00000000   0.466E-08

     Est. extremal eigenvalues     -0.92933     1.66888  converged:  T
     TRS4 it   1 1.00000000   0.887E+00       0.000       16.128   0.100E-07
     TRS4 it   2 1.00000000   0.618E+00       0.001       32.256   0.100E-07
     TRS4 it   3 1.00000000   0.421E+00       0.001       32.256   0.100E-07
     TRS4 it   4 1.00000000   0.216E+00       0.001       32.256   0.100E-07
     TRS4 it   5 1.00000000   0.707E-01       0.001       32.256   0.100E-07
     TRS4 it   6 1.00000000   0.891E-02       0.001       32.256   0.100E-07
     TRS4 it   7 1.00000000   0.169E-03       0.001       32.256   0.100E-07
     TRS4 it   8 1.00000000   0.770E-07       0.001       32.256   0.100E-07
     Final TRS4 iteration    8 1.00000000   0.770E-07
     Chemical potential (mu):       0.00829
 
 PAO| energy:  -7.7173158714516790      penalty:   1.5052634917450544E-005
 PAO|LS| adapt:  T T T
 PAO|LS| adapt: scan_steps:    0.0000000000000000       0.28425428586591112       0.56850857173182223     
 PAO|LS| adapt: energies:   -7.7156199168037416       -7.7178692663476411       -7.7173158714516790     
 PAO|LS| adapt: suggested step_size:   0.37025612935439434     
 PAO|LS| adapt: predicted energy  -7.7179975451753045     
 PAO| ======================= Iteration:        15 =============================

     Lanczos converged:  T threshold:   0.100E-02
     Est. extremal eigenvalues:    0.272E+01   0.183E+00
     Est. condition number :    0.149E+02

 Order=           3
     NS sqrt iter    1 1.00000000   0.690E+00       0.001       61.287
     NS sqrt iter    2 1.00000000   0.314E+00       0.001      102.132
     NS sqrt iter    3 1.00000000   0.680E-01       0.001       96.891
     NS sqrt iter    4 1.00000000   0.151E-02       0.001      104.008
     NS sqrt iter    5 1.00000000   0.385E-07       0.001       60.494
     Symmetrizing Results
     Final NS sqrt iter    5 1.00000000   0.329E-08

     Est. extremal eigenvalues     -0.92936     1.67424  converged:  T
     TRS4 it   1 1.00000000   0.888E+00       0.000       16.128   0.100E-07
     TRS4 it   2 1.00000000   0.621E+00       0.001       32.256   0.100E-07
     TRS4 it   3 1.00000000   0.425E+00       0.001       32.256   0.100E-07
     TRS4 it   4 1.00000000   0.220E+00       0.001       32.256   0.100E-07
     TRS4 it   5 1.00000000   0.734E-01       0.001       32.256   0.100E-07
     TRS4 it   6 1.00000000   0.966E-02       0.001       32.256   0.100E-07
     TRS4 it   7 1.00000000   0.201E-03       0.001       32.256   0.100E-07
     TRS4 it   8 1.00000000   0.111E-06       0.001       32.256   0.100E-07
     TRS4 it   9 1.00000000   0.429E-13       0.001       32.256   0.100E-07
     Final TRS4 iteration    9 1.00000000   0.429E-13
     Chemical potential (mu):       0.00954
 
 PAO| energy:  -7.7179940586156013      penalty:   1.4387966240924265E-005
 PAO|CG| trace_G_new    2.7520310311426096E-003
 PAO|CG| trace_G_prev    1.3025976329089728E-002
 PAO|CG| trace_G_mix    1.0954794442897509E-004
 PAO|CG| trace_D    1.8825356146812463E-002
 PAO|CG| trace_D_Gnew   3.2354944306911212E-005
 PAO|CG| beta:   0.20286257397938132     
 PAO| norm of gradient:   5.2459803956387503E-002
 PAO| energy improvement:  -2.3741418118596869E-003
 PAO| step     15                   -7.717994059  0.328E-02  0.370E+00     0.055
 PAO|LS| adapt:  T F F
 PAO|LS| adapt: scan_steps:    0.0000000000000000        0.0000000000000000        0.0000000000000000     
 PAO|LS| adapt: energies:   -7.7179940586156013        0.0000000000000000        0.0000000000000000     
 PAO| ======================= Iteration:        16 =============================

     Lanczos converged:  T threshold:   0.100E-02
     Est. extremal eigenvalues:    0.271E+01   0.184E+00
     Est. condition number :    0.148E+02

 Order=           3
     NS sqrt iter    1 1.00000000   0.689E+00       0.001       59.532
     NS sqrt iter    2 1.00000000   0.313E+00       0.001      102.245
     NS sqrt iter    3 1.00000000   0.674E-01       0.001      100.977
     NS sqrt iter    4 1.00000000   0.146E-02       0.001      101.176
     NS sqrt iter    5 1.00000000   0.344E-07       0.001       59.388
     Symmetrizing Results
     Final NS sqrt iter    5 1.00000000   0.237E-08

     Est. extremal eigenvalues     -0.92940     1.67296  converged:  T
     TRS4 it   1 1.00000000   0.888E+00       0.000       16.128   0.100E-07
     TRS4 it   2 1.00000000   0.620E+00       0.001       32.256   0.100E-07
     TRS4 it   3 1.00000000   0.423E+00       0.001       32.256   0.100E-07
     TRS4 it   4 1.00000000   0.218E+00       0.001       32.256   0.100E-07
     TRS4 it   5 1.00000000   0.721E-01       0.001       32.256   0.100E-07
     TRS4 it   6 1.00000000   0.934E-02       0.001       32.256   0.100E-07
     TRS4 it   7 1.00000000   0.188E-03       0.001       32.256   0.100E-07
     TRS4 it   8 1.00000000   0.974E-07       0.001       32.256   0.100E-07
     TRS4 it   9 1.00000000   0.338E-13       0.001       32.256   0.100E-07
     Final TRS4 iteration    9 1.00000000   0.338E-13
     Chemical potential (mu):       0.01057
 
 PAO| energy:  -7.7181363240420087      penalty:   1.4214335076356264E-005
 PAO|LS| adapt:  T T F
 PAO|LS| adapt: scan_steps:    0.0000000000000000       0.37025612935439434        0.0000000000000000     
 PAO|LS| adapt: energies:   -7.7179940586156013       -7.7181363240420087        0.0000000000000000     
 PAO| ======================= Iteration:        17 =============================

     Lanczos converged:  T threshold:   0.100E-02
     Est. extremal eigenvalues:    0.270E+01   0.185E+00
     Est. condition number :    0.147E+02

 Order=           3
     NS sqrt iter    1 1.00000000   0.687E+00       0.001       59.267
     NS sqrt iter    2 1.00000000   0.312E+00       0.001      102.910
     NS sqrt iter    3 1.00000000   0.668E-01       0.001       97.623
     NS sqrt iter    4 1.00000000   0.141E-02       0.001      105.397
     NS sqrt iter    5 1.00000000   0.309E-07       0.001       58.111
     Symmetrizing Results
     Final NS sqrt iter    5 1.00000000   0.231E-08

     Est. extremal eigenvalues     -0.92930     1.67176  converged:  T
     TRS4 it   1 1.00000000   0.888E+00       0.000       16.128   0.100E-07
     TRS4 it   2 1.00000000   0.619E+00       0.001       32.256   0.100E-07
     TRS4 it   3 1.00000000   0.422E+00       0.001       32.256   0.100E-07
     TRS4 it   4 1.00000000   0.217E+00       0.001       32.256   0.100E-07
     TRS4 it   5 1.00000000   0.709E-01       0.001       32.256   0.100E-07
     TRS4 it   6 1.00000000   0.903E-02       0.001       32.256   0.100E-07
     TRS4 it   7 1.00000000   0.176E-03       0.001       32.256   0.100E-07
     TRS4 it   8 1.00000000   0.857E-07       0.001       32.256   0.100E-07
     TRS4 it   9 1.00000000   0.255E-13       0.001       32.256   0.100E-07
     Final TRS4 iteration    9 1.00000000   0.255E-13
     Chemical potential (mu):       0.01157
 
 PAO| energy:  -7.7165229526521379      penalty:   1.4163497485681954E-005
 PAO|LS| adapt:  T T T
 PAO|LS| adapt: scan_steps:    0.0000000000000000       0.37025612935439434       0.74051225870878867     
 PAO|LS| adapt: energies:   -7.7179940586156013       -7.7181363240420087       -7.7165229526521379     
 PAO|LS| adapt: suggested step_size:   0.21513122115817090     
 PAO|LS| adapt: predicted energy  -7.7182904100647889     
 PAO| ======================= Iteration:        18 =============================

     Lanczos converged:  T threshold:   0.100E-02
     Est. extremal eigenvalues:    0.272E+01   0.183E+00
     Est. condition number :    0.148E+02

 Order=           3
     NS sqrt iter    1 1.00000000   0.689E+00       0.001       60.956
     NS sqrt iter    2 1.00000000   0.313E+00       0.001      102.612
     NS sqrt iter    3 1.00000000   0.676E-01       0.001      105.390
     NS sqrt iter    4 1.00000000   0.148E-02       0.001      102.479
     NS sqrt iter    5 1.00000000   0.361E-07       0.001       59.872
     Symmetrizing Results
     Final NS sqrt iter    5 1.00000000   0.243E-08

     Est. extremal eigenvalues     -0.92940     1.67349  converged:  T
     TRS4 it   1 1.00000000   0.888E+00       0.000       16.128   0.100E-07
     TRS4 it   2 1.00000000   0.620E+00       0.001       32.256   0.100E-07
     TRS4 it   3 1.00000000   0.424E+00       0.001       32.256   0.100E-07
     TRS4 it   4 1.00000000   0.219E+00       0.001       32.256   0.100E-07
     TRS4 it   5 1.00000000   0.727E-01       0.001       32.256   0.100E-07
     TRS4 it   6 1.00000000   0.947E-02       0.001       32.256   0.100E-07
     TRS4 it   7 1.00000000   0.193E-03       0.001       32.256   0.100E-07
     TRS4 it   8 1.00000000   0.103E-06       0.001       32.256   0.100E-07
     TRS4 it   9 1.00000000   0.368E-13       0.001       32.256   0.100E-07
     Final TRS4 iteration    9 1.00000000   0.368E-13
     Chemical potential (mu):       0.01015
 
 PAO| energy:  -7.7182898194635614      penalty:   1.4272437139432594E-005
 PAO|CG| trace_G_new    7.9916050969816512E-004
 PAO|CG| trace_G_prev    2.7520310311426096E-003
 PAO|CG| trace_G_mix    1.2609316458167034E-006
 PAO|CG| trace_D    3.5136279134890033E-003
 PAO|CG| trace_D_Gnew  -2.2951179274597091E-006
 PAO|CG| beta:   0.28993117047850664     
 PAO| norm of gradient:   2.8269427120091506E-002
 PAO| energy improvement:  -2.9576084796012481E-004
 PAO| step     18                   -7.718289819  0.177E-02  0.215E+00     0.057
 PAO|LS| adapt:  T F F
 PAO|LS| adapt: scan_steps:    0.0000000000000000        0.0000000000000000        0.0000000000000000     
 PAO|LS| adapt: energies:   -7.7182898194635614        0.0000000000000000        0.0000000000000000     
 PAO| ======================= Iteration:        19 =============================

     Lanczos converged:  T threshold:   0.100E-02
     Est. extremal eigenvalues:    0.272E+01   0.183E+00
     Est. condition number :    0.148E+02

 Order=           3
     NS sqrt iter    1 1.00000000   0.689E+00       0.001       59.948
     NS sqrt iter    2 1.00000000   0.314E+00       0.001      101.779
     NS sqrt iter    3 1.00000000   0.678E-01       0.001      102.056
     NS sqrt iter    4 1.00000000   0.149E-02       0.001      101.381
     NS sqrt iter    5 1.00000000   0.362E-07       0.001       60.274
     Symmetrizing Results
     Final NS sqrt iter    5 1.00000000   0.326E-08

     Est. extremal eigenvalues     -0.92940     1.67338  converged:  T
     TRS4 it   1 1.00000000   0.888E+00       0.000       16.128   0.100E-07
     TRS4 it   2 1.00000000   0.620E+00       0.001       32.256   0.100E-07
     TRS4 it   3 1.00000000   0.424E+00       0.001       32.256   0.100E-07
     TRS4 it   4 1.00000000   0.219E+00       0.001       32.256   0.100E-07
     TRS4 it   5 1.00000000   0.725E-01       0.001       32.256   0.100E-07
     TRS4 it   6 1.00000000   0.946E-02       0.001       32.256   0.100E-07
     TRS4 it   7 1.00000000   0.193E-03       0.001       32.256   0.100E-07
     TRS4 it   8 1.00000000   0.103E-06       0.001       32.256   0.100E-07
     TRS4 it   9 1.00000000   0.381E-13       0.001       32.256   0.100E-07
     Final TRS4 iteration    9 1.00000000   0.381E-13
     Chemical potential (mu):       0.00998
 
 PAO| energy:  -7.7184195850561101      penalty:   1.4000896624857485E-005
 PAO|LS| adapt:  T T F
 PAO|LS| adapt: scan_steps:    0.0000000000000000       0.21513122115817090        0.0000000000000000     
 PAO|LS| adapt: energies:   -7.7182898194635614       -7.7184195850561101        0.0000000000000000     
 PAO| ======================= Iteration:        20 =============================

     Lanczos converged:  T threshold:   0.100E-02
     Est. extremal eigenvalues:    0.272E+01   0.183E+00
     Est. condition number :    0.148E+02

 Order=           3
     NS sqrt iter    1 1.00000000   0.689E+00       0.001       61.403
     NS sqrt iter    2 1.00000000   0.314E+00       0.001      104.209
     NS sqrt iter    3 1.00000000   0.680E-01       0.001      100.813
     NS sqrt iter    4 1.00000000   0.149E-02       0.001      102.313
     NS sqrt iter    5 1.00000000   0.363E-07       0.001       59.050
     Symmetrizing Results
     Final NS sqrt iter    5 1.00000000   0.336E-08

     Est. extremal eigenvalues     -0.92940     1.67329  converged:  T
     TRS4 it   1 1.00000000   0.888E+00       0.000       16.128   0.100E-07
     TRS4 it   2 1.00000000   0.620E+00       0.001       32.256   0.100E-07
     TRS4 it   3 1.00000000   0.423E+00       0.001       32.256   0.100E-07
     TRS4 it   4 1.00000000   0.219E+00       0.001       32.256   0.100E-07
     TRS4 it   5 1.00000000   0.724E-01       0.001       32.256   0.100E-07
     TRS4 it   6 1.00000000   0.944E-02       0.001       32.256   0.100E-07
     TRS4 it   7 1.00000000   0.193E-03       0.001       32.256   0.100E-07
     TRS4 it   8 1.00000000   0.104E-06       0.001       32.256   0.100E-07
     TRS4 it   9 1.00000000   0.383E-13       0.001       32.256   0.100E-07
     Final TRS4 iteration    9 1.00000000   0.383E-13
     Chemical potential (mu):       0.00981
 
 PAO| energy:  -7.7184642319410592      penalty:   1.3742275409133780E-005
 PAO|LS| adapt:  T T F
 PAO|LS| adapt: scan_steps:    0.0000000000000000       0.43026244231634181        0.0000000000000000     
 PAO|LS| adapt: energies:   -7.7182898194635614       -7.7184642319410592        0.0000000000000000     
 PAO| ======================= Iteration:        21 =============================

     Lanczos converged:  T threshold:   0.100E-02
     Est. extremal eigenvalues:    0.272E+01   0.183E+00
     Est. condition number :    0.148E+02

 Order=           3
     NS sqrt iter    1 1.00000000   0.689E+00       0.001       60.606
     NS sqrt iter    2 1.00000000   0.314E+00       0.001       99.976
     NS sqrt iter    3 1.00000000   0.685E-01       0.001      101.030
     NS sqrt iter    4 1.00000000   0.151E-02       0.001      101.502
     NS sqrt iter    5 1.00000000   0.368E-07       0.001       59.958
     Symmetrizing Results
     Final NS sqrt iter    5 1.00000000   0.367E-09

     Est. extremal eigenvalues     -0.92939     1.67310  converged:  T
     TRS4 it   1 1.00000000   0.888E+00       0.000       16.128   0.100E-07
     TRS4 it   2 1.00000000   0.620E+00       0.001       32.256   0.100E-07
     TRS4 it   3 1.00000000   0.423E+00       0.001       32.256   0.100E-07
     TRS4 it   4 1.00000000   0.218E+00       0.001       32.256   0.100E-07
     TRS4 it   5 1.00000000   0.721E-01       0.001       32.256   0.100E-07
     TRS4 it   6 1.00000000   0.940E-02       0.001       32.256   0.100E-07
     TRS4 it   7 1.00000000   0.194E-03       0.001       32.256   0.100E-07
     TRS4 it   8 1.00000000   0.106E-06       0.001       32.256   0.100E-07
     TRS4 it   9 1.00000000   0.397E-13       0.001       32.256   0.100E-07
     Final TRS4 iteration    9 1.00000000   0.397E-13
     Chemical potential (mu):       0.00945
 
 PAO| energy:  -7.7182950875889818      penalty:   1.3263348431673189E-005
 PAO|LS| Need extra step
 PAO|LS| adapt:  T T T
 PAO|LS| adapt: scan_steps:    0.0000000000000000       0.43026244231634181       0.86052488463268362     
 PAO|LS| adapt: energies:   -7.7182898194635614       -7.7184642319410592       -7.7182950875889818     
 PAO|LS| adapt: suggested step_size:   0.43356128011355238     
 PAO|LS| adapt: predicted energy  -7.7184642420387863     
 PAO| ======================= Iteration:        22 =============================

     Lanczos converged:  T threshold:   0.100E-02
     Est. extremal eigenvalues:    0.272E+01   0.183E+00
     Est. condition number :    0.148E+02

 Order=           3
     NS sqrt iter    1 1.00000000   0.689E+00       0.001       57.899
     NS sqrt iter    2 1.00000000   0.314E+00       0.001      101.248
     NS sqrt iter    3 1.00000000   0.681E-01       0.001      102.002
     NS sqrt iter    4 1.00000000   0.149E-02       0.001      101.357
     NS sqrt iter    5 1.00000000   0.363E-07       0.001       58.808
     Symmetrizing Results
     Final NS sqrt iter    5 1.00000000   0.336E-08

     Est. extremal eigenvalues     -0.92940     1.67329  converged:  T
     TRS4 it   1 1.00000000   0.888E+00       0.000       16.128   0.100E-07
     TRS4 it   2 1.00000000   0.620E+00       0.001       32.256   0.100E-07
     TRS4 it   3 1.00000000   0.423E+00       0.001       32.256   0.100E-07
     TRS4 it   4 1.00000000   0.219E+00       0.001       32.256   0.100E-07
     TRS4 it   5 1.00000000   0.724E-01       0.001       32.256   0.100E-07
     TRS4 it   6 1.00000000   0.944E-02       0.001       32.256   0.100E-07
     TRS4 it   7 1.00000000   0.193E-03       0.001       32.256   0.100E-07
     TRS4 it   8 1.00000000   0.104E-06       0.001       32.256   0.100E-07
     TRS4 it   9 1.00000000   0.379E-13       0.001       32.256   0.100E-07
     Final TRS4 iteration    9 1.00000000   0.379E-13
     Chemical potential (mu):       0.00980
 
 PAO| energy:  -7.7184642499124534      penalty:   1.3738409445506643E-005
 PAO|CG| trace_G_new    2.3710066185794894E-004
 PAO|CG| trace_G_prev    7.9916050969816512E-004
 PAO|CG| trace_G_mix    4.1253377335653899E-006
 PAO|CG| trace_D    1.0958472183523675E-003
 PAO|CG| trace_D_Gnew  -2.3863472673086020E-006
 PAO|CG| beta:   0.29152507074251699     
 PAO| norm of gradient:   1.5398073316423355E-002
 PAO| energy improvement:  -1.7443044889198234E-004
 PAO| step     22                   -7.718464250  0.962E-03  0.434E+00     0.074
 PAO|LS| adapt:  T F F
 PAO|LS| adapt: scan_steps:    0.0000000000000000        0.0000000000000000        0.0000000000000000     
 PAO|LS| adapt: energies:   -7.7184642499124534        0.0000000000000000        0.0000000000000000     
 PAO| ======================= Iteration:        23 =============================

     Lanczos converged:  T threshold:   0.100E-02
     Est. extremal eigenvalues:    0.272E+01   0.183E+00
     Est. condition number :    0.148E+02

 Order=           3
     NS sqrt iter    1 1.00000000   0.689E+00       0.001       59.837
     NS sqrt iter    2 1.00000000   0.314E+00       0.001       97.441
     NS sqrt iter    3 1.00000000   0.681E-01       0.001      102.506
     NS sqrt iter    4 1.00000000   0.149E-02       0.001      101.094
     NS sqrt iter    5 1.00000000   0.360E-07       0.001       58.227
     Symmetrizing Results
     Final NS sqrt iter    5 1.00000000   0.338E-08

     Est. extremal eigenvalues     -0.92940     1.67341  converged:  T
     TRS4 it   1 1.00000000   0.888E+00       0.000       16.128   0.100E-07
     TRS4 it   2 1.00000000   0.620E+00       0.001       32.256   0.100E-07
     TRS4 it   3 1.00000000   0.424E+00       0.001       32.256   0.100E-07
     TRS4 it   4 1.00000000   0.219E+00       0.001       32.256   0.100E-07
     TRS4 it   5 1.00000000   0.726E-01       0.001       32.256   0.100E-07
     TRS4 it   6 1.00000000   0.949E-02       0.001       32.256   0.100E-07
     TRS4 it   7 1.00000000   0.196E-03       0.001       32.256   0.100E-07
     TRS4 it   8 1.00000000   0.107E-06       0.001       32.256   0.100E-07
     TRS4 it   9 1.00000000   0.412E-13       0.001       32.256   0.100E-07
     Final TRS4 iteration    9 1.00000000   0.412E-13
     Chemical potential (mu):       0.00950
 
 PAO| energy:  -7.7185051155783526      penalty:   1.3117618359064870E-005
 PAO|LS| adapt:  T T F
 PAO|LS| adapt: scan_steps:    0.0000000000000000       0.43356128011355238        0.0000000000000000     
 PAO|LS| adapt: energies:   -7.7184642499124534       -7.7185051155783526        0.0000000000000000     
 PAO| ======================= Iteration:        24 =============================

     Lanczos converged:  T threshold:   0.100E-02
     Est. extremal eigenvalues:    0.272E+01   0.184E+00
     Est. condition number :    0.148E+02

 Order=           3
     NS sqrt iter    1 1.00000000   0.689E+00       0.001       59.447
     NS sqrt iter    2 1.00000000   0.314E+00       0.001      102.529
     NS sqrt iter    3 1.00000000   0.681E-01       0.001      102.456
     NS sqrt iter    4 1.00000000   0.149E-02       0.001       99.667
     NS sqrt iter    5 1.00000000   0.357E-07       0.001       57.027
     Symmetrizing Results
     Final NS sqrt iter    5 1.00000000   0.340E-08

     Est. extremal eigenvalues     -0.92940     1.67352  converged:  T
     TRS4 it   1 1.00000000   0.888E+00       0.000       16.128   0.100E-07
     TRS4 it   2 1.00000000   0.620E+00       0.001       32.256   0.100E-07
     TRS4 it   3 1.00000000   0.424E+00       0.001       32.256   0.100E-07
     TRS4 it   4 1.00000000   0.219E+00       0.001       32.256   0.100E-07
     TRS4 it   5 1.00000000   0.727E-01       0.001       32.256   0.100E-07
     TRS4 it   6 1.00000000   0.955E-02       0.001       32.256   0.100E-07
     TRS4 it   7 1.00000000   0.199E-03       0.001       32.256   0.100E-07
     TRS4 it   8 1.00000000   0.110E-06       0.001       32.256   0.100E-07
     TRS4 it   9 1.00000000   0.431E-13       0.001       32.256   0.100E-07
     Final TRS4 iteration    9 1.00000000   0.431E-13
     Chemical potential (mu):       0.00919
 
 PAO| energy:  -7.7184209215722399      penalty:   1.2522240634900022E-005
 PAO|LS| adapt:  T T T
 PAO|LS| adapt: scan_steps:    0.0000000000000000       0.43356128011355238       0.86712256022710477     
 PAO|LS| adapt: energies:   -7.7184642499124534       -7.7185051155783526       -7.7184209215722399     
 PAO|LS| adapt: suggested step_size:   0.35845517138187821     
 PAO|LS| adapt: predicted energy  -7.7185069920276472     
 PAO| ======================= Iteration:        25 =============================

     Lanczos converged:  T threshold:   0.100E-02
     Est. extremal eigenvalues:    0.272E+01   0.183E+00
     Est. condition number :    0.148E+02

 Order=           3
     NS sqrt iter    1 1.00000000   0.689E+00       0.001       59.756
     NS sqrt iter    2 1.00000000   0.314E+00       0.001      100.951
     NS sqrt iter    3 1.00000000   0.681E-01       0.001       98.336
     NS sqrt iter    4 1.00000000   0.149E-02       0.001      100.775
     NS sqrt iter    5 1.00000000   0.360E-07       0.001       58.022
     Symmetrizing Results
     Final NS sqrt iter    5 1.00000000   0.338E-08

     Est. extremal eigenvalues     -0.92940     1.67339  converged:  T
     TRS4 it   1 1.00000000   0.888E+00       0.000       16.128   0.100E-07
     TRS4 it   2 1.00000000   0.620E+00       0.001       32.256   0.100E-07
     TRS4 it   3 1.00000000   0.424E+00       0.001       32.256   0.100E-07
     TRS4 it   4 1.00000000   0.219E+00       0.001       32.256   0.100E-07
     TRS4 it   5 1.00000000   0.725E-01       0.001       32.256   0.100E-07
     TRS4 it   6 1.00000000   0.948E-02       0.001       32.256   0.100E-07
     TRS4 it   7 1.00000000   0.196E-03       0.001       32.256   0.100E-07
     TRS4 it   8 1.00000000   0.107E-06       0.001       32.256   0.100E-07
     TRS4 it   9 1.00000000   0.411E-13       0.001       32.256   0.100E-07
     Final TRS4 iteration    9 1.00000000   0.411E-13
     Chemical potential (mu):       0.00955
 
 PAO| energy:  -7.7185069671784801      penalty:   1.3223323892091606E-005
 PAO|CG| trace_G_new    7.9508992057733663E-005
 PAO|CG| trace_G_prev    2.3710066185794894E-004
 PAO|CG| trace_G_mix    2.6343785146528374E-007
 PAO|CG| trace_D    3.3162464362732465E-004
 PAO|CG| trace_D_Gnew  -3.1041325456461229E-007
 PAO|CG| beta:   0.33422746940177561     
 PAO| norm of gradient:   8.9167814853641936E-003
 PAO| energy improvement:  -4.2717266026670586E-005
 PAO| step     25                   -7.718506967  0.557E-03  0.358E+00     0.057
 PAO|LS| adapt:  T F F
 PAO|LS| adapt: scan_steps:    0.0000000000000000        0.0000000000000000        0.0000000000000000     
 PAO|LS| adapt: energies:   -7.7185069671784801        0.0000000000000000        0.0000000000000000     
 PAO| ======================= Iteration:        26 =============================

     Lanczos converged:  T threshold:   0.100E-02
     Est. extremal eigenvalues:    0.272E+01   0.184E+00
     Est. condition number :    0.148E+02

 Order=           3
     NS sqrt iter    1 1.00000000   0.689E+00       0.001       59.293
     NS sqrt iter    2 1.00000000   0.314E+00       0.001       99.532
     NS sqrt iter    3 1.00000000   0.680E-01       0.001       99.674
     NS sqrt iter    4 1.00000000   0.149E-02       0.001       99.060
     NS sqrt iter    5 1.00000000   0.356E-07       0.001       57.801
     Symmetrizing Results
     Final NS sqrt iter    5 1.00000000   0.331E-08

     Est. extremal eigenvalues     -0.92940     1.67331  converged:  T
     TRS4 it   1 1.00000000   0.888E+00       0.000       16.128   0.100E-07
     TRS4 it   2 1.00000000   0.620E+00       0.001       32.256   0.100E-07
     TRS4 it   3 1.00000000   0.424E+00       0.001       32.256   0.100E-07
     TRS4 it   4 1.00000000   0.219E+00       0.001       32.256   0.100E-07
     TRS4 it   5 1.00000000   0.725E-01       0.001       32.256   0.100E-07
     TRS4 it   6 1.00000000   0.948E-02       0.001       32.256   0.100E-07
     TRS4 it   7 1.00000000   0.196E-03       0.001       32.256   0.100E-07
     TRS4 it   8 1.00000000   0.107E-06       0.001       32.256   0.100E-07
     TRS4 it   9 1.00000000   0.403E-13       0.001       32.256   0.100E-07
     Final TRS4 iteration    9 1.00000000   0.403E-13
     Chemical potential (mu):       0.00955
 
 PAO| energy:  -7.7185153534555102      penalty:   1.2674840412461735E-005
 PAO|LS| adapt:  T T F
 PAO|LS| adapt: scan_steps:    0.0000000000000000       0.35845517138187821        0.0000000000000000     
 PAO|LS| adapt: energies:   -7.7185069671784801       -7.7185153534555102        0.0000000000000000     
 PAO| ======================= Iteration:        27 =============================

     Lanczos converged:  T threshold:   0.100E-02
     Est. extremal eigenvalues:    0.272E+01   0.184E+00
     Est. condition number :    0.148E+02

 Order=           3
     NS sqrt iter    1 1.00000000   0.689E+00       0.001       60.832
     NS sqrt iter    2 1.00000000   0.314E+00       0.001       99.962
     NS sqrt iter    3 1.00000000   0.679E-01       0.001       97.505
     NS sqrt iter    4 1.00000000   0.148E-02       0.001       99.353
     NS sqrt iter    5 1.00000000   0.351E-07       0.001       58.141
     Symmetrizing Results
     Final NS sqrt iter    5 1.00000000   0.325E-08

     Est. extremal eigenvalues     -0.92940     1.67323  converged:  T
     TRS4 it   1 1.00000000   0.888E+00       0.000       16.128   0.100E-07
     TRS4 it   2 1.00000000   0.620E+00       0.001       32.256   0.100E-07
     TRS4 it   3 1.00000000   0.424E+00       0.001       32.256   0.100E-07
     TRS4 it   4 1.00000000   0.219E+00       0.001       32.256   0.100E-07
     TRS4 it   5 1.00000000   0.725E-01       0.001       32.256   0.100E-07
     TRS4 it   6 1.00000000   0.948E-02       0.001       32.256   0.100E-07
     TRS4 it   7 1.00000000   0.196E-03       0.001       32.256   0.100E-07
     TRS4 it   8 1.00000000   0.107E-06       0.001       32.256   0.100E-07
     TRS4 it   9 1.00000000   0.398E-13       0.001       32.256   0.100E-07
     Final TRS4 iteration    9 1.00000000   0.398E-13
     Chemical potential (mu):       0.00955
 
 PAO| energy:  -7.7184833705068892      penalty:   1.2140335608251492E-005
 PAO|LS| adapt:  T T T
 PAO|LS| adapt: scan_steps:    0.0000000000000000       0.35845517138187821       0.71691034276375643     
 PAO|LS| adapt: energies:   -7.7185069671784801       -7.7185153534555102       -7.7184833705068892     
 PAO|LS| adapt: suggested step_size:   0.25369283295802147     
 PAO|LS| adapt: predicted energy  -7.7185170775501071     
 PAO| ======================= Iteration:        28 =============================

     Lanczos converged:  T threshold:   0.100E-02
     Est. extremal eigenvalues:    0.272E+01   0.183E+00
     Est. condition number :    0.148E+02

 Order=           3
     NS sqrt iter    1 1.00000000   0.689E+00       0.001       60.235
     NS sqrt iter    2 1.00000000   0.314E+00       0.001       98.108
     NS sqrt iter    3 1.00000000   0.680E-01       0.001       99.390
     NS sqrt iter    4 1.00000000   0.149E-02       0.001       99.358
     NS sqrt iter    5 1.00000000   0.357E-07       0.001       57.837
     Symmetrizing Results
     Final NS sqrt iter    5 1.00000000   0.333E-08

     Est. extremal eigenvalues     -0.92940     1.67333  converged:  T
     TRS4 it   1 1.00000000   0.888E+00       0.000       16.128   0.100E-07
     TRS4 it   2 1.00000000   0.620E+00       0.001       32.256   0.100E-07
     TRS4 it   3 1.00000000   0.424E+00       0.001       32.256   0.100E-07
     TRS4 it   4 1.00000000   0.219E+00       0.001       32.256   0.100E-07
     TRS4 it   5 1.00000000   0.725E-01       0.001       32.256   0.100E-07
     TRS4 it   6 1.00000000   0.948E-02       0.001       32.256   0.100E-07
     TRS4 it   7 1.00000000   0.196E-03       0.001       32.256   0.100E-07
     TRS4 it   8 1.00000000   0.107E-06       0.001       32.256   0.100E-07
     TRS4 it   9 1.00000000   0.401E-13       0.001       32.256   0.100E-07
     Final TRS4 iteration    9 1.00000000   0.401E-13
     Chemical potential (mu):       0.00955
 
 PAO| energy:  -7.7185170731190436      penalty:   1.2833688749368672E-005
 PAO|CG| trace_G_new    2.0896061813433364E-005
 PAO|CG| trace_G_prev    7.9508992057733663E-005
 PAO|CG| trace_G_mix    8.8119382148312351E-008
 PAO|CG| trace_D    1.1676161545315101E-004
 PAO|CG| trace_D_Gnew  -3.4289477232019774E-008
 PAO|CG| beta:   0.26170552402646274     
 PAO| norm of gradient:   4.5712210418479395E-003
 PAO| energy improvement:  -1.0105940563498450E-005
 PAO| step     28                   -7.718517073  0.286E-03  0.254E+00     0.058
 PAO|LS| adapt:  T F F
 PAO|LS| adapt: scan_steps:    0.0000000000000000        0.0000000000000000        0.0000000000000000     
 PAO|LS| adapt: energies:   -7.7185170731190436        0.0000000000000000        0.0000000000000000     
 PAO| ======================= Iteration:        29 =============================

     Lanczos converged:  T threshold:   0.100E-02
     Est. extremal eigenvalues:    0.272E+01   0.184E+00
     Est. condition number :    0.148E+02

 Order=           3
     NS sqrt iter    1 1.00000000   0.689E+00       0.001       58.570
     NS sqrt iter    2 1.00000000   0.314E+00       0.001       98.871
     NS sqrt iter    3 1.00000000   0.680E-01       0.001       98.130
     NS sqrt iter    4 1.00000000   0.148E-02       0.001       97.607
     NS sqrt iter    5 1.00000000   0.356E-07       0.001       56.837
     Symmetrizing Results
     Final NS sqrt iter    5 1.00000000   0.329E-08

     Est. extremal eigenvalues     -0.92940     1.67326  converged:  T
     TRS4 it   1 1.00000000   0.888E+00       0.000       16.128   0.100E-07
     TRS4 it   2 1.00000000   0.620E+00       0.001       32.256   0.100E-07
     TRS4 it   3 1.00000000   0.423E+00       0.001       32.256   0.100E-07
     TRS4 it   4 1.00000000   0.219E+00       0.001       32.256   0.100E-07
     TRS4 it   5 1.00000000   0.725E-01       0.001       32.256   0.100E-07
     TRS4 it   6 1.00000000   0.947E-02       0.001       32.256   0.100E-07
     TRS4 it   7 1.00000000   0.195E-03       0.001       32.256   0.100E-07
     TRS4 it   8 1.00000000   0.106E-06       0.001       32.256   0.100E-07
     TRS4 it   9 1.00000000   0.402E-13       0.001       32.256   0.100E-07
     Final TRS4 iteration    9 1.00000000   0.402E-13
     Chemical potential (mu):       0.00961
 
 PAO| energy:  -7.7185216508575332      penalty:   1.2470195049952229E-005
 PAO|LS| adapt:  T T F
 PAO|LS| adapt: scan_steps:    0.0000000000000000       0.25369283295802147        0.0000000000000000     
 PAO|LS| adapt: energies:   -7.7185170731190436       -7.7185216508575332        0.0000000000000000     
 PAO| ======================= Iteration:        30 =============================

     Lanczos converged:  T threshold:   0.100E-02
     Est. extremal eigenvalues:    0.272E+01   0.184E+00
     Est. condition number :    0.148E+02

 Order=           3
     NS sqrt iter    1 1.00000000   0.689E+00       0.001       59.380
     NS sqrt iter    2 1.00000000   0.314E+00       0.001       97.843
     NS sqrt iter    3 1.00000000   0.679E-01       0.001       97.739
     NS sqrt iter    4 1.00000000   0.148E-02       0.001       98.936
     NS sqrt iter    5 1.00000000   0.354E-07       0.001       56.727
     Symmetrizing Results
     Final NS sqrt iter    5 1.00000000   0.324E-08

     Est. extremal eigenvalues     -0.92940     1.67318  converged:  T
     TRS4 it   1 1.00000000   0.888E+00       0.000       16.128   0.100E-07
     TRS4 it   2 1.00000000   0.620E+00       0.001       32.256   0.100E-07
     TRS4 it   3 1.00000000   0.423E+00       0.001       32.256   0.100E-07
     TRS4 it   4 1.00000000   0.219E+00       0.001       32.256   0.100E-07
     TRS4 it   5 1.00000000   0.724E-01       0.001       32.256   0.100E-07
     TRS4 it   6 1.00000000   0.945E-02       0.001       32.256   0.100E-07
     TRS4 it   7 1.00000000   0.194E-03       0.001       32.256   0.100E-07
     TRS4 it   8 1.00000000   0.105E-06       0.001       32.256   0.100E-07
     TRS4 it   9 1.00000000   0.399E-13       0.001       32.256   0.100E-07
     Final TRS4 iteration    9 1.00000000   0.399E-13
     Chemical potential (mu):       0.00967
 
 PAO| energy:  -7.7185247772222825      penalty:   1.2112331716444926E-005
 PAO|LS| adapt:  T T F
 PAO|LS| adapt: scan_steps:    0.0000000000000000       0.50738566591604295        0.0000000000000000     
 PAO|LS| adapt: energies:   -7.7185170731190436       -7.7185247772222825        0.0000000000000000     
 PAO| ======================= Iteration:        31 =============================

     Lanczos converged:  T threshold:   0.100E-02
     Est. extremal eigenvalues:    0.272E+01   0.184E+00
     Est. condition number :    0.148E+02

 Order=           3
     NS sqrt iter    1 1.00000000   0.688E+00       0.001       58.728
     NS sqrt iter    2 1.00000000   0.313E+00       0.001       98.698
     NS sqrt iter    3 1.00000000   0.678E-01       0.001       99.075
     NS sqrt iter    4 1.00000000   0.148E-02       0.001       97.369
     NS sqrt iter    5 1.00000000   0.351E-07       0.001       57.511
     Symmetrizing Results
     Final NS sqrt iter    5 1.00000000   0.243E-08

     Est. extremal eigenvalues     -0.92941     1.67304  converged:  T
     TRS4 it   1 1.00000000   0.888E+00       0.000       16.128   0.100E-07
     TRS4 it   2 1.00000000   0.620E+00       0.001       32.256   0.100E-07
     TRS4 it   3 1.00000000   0.423E+00       0.001       32.256   0.100E-07
     TRS4 it   4 1.00000000   0.219E+00       0.001       32.256   0.100E-07
     TRS4 it   5 1.00000000   0.723E-01       0.001       32.256   0.100E-07
     TRS4 it   6 1.00000000   0.942E-02       0.001       32.256   0.100E-07
     TRS4 it   7 1.00000000   0.193E-03       0.001       32.256   0.100E-07
     TRS4 it   8 1.00000000   0.104E-06       0.001       32.256   0.100E-07
     TRS4 it   9 1.00000000   0.382E-13       0.001       32.256   0.100E-07
     Final TRS4 iteration    9 1.00000000   0.382E-13
     Chemical potential (mu):       0.00978
 
 PAO| energy:  -7.7185266763678877      penalty:   1.1413424968379211E-005
 PAO|LS| Need extra step
 PAO|LS| adapt:  T T F
 PAO|LS| adapt: scan_steps:    0.0000000000000000        1.0147713318320859        0.0000000000000000     
 PAO|LS| adapt: energies:   -7.7185170731190436       -7.7185266763678877        0.0000000000000000     
 PAO| ======================= Iteration:        32 =============================

     Lanczos converged:  T threshold:   0.100E-02
     Est. extremal eigenvalues:    0.272E+01   0.184E+00
     Est. condition number :    0.148E+02

 Order=           3
     NS sqrt iter    1 1.00000000   0.688E+00       0.001       58.092
[...]
     NS sqrt iter    5 1.00000000   0.485E-09       0.001       31.408
     Symmetrizing Results
     Final NS sqrt iter    5 1.00000000   0.247E-10

     Est. extremal eigenvalues     -0.92923     1.43892  converged:  T
     TRS4 it   1 1.00000000   0.834E+00       0.001       16.128   0.100E-07
     TRS4 it   2 1.00000000   0.592E+00       0.001       32.256   0.100E-07
     TRS4 it   3 1.00000000   0.423E+00       0.001       32.256   0.100E-07
     TRS4 it   4 1.00000000   0.256E+00       0.001       32.256   0.100E-07
     TRS4 it   5 1.00000000   0.117E+00       0.001       32.256   0.100E-07
     TRS4 it   6 1.00000000   0.301E-01       0.001       32.256   0.100E-07
     TRS4 it   7 1.00000000   0.265E-02       0.001       32.256   0.100E-07
     TRS4 it   8 1.00000000   0.258E-04       0.001       32.256   0.100E-07
     TRS4 it   9 1.00000000   0.288E-08       0.001       32.256   0.100E-07
     Final TRS4 iteration    9 1.00000000   0.288E-08
     Chemical potential (mu):      -0.07188
 
 PAO| energy:  -7.7180119087442209      penalty:   1.9928192272536934E-011
 PAO|CG| warming up with steepest descent
 PAO|CG| beta:    0.0000000000000000     
 PAO| norm of gradient:   6.3458997911283512E-006
 PAO| energy improvement:  -1.0675016426375805E-011
 PAO| step    882                   -7.718011909  0.397E-06  0.240E+00     0.214
 PAO| converged after          882  steps :-)
 PAO| Recalculating energy after mixing.

     Lanczos converged:  T threshold:   0.100E-02
     Est. extremal eigenvalues:    0.254E+01   0.222E+00
     Est. condition number :    0.115E+02

 Order=           3
     NS sqrt iter    1 1.00000000   0.638E+00       0.007        8.808
     NS sqrt iter    2 1.00000000   0.267E+00       0.007       15.781
     NS sqrt iter    3 1.00000000   0.435E-01       0.007       15.080
     NS sqrt iter    4 1.00000000   0.406E-03       0.008       13.095
     NS sqrt iter    5 1.00000000   0.485E-09       0.005        6.943
     Symmetrizing Results
     Final NS sqrt iter    5 1.00000000   0.247E-10

     Est. extremal eigenvalues     -0.92923     1.43892  converged:  T
     TRS4 it   1 1.00000000   0.834E+00       0.004        4.140   0.100E-07
     TRS4 it   2 1.00000000   0.592E+00       0.005        7.164   0.100E-07
     TRS4 it   3 1.00000000   0.423E+00       0.005        6.910   0.100E-07
     TRS4 it   4 1.00000000   0.256E+00       0.004        7.743   0.100E-07
     TRS4 it   5 1.00000000   0.117E+00       0.003        9.552   0.100E-07
     TRS4 it   6 1.00000000   0.301E-01       0.002       14.657   0.100E-07
     TRS4 it   7 1.00000000   0.265E-02       0.001       28.713   0.100E-07
     TRS4 it   8 1.00000000   0.258E-04       0.001       26.647   0.100E-07
     TRS4 it   9 1.00000000   0.288E-08       0.001       26.261   0.100E-07
     Final TRS4 iteration    9 1.00000000   0.288E-08
     Chemical potential (mu):      -0.07188
 
 PAO| energy:  -7.7180119087415537      penalty:   2.0122006241034687E-011
 PAO| Writing restart file.
     Est. extremal eigenvalues     -0.92923     1.43892  converged:  T
     TRS4 it   1 1.00000000   0.834E+00       0.001       11.936   0.100E-07
     TRS4 it   2 1.00000000   0.592E+00       0.001       32.256   0.100E-07
     TRS4 it   3 1.00000000   0.423E+00       0.001       32.256   0.100E-07
     TRS4 it   4 1.00000000   0.256E+00       0.001       32.256   0.100E-07
     TRS4 it   5 1.00000000   0.117E+00       0.001       32.256   0.100E-07
     TRS4 it   6 1.00000000   0.301E-01       0.001       32.256   0.100E-07
     TRS4 it   7 1.00000000   0.265E-02       0.001       32.256   0.100E-07
     TRS4 it   8 1.00000000   0.258E-04       0.001       32.256   0.100E-07
     TRS4 it   9 1.00000000   0.288E-08       0.001       32.256   0.100E-07
     Final TRS4 iteration    9 1.00000000   0.288E-08
     Chemical potential (mu):      -0.07188

 SCF     1       -34.446214887       -34.446214887    3.676981

*********************************************************
 Using MIXING_FRACTION=0.450 to mix KS matrix:  iscf=  2
 KS_nw=0.450*KS + 0.550*KS_old
*********************************************************
     Est. extremal eigenvalues     -0.92923     1.43892  converged:  T
     TRS4 it   1 1.00000000   0.834E+00       0.003        4.752   0.100E-07
     TRS4 it   2 1.00000000   0.592E+00       0.005        6.761   0.100E-07
     TRS4 it   3 1.00000000   0.423E+00       0.005        6.051   0.100E-07
     TRS4 it   4 1.00000000   0.256E+00       0.003        9.547   0.100E-07
     TRS4 it   5 1.00000000   0.117E+00       0.004        8.685   0.100E-07
     TRS4 it   6 1.00000000   0.301E-01       0.003        9.588   0.100E-07
     TRS4 it   7 1.00000000   0.265E-02       0.003       10.053   0.100E-07
     TRS4 it   8 1.00000000   0.258E-04       0.008        4.230   0.100E-07
     TRS4 it   9 1.00000000   0.288E-08       0.007        4.305   0.100E-07
     Final TRS4 iteration    9 1.00000000   0.288E-08
     Chemical potential (mu):      -0.07188

 SCF     2       -34.446214887        -0.000000000    4.088750


 SCF run converged in     2 steps.

 PAO| Storing density matrix for ASPC guess in slot:           1

 ENERGY| Total FORCE_EVAL ( QS ) energy [a.u.]:              -34.446214887255103

 -------------------------------------------------------------------------------
 -                                                                             -
 -                                DBCSR STATISTICS                             -
 -                                                                             -
 -------------------------------------------------------------------------------
 COUNTER                                    TOTAL       BLAS       SMM       ACC
 flops     5 x     5 x     4                30000       0.0%    100.0%      0.0%
 flops    13 x     5 x     4                31200       0.0%    100.0%      0.0%
 flops     5 x    13 x     4                31200       0.0%    100.0%      0.0%
 flops    13 x    13 x     4                60840       0.0%    100.0%      0.0%
 flops     4 x     4 x     5              6900480       0.0%    100.0%      0.0%
 flops     5 x     4 x     5              8438400       0.0%    100.0%      0.0%
 flops     4 x     4 x    13              8970624       0.0%    100.0%      0.0%
 flops    13 x     4 x     5             10969920       0.0%    100.0%      0.0%
 flops     5 x     4 x    13             10969920       0.0%    100.0%      0.0%
 flops     5 x     4 x     4             13023520       0.0%    100.0%      0.0%
 flops    13 x     4 x    13             14260896       0.0%    100.0%      0.0%
 flops    13 x     4 x     4             16974880       0.0%    100.0%      0.0%
 flops     4 x     4 x     4            875969024       0.0%    100.0%      0.0%
 flops inhomo. stacks                           0       0.0%      0.0%      0.0%
 flops total                       966.630904E+06       0.0%    100.0%      0.0%
 flops max/rank                    966.630904E+06       0.0%    100.0%      0.0%
 matmuls inhomo. stacks                         0       0.0%      0.0%      0.0%
 matmuls total                            7125649       0.0%    100.0%      0.0%
 number of processed stacks                 56789       0.0%    100.0%      0.0%
 average stack size                                     0.0     125.5       0.0
 marketing flops                     1.578629E+09
 -------------------------------------------------------------------------------
 # multiplications                          47574
 max memory usage/rank             506.793984E+06
 # max total images/rank                        1
 # max 3D layers                                1
 # MPI messages exchanged                       0
 -------------------------------------------------------------------------------

 -------------------------------------------------------------------------------
 -                                                                             -
 -                                DBM STATISTICS                               -
 -                                                                             -
 -------------------------------------------------------------------------------
    M  x    N  x    K                                          COUNT     PERCENT
 -------------------------------------------------------------------------------

 -------------------------------------------------------------------------------
 -                                                                             -
 -                                GRID STATISTICS                              -
 -                                                                             -
 -------------------------------------------------------------------------------
 LP    KERNEL             BACKEND                              COUNT     PERCENT
 2     collocate ortho    REF                                  56865      30.66%
 2     integrate ortho    REF                                  56865      30.66%
 3     collocate ortho    REF                                  29430      15.87%
 3     integrate ortho    REF                                  29430      15.87%
 4     collocate ortho    REF                                   6435       3.47%
 4     integrate ortho    REF                                   6435       3.47%
 0     collocate general  REF                                      6       0.00%
 -------------------------------------------------------------------------------

 MEMORY| Estimated peak process memory [MiB]                                 484

 -------------------------------------------------------------------------------
 -                                                                             -
 -                           R E F E R E N C E S                               -
 -                                                                             -
 -------------------------------------------------------------------------------
 
 CP2K version 2023.1 (Development Version), the CP2K developers group (2023).
 CP2K is freely available from https://www.cp2k.org/ .

 Kuehne,Thomas D.; Iannuzzi,Marcella; Del Ben,Mauro;
 Rybkin,Vladimir V.; Seewald,Patrick; Stein,Frederick; Laino,Teodoro;
 Khaliullin,Rustam Z.; Schuett,Ole; Schiffmann,Florian; Golze,Dorothea;
 Wilhelm,Jan; Chulkov,Sergey; Bani-Hashemian,Mohammad Hossein;
 Weber,Valery; Borstnik,Urban; Taillefumier,Mathieu;
 Jakobovits,Alice Shoshana; Lazzaro,Alfio; Pabst,Hans; Mueller,Tiziano;
 Schade,Robert; Guidon,Manuel; Andermatt,Samuel; Holmberg,Nico;
 Schenter,Gregory K.; Hehn,Anna; Bussy,Augustin; Belleflamme,Fabian;
 Tabacchi,Gloria; Gloess,Andreas; Lass,Michael; Bethune,Iain;
 Mundy,Christopher J.; Plessl,Christian; Watkins,Matt;
 VandeVondele,Joost; Krack,Matthias; Hutter,Juerg. 
 The Journal of Chemical Physics, 152 (19), (2020). 
 CP2K: An electronic structure and molecular dynamics software package -
 Quickstep: Efficient and accurate electronic structure calculations.
 https://doi.org/10.1063/5.0007045

 Schuett, O; VandeVondele, J. 
 Journal of Chemical Theory and Computation, 14, (2018). 
 Machine Learning Adaptive Basis Sets for Efficient Large Scale
 Density Functional Theory Simulation.
 https://doi.org/10.1021/acs.jctc.8b00378

 Schuett, Ole; Messmer, Peter; Hutter, Juerg; VandeVondele, Joost. 
 Electronic Structure Calculations on Graphics Processing Units, John
 Wiley & Sons, Ltd, 173-190 (2016). 
 GPU-Accelerated Sparse Matrix-Matrix Multiplication for
 Linear Scaling Density Functional Theory.
 https://doi.org/10.1002/9781118670712.ch8

 Heinecke, A; Henry, G; Hutchinson, M; Pabst, H. 
 Proceedings of Intl. Supercomputing Conference, 981-991 (2016). 
 LIBXSMM: Accelerating Small Matrix Multiplications
 by Runtime Code Generation.
 https://doi.org/10.1109/SC.2016.83

 Borstnik, U; VandeVondele, J; Weber, V; Hutter, J. 
 PARALLEL COMPUTING, 40 (5-6), 47-58 (2014). 
 Sparse matrix multiplication: The distributed block-compressed sparse
 row library.
 https://doi.org/10.1016/j.parco.2014.03.012

 Hutter, J; Iannuzzi, M; Schiffmann, F; VandeVondele, J. 
 WIREs Comput Mol Sci., 4 (1), 15-25 (2014). 
 CP2K: atomistic simulations of condensed matter systems.
 https://doi.org/10.1002/wcms.1159

 VandeVondele, J; Borstnik, U; Hutter, J. 
 JOURNAL OF CHEMICAL THEORY AND COMPUTATION, 8 (10), 3565-3573 (2012). 
 Linear Scaling Self-Consistent Field Calculations with Millions of Atoms
 in the Condensed Phase.
 https://doi.org/10.1021/ct200897x

 VandeVondele, J; Hutter, J. 
 JOURNAL OF CHEMICAL PHYSICS, 127 (11), 114105 (2007). 
 Gaussian basis sets for accurate calculations on molecular systems in
 gas and condensed phases.
 https://doi.org/10.1063/1.2770708

 Krack, M. 
 THEORETICAL CHEMISTRY ACCOUNTS, 114 (1-3), 145-152 (2005). 
 Pseudopotentials for H to Kr optimized for gradient-corrected
 exchange-correlation functionals.
 https://doi.org/10.1007/s00214-005-0655-y

 VandeVondele, J; Krack, M; Mohamed, F; Parrinello, M; Chassaing, T;
 Hutter, J. COMPUTER PHYSICS COMMUNICATIONS, 167 (2), 103-128 (2005). 
 QUICKSTEP: Fast and accurate density functional calculations using a
 mixed Gaussian and plane waves approach.
 https://doi.org/10.1016/j.cpc.2004.12.014

 Frigo, M; Johnson, SG. 
 PROCEEDINGS OF THE IEEE, 93 (2), 216-231 (2005). 
 The design and implementation of FFTW3.
 https://doi.org/10.1109/JPROC.2004.840301

 Niklasson, AMN; Tymczak, CJ; Challacombe, M. 
 JOURNAL OF CHEMICAL PHYSICS, 118 (19), 8611-8620 (2003). 
 Trace resetting density matrix purification in O(N)
 self-consistent-field theory.
 https://doi.org/10.1063/1.1559913

 Hartwigsen, C; Goedecker, S; Hutter, J. 
 PHYSICAL REVIEW B, 58 (7), 3641-3662 (1998). 
 Relativistic separable dual-space Gaussian pseudopotentials from H to Rn.
 https://doi.org/10.1103/PhysRevB.58.3641

 Lippert, G; Hutter, J; Parrinello, M. 
 MOLECULAR PHYSICS, 92 (3), 477-487 (1997). 
 A hybrid Gaussian and plane wave density functional scheme.
 https://doi.org/10.1080/002689797170220

 Perdew, JP; Burke, K; Ernzerhof, M. 
 PHYSICAL REVIEW LETTERS, 77 (18), 3865-3868 (1996). 
 Generalized gradient approximation made simple.
 https://doi.org/10.1103/PhysRevLett.77.3865

 Goedecker, S; Teter, M; Hutter, J. 
 PHYSICAL REVIEW B, 54 (3), 1703-1710 (1996). 
 Separable dual-space Gaussian pseudopotentials.
 https://doi.org/10.1103/PhysRevB.54.1703


 -------------------------------------------------------------------------------
 -                                                                             -
 -                                T I M I N G                                  -
 -                                                                             -
 -------------------------------------------------------------------------------
 SUBROUTINE                       CALLS  ASD         SELF TIME        TOTAL TIME
                                MAXIMUM       AVERAGE  MAXIMUM  AVERAGE  MAXIMUM
 CP2K                                 1  1.0    0.017    0.017   76.362   76.362
 qs_energies                          1  2.0    0.000    0.000   75.729   75.729
 ls_scf                               1  3.0    0.000    0.000   75.555   75.555
 ls_scf_main                          7  4.0    0.002    0.002   49.539   49.539
 ls_scf_dm_to_ks                     14  5.0    0.001    0.001   49.318   49.318
 qs_ks_update_qs_env                 15  6.0    0.000    0.000   40.708   40.708
 rebuild_ks_matrix                   15  7.0    0.000    0.000   40.707   40.707
 qs_ks_build_kohn_sham_matrix        15  8.0    0.006    0.006   40.706   40.706
 qs_vxc_create                       15  9.0    0.001    0.001   23.862   23.862
 xc_vxc_pw_create                    15 10.0    0.420    0.420   23.862   23.862
 pao_update                           7  4.0    0.020    0.020   21.349   21.349
 pw_transfer                        286 11.1    0.039    0.039   20.676   20.676
 fft_wrap_pw1pw2                    256 12.3    0.006    0.006   20.132   20.132
 fft_wrap_pw1pw2_200                166 13.7    2.117    2.117   19.464   19.464
 pao_calc_energy                    888  5.0    0.007    0.007   19.344   19.344
 dbcsr_multiply_generic           47574  8.4    0.970    0.970   15.221   15.221
 xc_pw_derive                        90 12.0    0.002    0.002   13.763   13.763
 sum_up_and_integrate                15  9.0    0.389    0.389   13.410   13.410
 xc_rho_set_and_dset_create          15 11.0    0.550    0.550   13.324   13.324
 qs_rho_update_rho_low               15  6.0    0.000    0.000   13.143   13.143
 calculate_rho_elec                  15  7.0    0.075    0.075   13.143   13.143
 integrate_v_rspace                  15 10.0    0.002    0.002   13.020   13.020
 grid_integrate_task_list            15 11.0   10.053   10.053   10.053   10.053
 pao_dm_trs4                        888  6.0    0.007    0.007    9.842    9.842
 xc_pw_divergence                    15 11.0    0.001    0.001    9.816    9.816
 density_matrix_trs4                902  7.0    0.377    0.377    9.481    9.481
 ls_scf_init_matrix_S               895  7.0    0.007    0.007    9.458    9.458
 pao_rebuild_S                      888  6.0    0.003    0.003    9.359    9.359
 fft3d_s                            257 14.2    8.877    8.877    8.928    8.928
 grid_collocate_task_list            15  8.0    8.862    8.862    8.862    8.862
 matrix_sqrt_Newton_Schulz          895  8.0    0.246    0.246    8.444    8.444
 multiply_cannon                  47574  9.4    2.427    2.427    5.766    5.766
 make_m2s                         95148  9.4    0.360    0.360    5.607    5.607
 xc_functional_eval                  15 12.0    0.000    0.000    5.296    5.296
 pbe_lda_eval                        15 13.0    5.295    5.295    5.295    5.295
 make_images                      95148 10.4    1.314    1.314    4.939    4.939
 pao_guess_initial_P                  1  4.0    0.000    0.000    4.548    4.548
 pao_read_preopt_dm                   1  5.0    0.000    0.000    4.548    4.548
 pw_gather_s                        121 13.8    4.499    4.499    4.499    4.499
 pw_scatter_s                       135 14.7    4.499    4.499    4.499    4.499
 density_rs2pw                       15  8.0    0.002    0.002    4.206    4.206
 arnoldi_extremal                  1797  8.5    0.008    0.008    3.083    3.083
 arnoldi_normal_ev                 1797  9.5    0.024    0.024    3.075    3.075
 potential_pw2rs                     15 11.0    0.007    0.007    2.965    2.965
 pw_derive                           90 13.0    2.790    2.790    2.790    2.790
 build_subspace                    1797 10.5    0.124    0.124    2.461    2.461
 dbcsr_matrix_vector_mult         43018 11.5    0.254    0.254    2.266    2.266
 pw_copy                            180 11.8    2.066    2.066    2.066    2.066
 pao_calc_AB                       1169  5.8    0.002    0.002    2.012    2.012
 pao_calc_AB_equi                  1169  6.8    0.056    0.056    2.010    2.010
 pao_calc_grad_lnv_wrt_AB           280  7.0    0.029    0.029    1.814    1.814
 dbcsr_finalize                  113755  9.6    0.343    0.343    1.712    1.712
 dbcsr_create_new                365321 10.7    1.032    1.032    1.674    1.674
 -------------------------------------------------------------------------------

 The number of warnings for this run is : 0
 
 -------------------------------------------------------------------------------
  **** **** ******  **  PROGRAM ENDED AT                 2023-02-01 10:49:12.309
 ***** ** ***  *** **   PROGRAM RAN ON                                    moritz
 **    ****   ******    PROGRAM RAN BY                                       ole
 ***** **    ** ** **   PROGRAM PROCESS ID                                148809
  **** **  *******  **  PROGRAM STOPPED IN /home/ole/git/pao_ml_equivar/2H2O_MD/
                                           frame_1750
