       6
 i =      875, time =      175.000, E =       -34.4488112028
  O         2.4400564519        4.2248806363        3.4978698339
  H         1.8035946911        4.2810711547        4.2458283896
  H         2.0108196063        3.5603407980        2.9049743201
  O         5.4181091852        4.2319735802        4.5258673410
  H         4.9489272071        3.6661082664        5.1564398017
  H         4.6862829330        4.4757264307        3.9098036451
