 DBCSR| CPU Multiplication driver                                           XSMM (U)
 DBCSR| Multrec recursion limit                                              512 (U)
 DBCSR| Multiplication stack size                                           1000 (D)
 DBCSR| Maximum elements for images                                    UNLIMITED (U)
 DBCSR| Multiplicative factor virtual images                                   1 (U)
 DBCSR| Use multiplication densification                                       T (D)
 DBCSR| Multiplication size stacks                                             3 (U)
 DBCSR| Use memory pool for CPU allocation                                     F (U)
 DBCSR| Number of 3D layers                                               SINGLE (U)
 DBCSR| Use MPI memory allocation                                              F (U)
 DBCSR| Use RMA algorithm                                                      F (U)
 DBCSR| Use Communication thread                                               T (U)
 DBCSR| Communication thread load                                             87 (D)
 DBCSR| MPI: My process id                                                     0
 DBCSR| MPI: Number of processes                                              32
 DBCSR| OMP: Current number of threads                                         1
 DBCSR| OMP: Max number of threads                                             1
 DBCSR| Split modifier for TAS multiplication algorithm                  1.0E+00 (U)


  **** **** ******  **  PROGRAM STARTED AT               2024-09-23 17:48:00.641
 ***** ** ***  *** **   PROGRAM STARTED ON                                moritz
 **    ****   ******    PROGRAM STARTED BY                                   ole
 ***** **    ** ** **   PROGRAM PROCESS ID                                159807
  **** **  *******  **  PROGRAM STARTED IN /home/ole/git/pao_ml_equivar/64H2O_MD
                                           /Frame5200

 CP2K| version string:                 CP2K version 2024.3 (Development Version)
 CP2K| source code revision number:                                  git:3f890bb
 CP2K| cp2kflags: omp libint fftw3 libxc libgrpp pexsi elpa parallel scalapack c
 CP2K|            osma quip deepmd xsmm plumed2 spglib libdftd4 sirius libvori l
 CP2K|            libbqb libvdwxc hdf5
 CP2K| is freely available from                            https://www.cp2k.org/
 CP2K| Program compiled at                          Mo 23 Sep 2024 17:17:04 CEST
 CP2K| Program compiled on                                                moritz
 CP2K| Program compiled for                                                local
 CP2K| Data directory path                               /home/ole/git/cp2k/data
 CP2K| Input file name                                             64H2O_ref.inp

 GLOBAL| Force Environment number                                              1
 GLOBAL| Basis set file name                                        BASIS_MOLOPT
 GLOBAL| Potential file name                                      GTH_POTENTIALS
 GLOBAL| MM Potential file name                                     MM_POTENTIAL
 GLOBAL| Coordinate file name                                         coords.xyz
 GLOBAL| Method name                                                        CP2K
 GLOBAL| Project name                                                  64H2O_ref
 GLOBAL| Run type                                                         ENERGY
 GLOBAL| FFT library                                                       FFTW3
 GLOBAL| Diagonalization library                                            ELPA
 GLOBAL| DGEMM library                                                      BLAS
 GLOBAL| Minimum number of eigenvectors for ELPA usage                        16
 GLOBAL| Orthonormality check for eigenvectors                          DISABLED
 GLOBAL| Matrix multiplication library                                     COSMA
 GLOBAL| All-to-all communication in single precision                          F
 GLOBAL| FFTs using library dependent lengths                                  F
 GLOBAL| Grid backend                                                       AUTO
 GLOBAL| Global print level                                                  LOW
 GLOBAL| MPI I/O enabled                                                       T
 GLOBAL| Total number of message passing processes                            32
 GLOBAL| Number of threads for this process                                    1
 GLOBAL| This output is from process                                           0
 GLOBAL| Stack size for threads created by OpenMP (OMP_STACKSIZE)        default
 GLOBAL| CPU model name           AMD Ryzen Threadripper 3970X 32-Core Processor
 GLOBAL| CPUID                                                              1002

 MEMORY| system memory details [Kb]
 MEMORY|                        rank 0           min           max       average
 MEMORY| MemTotal            131752136     131752136     131752136     131752136
 MEMORY| MemFree             117856812     117856812     117856812     117856812
 MEMORY| Buffers                260684        260684        260684        260684
 MEMORY| Cached                7598324       7598324       7598324       7598324
 MEMORY| Slab                   725532        725532        725532        725532
 MEMORY| SReclaimable           285176        285176        285176        285176
 MEMORY| MemLikelyFree       126000996     126000996     126000996     126000996


 GENERATE|  Preliminary Number of Bonds generated:                             0
 GENERATE|  Achieved consistency in connectivity generation.

 *******************************************************************************
 *******************************************************************************
 **                                                                           **
 **     #####                         ##              ##                      **
 **    ##   ##            ##          ##              ##                      **
 **   ##     ##                       ##            ######                    **
 **   ##     ##  ##   ##  ##   #####  ##  ##   ####   ##    #####    #####    **
 **   ##     ##  ##   ##  ##  ##      ## ##   ##      ##   ##   ##  ##   ##   **
 **   ##  ## ##  ##   ##  ##  ##      ####     ###    ##   ######   ######    **
 **    ##  ###   ##   ##  ##  ##      ## ##      ##   ##   ##       ##        **
 **     #######   #####   ##   #####  ##  ##  ####    ##    #####   ##        **
 **           ##                                                    ##        **
 **                                                                           **
 **                                                ... make the atoms dance   **
 **                                                                           **
 **            Copyright (C) by CP2K developers group (2000-2024)             **
 **                      J. Chem. Phys. 152, 194103 (2020)                    **
 **                                                                           **
 *******************************************************************************


 TOTAL NUMBERS AND MAXIMUM NUMBERS

  Total number of            - Atomic kinds:                                   2
                             - Atoms:                                        192
                             - Shell sets:                                   192
                             - Shells:                                       704
                             - Primitive Cartesian functions:               1344
                             - Cartesian basis functions:                   1536
                             - Spherical basis functions:                   1472

  Maximum angular momentum of- Orbital basis functions:                        2
                             - Local part of the GTH pseudopotential:          2
                             - Non-local part of the GTH pseudopotential:      0

 ------------------------------ Linear scaling SCF -----------------------------
 eps_scf:                                                              0.100E-07
 eps_filter:                                                           0.100E-11
 mixing_fraction:                                                      0.450E+00
 max_scf:                                                                     25
 fixed chemical potential (mu)                                                 F
 has unit metric:                                                              F
 Computing inv(S):                                                             T
 Computing sqrt(S):                                                            T
 Computing S preconditioner                                                    F
 S sqrt method:                                                     NEWTONSCHULZ
 S sqrt order:                                                                 3
 Extrapolation order:                                                          1
 S preconditioner type                                                      NONE
 Polarized Atomic Orbitals (PAO)                                               F
 Purification method                                   Trace resetting 4th order
 Cluster type                                                             ATOMIC
 Computing Chebyshev                                                       FALSE
 Using PAO                                                                     F
 -------------------------------------------------------------------------------


     Lanczos converged:  F threshold:   0.100E-02
     Est. extremal eigenvalues:    0.858E+01   0.567E-02
     Est. condition number :    0.151E+04

 Order=           3
     NS sqrt iter    1 1.00000000   0.221E+01       0.064     6260.502
     NS sqrt iter    2 1.00000000   0.116E+01       0.099     8074.131
     NS sqrt iter    3 1.00000000   0.577E+00       0.098     8124.866
     NS sqrt iter    4 1.00000000   0.333E+00       0.097     8249.553
     NS sqrt iter    5 1.00000000   0.225E+00       0.098     8132.996
     NS sqrt iter    6 1.00000000   0.104E+00       0.099     8094.010
     NS sqrt iter    7 1.00000000   0.127E-01       0.097     8207.989
     NS sqrt iter    8 1.00000000   0.603E-04       0.097     8186.898
     NS sqrt iter    9 1.00000000   0.251E-10       0.058     5854.852
     Symmetrizing Results
     Final NS sqrt iter    9 1.00000000   0.754E-11



 Guess for atomic kind: O

 Electronic structure
    Total number of core electrons                                          2.00
    Total number of valence electrons                                       6.00
    Total number of electrons                                               8.00
    Multiplicity                                                   not specified
    S   [  2.00] 2.00
    P      4.00


 *******************************************************************************
                  Iteration          Convergence                     Energy [au]
 *******************************************************************************
                          1        0.708315                     -15.576645311500
                          2        0.608879                     -15.587933561584
                          3        0.102828E-01                 -15.656849565404
                          4        0.113889E-02                 -15.656866888140
                          5        0.434197E-03                 -15.656867072159
                          6        0.263771E-03                 -15.656867091904
                          7        0.478536E-06                 -15.656867103452

 Energy components [Hartree]           Total Energy ::          -15.656867103452
                                        Band Energy ::           -3.000198112285
                                     Kinetic Energy ::           11.759971203220
                                   Potential Energy ::          -27.416838306672
                                      Virial (-V/T) ::            2.331369510426
                                        Core Energy ::          -26.140716385623
                                          XC Energy ::           -3.154051012914
                                     Coulomb Energy ::           13.637900295084
                       Total Pseudopotential Energy ::          -37.935781716540
                       Local Pseudopotential Energy ::          -39.218907440693
                    Nonlocal Pseudopotential Energy ::            1.283125724153
                                        Confinement ::            0.350941276976

 Orbital energies  State     L     Occupation   Energy[a.u.]          Energy[eV]

                       1     0          2.000      -0.864471          -23.523463

                       1     1          4.000      -0.317814           -8.648154


 Total Electron Density at R=0:                                         0.000068

 Guess for atomic kind: H

 Electronic structure
    Total number of core electrons                                          0.00
    Total number of valence electrons                                       1.00
    Total number of electrons                                               1.00
    Multiplicity                                                   not specified
    S      1.00


 *******************************************************************************
                  Iteration          Convergence                     Energy [au]
 *******************************************************************************
                          1        0.437545E-02                  -0.424159432110
                          2        0.531356E-03                  -0.424178438213
                          3        0.259176E-06                  -0.424178722480

 Energy components [Hartree]           Total Energy ::           -0.424178722480
                                        Band Energy ::           -0.199015229016
                                     Kinetic Energy ::            0.464007633961
                                   Potential Energy ::           -0.888186356441
                                      Virial (-V/T) ::            1.914163240935
                                        Core Energy ::           -0.479160803564
                                          XC Energy ::           -0.244352904054
                                     Coulomb Energy ::            0.299334985138
                       Total Pseudopotential Energy ::           -0.962295316385
                       Local Pseudopotential Energy ::           -0.962295316385
                    Nonlocal Pseudopotential Energy ::            0.000000000000
                                        Confinement ::            0.191268788606

 Orbital energies  State     L     Occupation   Energy[a.u.]          Energy[eV]

                       1     0          1.000      -0.199015           -5.415480


 Total Electron Density at R=0:                                         0.242907
 Re-scaling the density matrix to get the right number of electrons
                  # Electrons              Trace(P)               Scaling factor
                          512               512.001                        1.000
 Energy with the initial guess:     -1095.762914728

     Est. extremal eigenvalues     -0.94366     5.28003  converged:  T
     TRS4 it   1 1.00000000   0.565E+02       0.019     5403.226   0.100E-11
     TRS4 it   2 1.00000000   0.542E+02       0.019     5412.330   0.100E-11
     TRS4 it   3 1.00000000   0.341E+02       0.036     5544.220   0.100E-11
     TRS4 it   4 1.00000000   0.177E+02       0.036     5602.174   0.100E-11
     TRS4 it   5 1.00000000   0.107E+02       0.036     5635.410   0.100E-11
     TRS4 it   6 1.00000000   0.483E+01       0.036     5596.847   0.100E-11
     TRS4 it   7 1.00000000   0.143E+01       0.035     5707.501   0.100E-11
     TRS4 it   8 1.00000000   0.216E+00       0.036     5516.036   0.100E-11
     TRS4 it   9 1.00000000   0.912E-02       0.035     5682.820   0.100E-11
     TRS4 it  10 1.00000000   0.247E-04       0.036     5532.444   0.100E-11
     TRS4 it  11 1.00000000   0.633E-10       0.036     5581.764   0.100E-11
     Final TRS4 iteration   11 1.00000000   0.633E-10
     Chemical potential (mu):      -0.10627

 SCF     1     -1097.946598770     -1097.946598770    2.051563

*********************************************************
 Using MIXING_FRACTION=0.450 to mix KS matrix:  iscf=  2
 KS_nw=0.450*KS + 0.550*KS_old
*********************************************************
     Est. extremal eigenvalues     -0.83294     5.37419  converged:  T
     TRS4 it   1 1.00000000   0.558E+02       0.018     5438.449   0.100E-11
     TRS4 it   2 1.00000000   0.544E+02       0.018     5675.607   0.100E-11
     TRS4 it   3 1.00000000   0.354E+02       0.036     5538.550   0.100E-11
     TRS4 it   4 1.00000000   0.184E+02       0.036     5540.799   0.100E-11
     TRS4 it   5 1.00000000   0.119E+02       0.036     5601.702   0.100E-11
     TRS4 it   6 1.00000000   0.620E+01       0.035     5683.593   0.100E-11
     TRS4 it   7 1.00000000   0.247E+01       0.036     5514.567   0.100E-11
     TRS4 it   8 1.00000000   0.679E+00       0.036     5630.858   0.100E-11
     TRS4 it   9 1.00000000   0.994E-01       0.036     5539.474   0.100E-11
     TRS4 it  10 1.00000000   0.497E-02       0.035     5671.369   0.100E-11
     TRS4 it  11 1.00000000   0.671E-05       0.036     5576.060   0.100E-11
     TRS4 it  12 1.00000000   0.104E-10       0.036     5646.241   0.100E-11
     Final TRS4 iteration   12 1.00000000   0.104E-10
     Chemical potential (mu):      -0.01784

 SCF     2     -1102.985679866        -5.039081096    2.077184

*********************************************************
 Using MIXING_FRACTION=0.450 to mix KS matrix:  iscf=  3
 KS_nw=0.450*KS + 0.550*KS_old
*********************************************************
     Est. extremal eigenvalues     -0.84083     5.36808  converged:  T
     TRS4 it   1 1.00000000   0.558E+02       0.019     5417.292   0.100E-11
     TRS4 it   2 1.00000000   0.544E+02       0.018     5486.700   0.100E-11
     TRS4 it   3 1.00000000   0.353E+02       0.036     5624.196   0.100E-11
     TRS4 it   4 1.00000000   0.183E+02       0.036     5558.688   0.100E-11
     TRS4 it   5 1.00000000   0.117E+02       0.036     5619.225   0.100E-11
     TRS4 it   6 1.00000000   0.597E+01       0.036     5533.245   0.100E-11
     TRS4 it   7 1.00000000   0.229E+01       0.036     5567.621   0.100E-11
     TRS4 it   8 1.00000000   0.587E+00       0.036     5620.068   0.100E-11
     TRS4 it   9 1.00000000   0.743E-01       0.035     5717.350   0.100E-11
     TRS4 it  10 1.00000000   0.255E-02       0.036     5588.238   0.100E-11
     TRS4 it  11 1.00000000   0.140E-05       0.036     5613.032   0.100E-11
     TRS4 it  12 1.00000000   0.329E-12       0.035     5657.238   0.100E-11
     Final TRS4 iteration   12 1.00000000   0.329E-12
     Chemical potential (mu):      -0.02731

 SCF     3     -1103.146179712        -0.160499846    2.075260

*********************************************************
 Using MIXING_FRACTION=0.450 to mix KS matrix:  iscf=  4
 KS_nw=0.450*KS + 0.550*KS_old
*********************************************************
     Est. extremal eigenvalues     -0.83694     5.37247  converged:  T
     TRS4 it   1 1.00000000   0.558E+02       0.019     5397.949   0.100E-11
     TRS4 it   2 1.00000000   0.544E+02       0.019     5401.573   0.100E-11
     TRS4 it   3 1.00000000   0.353E+02       0.036     5630.648   0.100E-11
     TRS4 it   4 1.00000000   0.183E+02       0.036     5630.131   0.100E-11
     TRS4 it   5 1.00000000   0.118E+02       0.036     5545.627   0.100E-11
     TRS4 it   6 1.00000000   0.606E+01       0.036     5612.882   0.100E-11
     TRS4 it   7 1.00000000   0.236E+01       0.036     5631.634   0.100E-11
     TRS4 it   8 1.00000000   0.623E+00       0.036     5608.283   0.100E-11
     TRS4 it   9 1.00000000   0.844E-01       0.036     5600.039   0.100E-11
     TRS4 it  10 1.00000000   0.344E-02       0.036     5554.123   0.100E-11
     TRS4 it  11 1.00000000   0.312E-05       0.036     5606.893   0.100E-11
     TRS4 it  12 1.00000000   0.206E-11       0.036     5586.626   0.100E-11
     Final TRS4 iteration   12 1.00000000   0.206E-11
     Chemical potential (mu):      -0.02094

 SCF     4     -1103.154359290        -0.008179578    2.066619

*********************************************************
 Using MIXING_FRACTION=0.450 to mix KS matrix:  iscf=  5
 KS_nw=0.450*KS + 0.550*KS_old
*********************************************************
     Est. extremal eigenvalues     -0.83573     5.37360  converged:  T
     TRS4 it   1 1.00000000   0.558E+02       0.019     5393.590   0.100E-11
     TRS4 it   2 1.00000000   0.544E+02       0.019     5419.859   0.100E-11
     TRS4 it   3 1.00000000   0.353E+02       0.036     5606.529   0.100E-11
     TRS4 it   4 1.00000000   0.183E+02       0.035     5669.516   0.100E-11
     TRS4 it   5 1.00000000   0.118E+02       0.035     5702.342   0.100E-11
     TRS4 it   6 1.00000000   0.605E+01       0.036     5614.264   0.100E-11
     TRS4 it   7 1.00000000   0.236E+01       0.035     5663.250   0.100E-11
     TRS4 it   8 1.00000000   0.622E+00       0.036     5607.717   0.100E-11
     TRS4 it   9 1.00000000   0.840E-01       0.036     5638.151   0.100E-11
     TRS4 it  10 1.00000000   0.340E-02       0.036     5638.977   0.100E-11
     TRS4 it  11 1.00000000   0.300E-05       0.036     5641.596   0.100E-11
     TRS4 it  12 1.00000000   0.191E-11       0.035     5665.079   0.100E-11
     Final TRS4 iteration   12 1.00000000   0.191E-11
     Chemical potential (mu):      -0.02022

 SCF     5     -1103.155001152        -0.000641862    2.062592

*********************************************************
 Using MIXING_FRACTION=0.450 to mix KS matrix:  iscf=  6
 KS_nw=0.450*KS + 0.550*KS_old
*********************************************************
     Est. extremal eigenvalues     -0.83504     5.37425  converged:  T
     TRS4 it   1 1.00000000   0.558E+02       0.019     5364.876   0.100E-11
     TRS4 it   2 1.00000000   0.544E+02       0.019     5350.852   0.100E-11
     TRS4 it   3 1.00000000   0.353E+02       0.036     5545.443   0.100E-11
     TRS4 it   4 1.00000000   0.183E+02       0.035     5658.129   0.100E-11
     TRS4 it   5 1.00000000   0.118E+02       0.035     5674.920   0.100E-11
     TRS4 it   6 1.00000000   0.606E+01       0.036     5622.026   0.100E-11
     TRS4 it   7 1.00000000   0.236E+01       0.035     5669.793   0.100E-11
     TRS4 it   8 1.00000000   0.626E+00       0.036     5631.577   0.100E-11
     TRS4 it   9 1.00000000   0.852E-01       0.035     5703.809   0.100E-11
     TRS4 it  10 1.00000000   0.352E-02       0.035     5779.546   0.100E-11
     TRS4 it  11 1.00000000   0.332E-05       0.036     5629.937   0.100E-11
     TRS4 it  12 1.00000000   0.246E-11       0.035     5702.002   0.100E-11
     Final TRS4 iteration   12 1.00000000   0.246E-11
     Chemical potential (mu):      -0.01922

 SCF     6     -1103.155094218        -0.000093066    2.061647

*********************************************************
 Using MIXING_FRACTION=0.450 to mix KS matrix:  iscf=  7
 KS_nw=0.450*KS + 0.550*KS_old
*********************************************************
     Est. extremal eigenvalues     -0.83463     5.37458  converged:  T
     TRS4 it   1 1.00000000   0.558E+02       0.019     5371.451   0.100E-11
     TRS4 it   2 1.00000000   0.544E+02       0.018     5433.359   0.100E-11
     TRS4 it   3 1.00000000   0.353E+02       0.037     5486.302   0.100E-11
     TRS4 it   4 1.00000000   0.183E+02       0.036     5602.977   0.100E-11
     TRS4 it   5 1.00000000   0.118E+02       0.035     5693.323   0.100E-11
     TRS4 it   6 1.00000000   0.606E+01       0.036     5630.263   0.100E-11
     TRS4 it   7 1.00000000   0.236E+01       0.036     5590.830   0.100E-11
     TRS4 it   8 1.00000000   0.627E+00       0.036     5647.799   0.100E-11
     TRS4 it   9 1.00000000   0.855E-01       0.036     5572.953   0.100E-11
     TRS4 it  10 1.00000000   0.354E-02       0.036     5592.650   0.100E-11
     TRS4 it  11 1.00000000   0.338E-05       0.036     5561.807   0.100E-11
     TRS4 it  12 1.00000000   0.260E-11       0.036     5625.235   0.100E-11
     Final TRS4 iteration   12 1.00000000   0.260E-11
     Chemical potential (mu):      -0.01886

 SCF     7     -1103.155113816        -0.000019598    2.064257

*********************************************************
 Using MIXING_FRACTION=0.450 to mix KS matrix:  iscf=  8
 KS_nw=0.450*KS + 0.550*KS_old
*********************************************************
     Est. extremal eigenvalues     -0.83443     5.37474  converged:  T
     TRS4 it   1 1.00000000   0.558E+02       0.019     5355.968   0.100E-11
     TRS4 it   2 1.00000000   0.544E+02       0.018     5480.909   0.100E-11
     TRS4 it   3 1.00000000   0.353E+02       0.036     5577.801   0.100E-11
     TRS4 it   4 1.00000000   0.184E+02       0.036     5613.606   0.100E-11
     TRS4 it   5 1.00000000   0.118E+02       0.036     5643.327   0.100E-11
     TRS4 it   6 1.00000000   0.607E+01       0.036     5568.669   0.100E-11
     TRS4 it   7 1.00000000   0.237E+01       0.035     5703.877   0.100E-11
     TRS4 it   8 1.00000000   0.627E+00       0.036     5644.505   0.100E-11
     TRS4 it   9 1.00000000   0.857E-01       0.036     5609.436   0.100E-11
     TRS4 it  10 1.00000000   0.356E-02       0.036     5565.987   0.100E-11
     TRS4 it  11 1.00000000   0.344E-05       0.036     5555.427   0.100E-11
     TRS4 it  12 1.00000000   0.268E-11       0.036     5640.034   0.100E-11
     Final TRS4 iteration   12 1.00000000   0.268E-11
     Chemical potential (mu):      -0.01864

 SCF     8     -1103.155118587        -0.000004771    2.063314


 SCF run converged in     8 steps.

 Writing restart DM 64H2O_ref_LS_DM_SPIN_1_RESTART.dm with checksum:       0.61276260E+04

 ENERGY| Total FORCE_EVAL ( QS ) energy [a.u.]:            -1103.155118586629214

 -------------------------------------------------------------------------------
 -                                                                             -
 -                                DBCSR STATISTICS                             -
 -                                                                             -
 -------------------------------------------------------------------------------
 COUNTER                                    TOTAL       BLAS       SMM       ACC
 flops     5 x     5 x     5          79269716500       0.0%    100.0%      0.0%     
 flops     5 x    13 x     5         102640560750       0.0%    100.0%      0.0%     
 flops    13 x     5 x     5         102646653200       0.0%    100.0%      0.0%     
 flops     5 x     5 x    13         103153674650       0.0%    100.0%      0.0%     
 flops     5 x    13 x    13         133609135400       0.0%    100.0%      0.0%     
 flops    13 x     5 x    13         133614423410       0.0%    100.0%      0.0%     
 flops    13 x    13 x     5         134763457790       0.0%    100.0%      0.0%     
 flops    13 x    13 x    13         175473959388       0.0%    100.0%      0.0%     
 flops inhomo. stacks                           0       0.0%      0.0%      0.0%
 flops total                       965.171581E+09       0.0%    100.0%      0.0%
 flops max/rank                     30.963790E+09       0.0%    100.0%      0.0%
 matmuls inhomo. stacks                         0       0.0%      0.0%      0.0%
 matmuls total                         1069400352       0.0%    100.0%      0.0%
 number of processed stacks               1514346       0.0%    100.0%      0.0%
 average stack size                                     0.0     706.2       0.0
 marketing flops                     1.569237E+12
 -------------------------------------------------------------------------------
 # multiplications                            246
 max memory usage/rank             620.015616E+06
 # max total images/rank                        2
 # max 3D layers                                1
 # MPI messages exchanged                  102336
 MPI messages size (bytes):
  total size                        42.315178E+09
  min size                           0.000000E+00
  max size                         541.696000E+03
  average size                     413.492594E+03
 MPI breakdown and total messages size (bytes):
             size <=      128                 312                        0
       128 < size <=     8192                  42                   279312
      8192 < size <=    32768                  62                   841968
     32768 < size <=   131072                  42                  5134896
    131072 < size <=  4194304              101878              42308921744
   4194304 < size <= 16777216                   0                        0
  16777216 < size                               0                        0
 -------------------------------------------------------------------------------

 *** WARNING in dbcsr_mm.F:301 :: Using a non-square number of MPI ranks ***
 *** might lead to poor performance. Used ranks: 32 Suggested: 36 64     ***

 -------------------------------------------------------------------------------
 -                                                                             -
 -                      DBCSR MESSAGE PASSING PERFORMANCE                      -
 -                                                                             -
 -------------------------------------------------------------------------------
 ROUTINE             CALLS      AVE VOLUME [Bytes]
 MP_Bcast                9                     12.
 MP_Allreduce         1762                     34.
 MP_Alltoall           546                  34827.
 MP_ISend             8604                 170616.
 MP_IRecv             8238                 178801.
 -------------------------------------------------------------------------------

 -------------------------------------------------------------------------------
 -                                                                             -
 -                                DBM STATISTICS                               -
 -                                                                             -
 -------------------------------------------------------------------------------
    M  x    N  x    K                                          COUNT     PERCENT
 -------------------------------------------------------------------------------

 -------------------------------------------------------------------------------
 -                                                                             -
 -                                GRID STATISTICS                              -
 -                                                                             -
 -------------------------------------------------------------------------------
 LP    KERNEL             BACKEND                              COUNT     PERCENT
 2     collocate ortho    CPU                                7379595      28.84%
 2     integrate ortho    CPU                                7379595      28.84%
 3     collocate ortho    CPU                                4739499      18.52%
 3     integrate ortho    CPU                                4739499      18.52%
 4     collocate ortho    CPU                                 672723       2.63%
 4     integrate ortho    CPU                                 672723       2.63%
 0     collocate general  CPU                                   6144       0.02%
 -------------------------------------------------------------------------------

 MEMORY| Estimated peak process memory [MiB]                                 592

 -------------------------------------------------------------------------------
 -                                                                             -
 -                         MESSAGE PASSING PERFORMANCE                         -
 -                                                                             -
 -------------------------------------------------------------------------------

 ROUTINE             CALLS      AVE VOLUME [Bytes]
 MP_Group                5
 MP_Bcast             2113                 184309.
 MP_Allreduce         5727                    941.
 MP_Sync                 5
 MP_Alltoall           244
 MP_SendRecv           837                  18832.
 MP_ISendRecv          837                  18832.
 MP_Wait              2391
 MP_ISend             1406                 108579.
 MP_IRecv             1406                 108603.
 -------------------------------------------------------------------------------


 -------------------------------------------------------------------------------
 -                                                                             -
 -                           R E F E R E N C E S                               -
 -                                                                             -
 -------------------------------------------------------------------------------
 
 CP2K version 2024.3 (Development Version), the CP2K developers group (2024).
 CP2K is freely available from https://www.cp2k.org/ .
 
 T. D. Kuehne, M. Iannuzzi, M. Del Ben, V. V. Rybkin, P. Seewald, F. Stein, T. 
 Laino, R. Z. Khaliullin, O. Schuett, F. Schiffmann, D. Golze, J. Wilhelm, S. 
 Chulkov, M. H. Bani-Hashemian, V. Weber, U. Borstnik, M. Taillefumier, A. S. 
 Jakobovits, A. Lazzaro, H. Pabst, T. Mueller, R. Schade, M. Guidon, S. 
 Andermatt, N. Holmberg, G. K. Schenter, A. Hehn, A. Bussy, F. Belleflamme, G. 
 Tabacchi, A. Gloess, M. Lass, I. Bethune, C. J. Mundy, C. Plessl, M. Watkins, 
 J. VandeVondele, M. Krack, J. Hutter.
 J. Chem. Phys. 152, 194103 (2020).
 CP2K: An electronic structure and molecular dynamics software package - 
 Quickstep: Efficient and accurate electronic structure calculations.
 https://doi.org/10.1063/5.0007045

 O. Schuett, P. Messmer, J. Hutter, J. VandeVondele.
 Electronic Structure Calculations on Graphics Processing Units, 173-190 (2016).
 GPU-Accelerated Sparse Matrix-Matrix Multiplication for Linear Scaling Density 
 Functional Theory.
 https://doi.org/10.1002/9781118670712.ch8

 A. Heinecke, G. Henry, M. Hutchinson, H. Pabst.
 Proceedings of Intl. Supercomputing Conference, 981-991 (2016).
 LIBXSMM: Accelerating Small Matrix Multiplications by Runtime Code Generation.
 https://doi.org/10.1109/SC.2016.83

 J. Hutter, M. Iannuzzi, F. Schiffmann, J. VandeVondele.
 WIREs Comput Mol Sci. 4, 15-25 (2014).
 CP2K: atomistic simulations of condensed matter systems.
 https://doi.org/10.1002/wcms.1159

 U. Borstnik, J. VandeVondele, V. Weber, J. Hutter.
 Parallel Comput. 40, 47-58 (2014).
 Sparse matrix multiplication: The distributed block-compressed sparse row 
 library.
 https://doi.org/10.1016/j.parco.2014.03.012

 A. Marek, V. Blum, R. Johanni, V. Havu, B. Lang, T. Auckenthaler, A. Heinecke, 
 H. Bungartz, H. Lederer.
 J. Phys. Condens. Matter 26, 213201 (2014).
 The ELPA library: scalable parallel eigenvalue solutions for electronic 
 structure theory and computational science.
 https://doi.org/10.1088/0953-8984/26/21/213201

 J. VandeVondele, U. Borstnik, J. Hutter.
 J. Chem. Theory Comput. 8, 3565-3573 (2012).
 Linear Scaling Self-Consistent Field Calculations with Millions of Atoms in the 
 Condensed Phase.
 https://doi.org/10.1021/ct200897x

 J. VandeVondele, J. Hutter.
 J. Chem. Phys. 127, 114105 (2007).
 Gaussian basis sets for accurate calculations on molecular systems in gas and 
 condensed phases.
 https://doi.org/10.1063/1.2770708

 J. VandeVondele, M. Krack, F. Mohamed, M. Parrinello, T. Chassaing, J. Hutter.
 Comput. Phys. Commun. 167, 103-128 (2005).
 QUICKSTEP: Fast and accurate density functional calculations using a mixed 
 Gaussian and plane waves approach.
 https://doi.org/10.1016/j.cpc.2004.12.014

 M. Krack.
 Theor. Chem. Acc. 114, 145-152 (2005).
 Pseudopotentials for H to Kr optimized for gradient-corrected 
 exchange-correlation functionals.
 https://doi.org/10.1007/s00214-005-0655-y

 M. Frigo, S. G. Johnson.
 Proc. IEEE 93, 216-231 (2005).
 The design and implementation of FFTW3.
 https://doi.org/10.1109/JPROC.2004.840301

 A. M. N. Niklasson, C. J. Tymczak, M. Challacombe.
 J. Chem. Phys. 118, 8611-8620 (2003).
 Trace resetting density matrix purification in O(N) self-consistent-field 
 theory.
 https://doi.org/10.1063/1.1559913

 C. Hartwigsen, S. Goedecker, J. Hutter.
 Phys. Rev. B 58, 3641-3662 (1998).
 Relativistic separable dual-space Gaussian pseudopotentials from H to Rn.
 https://doi.org/10.1103/PhysRevB.58.3641

 G. Lippert, J. Hutter, M. Parrinello.
 Mol. Phys. 92, 477-487 (1997).
 A hybrid Gaussian and plane wave density functional scheme.
 https://doi.org/10.1080/002689797170220

 S. Goedecker, M. Teter, J. Hutter.
 Phys. Rev. B 54, 1703-1710 (1996).
 Separable dual-space Gaussian pseudopotentials.
 https://doi.org/10.1103/PhysRevB.54.1703

 J. P. Perdew, K. Burke, M. Ernzerhof.
 Phys. Rev. Lett. 77, 3865-3868 (1996).
 Generalized gradient approximation made simple.
 https://doi.org/10.1103/PhysRevLett.77.3865


 -------------------------------------------------------------------------------
 -                                                                             -
 -                                T I M I N G                                  -
 -                                                                             -
 -------------------------------------------------------------------------------
 SUBROUTINE                       CALLS  ASD         SELF TIME        TOTAL TIME
                                MAXIMUM       AVERAGE  MAXIMUM  AVERAGE  MAXIMUM
 CP2K                                 1  1.0    0.013    0.017   20.278   20.278
 qs_energies                          1  2.0    0.000    0.000   20.122   20.122
 ls_scf                               1  3.0    0.000    0.000   19.049   19.050
 ls_scf_main                          1  4.0    0.000    0.000   16.523   16.523
 ls_scf_dm_to_ks                      8  5.0    0.000    0.000   12.353   12.360
 qs_ks_update_qs_env                  9  6.1    0.000    0.000    7.790    7.792
 rebuild_ks_matrix                    9  7.1    0.000    0.000    7.784    7.786
 qs_ks_build_kohn_sham_matrix         9  8.1    0.002    0.002    7.784    7.786
 qs_rho_update_rho_low                9  6.1    0.000    0.000    6.112    6.119
 calculate_rho_elec                   9  7.1    0.003    0.003    6.112    6.119
 sum_up_and_integrate                 9  9.1    0.000    0.000    5.881    5.883
 integrate_v_rspace                   9 10.1    0.000    0.000    5.872    5.875
 grid_collocate_task_list             9  8.1    5.433    5.535    5.433    5.535
 grid_integrate_task_list             9 11.1    5.195    5.271    5.195    5.271
 dbcsr_multiply_generic             246  6.2    0.012    0.013    4.592    4.600
 density_matrix_trs4                  8  5.0    0.004    0.006    4.164    4.169
 multiply_cannon                    246  7.2    0.018    0.023    3.715    3.842
 multiply_cannon_loop               246  8.2    0.019    0.021    3.640    3.718
 ls_scf_init_scf                      1  4.0    0.000    0.000    2.463    2.464
 multiply_cannon_multrec           1968  9.2    2.097    2.144    2.104    2.150
 fft_wrap_pw1pw2                    172 11.3    0.003    0.003    1.764    1.791
 mp_waitall_1                     16729 10.5    1.675    1.775    1.675    1.775
 fft_wrap_pw1pw2_200                100 12.8    0.103    0.112    1.692    1.738
 qs_vxc_create                        9  9.1    0.000    0.000    1.554    1.581
 xc_vxc_pw_create                     9 10.1    0.013    0.018    1.554    1.581
 ls_scf_initial_guess                 1  5.0    0.000    0.000    1.554    1.555
 ls_scf_qs_atomic_guess               1  6.0    0.000    0.000    1.554    1.555
 multiply_cannon_metrocomm3        1968  9.2    0.005    0.006    1.295    1.420
 fft3d_ps                           172 13.3    0.720    0.807    1.322    1.355
 xc_pw_derive                        54 12.1    0.001    0.001    1.103    1.184
 qs_energies_init_hamiltonians        1  3.0    0.000    0.000    1.072    1.072
 ls_scf_init_matrix_S                 1  5.0    0.000    0.000    0.909    0.911
 matrix_sqrt_Newton_Schulz            1  6.0    0.001    0.001    0.887    0.887
 build_core_hamiltonian_matrix        1  4.0    0.000    0.000    0.715    0.885
 xc_rho_set_and_dset_create           9 11.1    0.019    0.025    0.786    0.808
 xc_pw_divergence                     9 11.1    0.000    0.000    0.736    0.775
 density_rs2pw                        9  8.1    0.000    0.001    0.646    0.728
 make_m2s                           492  7.2    0.005    0.007    0.681    0.693
 make_images                        492  8.2    0.039    0.040    0.670    0.684
 build_core_ppl                       1  5.0    0.489    0.634    0.489    0.634
 mp_waitany                        1406 12.5    0.521    0.623    0.521    0.623
 mp_alltoall_z22v                   172 15.3    0.426    0.600    0.426    0.600
 potential_pw2rs                      9 11.1    0.000    0.001    0.595    0.597
 transfer_rs2pw                      46  9.0    0.001    0.001    0.451    0.552
 transfer_rs2pw_200                  10  9.8    0.029    0.038    0.349    0.447
 qs_env_update_s_mstruct              1  4.0    0.000    0.000    0.338    0.414
 -------------------------------------------------------------------------------

 The number of warnings for this run is : 1
 
 -------------------------------------------------------------------------------
  **** **** ******  **  PROGRAM ENDED AT                 2024-09-23 17:48:21.465
 ***** ** ***  *** **   PROGRAM RAN ON                                    moritz
 **    ****   ******    PROGRAM RAN BY                                       ole
 ***** **    ** ** **   PROGRAM PROCESS ID                                159807
  **** **  *******  **  PROGRAM STOPPED IN /home/ole/git/pao_ml_equivar/64H2O_MD
                                           /Frame5200
