 DBCSR| CPU Multiplication driver                                           XSMM (U)
 DBCSR| Multrec recursion limit                                              512 (U)
 DBCSR| Multiplication stack size                                           1000 (D)
 DBCSR| Maximum elements for images                                    UNLIMITED (U)
 DBCSR| Multiplicative factor virtual images                                   1 (U)
 DBCSR| Use multiplication densification                                       T (D)
 DBCSR| Multiplication size stacks                                             3 (U)
 DBCSR| Use memory pool for CPU allocation                                     F (U)
 DBCSR| Number of 3D layers                                               SINGLE (U)
 DBCSR| Use MPI memory allocation                                              F (U)
 DBCSR| Use RMA algorithm                                                      F (U)
 DBCSR| Use Communication thread                                               T (U)
 DBCSR| Communication thread load                                             87 (D)
 DBCSR| MPI: My process id                                                     0
 DBCSR| MPI: Number of processes                                              32
 DBCSR| OMP: Current number of threads                                         1
 DBCSR| OMP: Max number of threads                                             1
 DBCSR| Split modifier for TAS multiplication algorithm                  1.0E+00 (U)


  **** **** ******  **  PROGRAM STARTED AT               2024-09-24 04:43:40.341
 ***** ** ***  *** **   PROGRAM STARTED ON                                moritz
 **    ****   ******    PROGRAM STARTED BY                                   ole
 ***** **    ** ** **   PROGRAM PROCESS ID                                168838
  **** **  *******  **  PROGRAM STARTED IN /home/ole/git/pao_ml_equivar/64H2O_MD
                                           /Frame5200

 CP2K| version string:                 CP2K version 2024.3 (Development Version)
 CP2K| source code revision number:                                  git:3f890bb
 CP2K| cp2kflags: omp libint fftw3 libxc libgrpp pexsi elpa parallel scalapack c
 CP2K|            osma quip deepmd xsmm plumed2 spglib libdftd4 sirius libvori l
 CP2K|            libbqb libvdwxc hdf5
 CP2K| is freely available from                            https://www.cp2k.org/
 CP2K| Program compiled at                          Mo 23 Sep 2024 17:17:04 CEST
 CP2K| Program compiled on                                                moritz
 CP2K| Program compiled for                                                local
 CP2K| Data directory path                               /home/ole/git/cp2k/data
 CP2K| Input file name                                           64H2O_pao44.inp

 GLOBAL| Force Environment number                                              1
 GLOBAL| Basis set file name                                        BASIS_MOLOPT
 GLOBAL| Potential file name                                      GTH_POTENTIALS
 GLOBAL| MM Potential file name                                     MM_POTENTIAL
 GLOBAL| Coordinate file name                                         coords.xyz
 GLOBAL| Method name                                                        CP2K
 GLOBAL| Project name                                                64H2O_pao44
 GLOBAL| Run type                                                         ENERGY
 GLOBAL| FFT library                                                       FFTW3
 GLOBAL| Diagonalization library                                            ELPA
 GLOBAL| DGEMM library                                                      BLAS
 GLOBAL| Minimum number of eigenvectors for ELPA usage                        16
 GLOBAL| Orthonormality check for eigenvectors                          DISABLED
 GLOBAL| Matrix multiplication library                                     COSMA
 GLOBAL| All-to-all communication in single precision                          F
 GLOBAL| FFTs using library dependent lengths                                  F
 GLOBAL| Grid backend                                                       AUTO
 GLOBAL| Global print level                                                  LOW
 GLOBAL| MPI I/O enabled                                                       T
 GLOBAL| Total number of message passing processes                            32
 GLOBAL| Number of threads for this process                                    1
 GLOBAL| This output is from process                                           0
 GLOBAL| Stack size for threads created by OpenMP (OMP_STACKSIZE)        default
 GLOBAL| CPU model name           AMD Ryzen Threadripper 3970X 32-Core Processor
 GLOBAL| CPUID                                                              1002

 MEMORY| system memory details [Kb]
 MEMORY|                        rank 0           min           max       average
 MEMORY| MemTotal            131752136     131752136     131752136     131752136
 MEMORY| MemFree             114370736     114370736     114370736     114370736
 MEMORY| Buffers               2020104       2020104       2020104       2020104
 MEMORY| Cached                8697616       8697616       8697620       8697616
 MEMORY| Slab                  1642428       1642428       1642428       1642428
 MEMORY| SReclaimable          1145652       1145652       1145652       1145652
 MEMORY| MemLikelyFree       126234108     126234108     126234112     126234108


 GENERATE|  Preliminary Number of Bonds generated:                             0
 GENERATE|  Achieved consistency in connectivity generation.

 *******************************************************************************
 *******************************************************************************
 **                                                                           **
 **     #####                         ##              ##                      **
 **    ##   ##            ##          ##              ##                      **
 **   ##     ##                       ##            ######                    **
 **   ##     ##  ##   ##  ##   #####  ##  ##   ####   ##    #####    #####    **
 **   ##     ##  ##   ##  ##  ##      ## ##   ##      ##   ##   ##  ##   ##   **
 **   ##  ## ##  ##   ##  ##  ##      ####     ###    ##   ######   ######    **
 **    ##  ###   ##   ##  ##  ##      ## ##      ##   ##   ##       ##        **
 **     #######   #####   ##   #####  ##  ##  ####    ##    #####   ##        **
 **           ##                                                    ##        **
 **                                                                           **
 **                                                ... make the atoms dance   **
 **                                                                           **
 **            Copyright (C) by CP2K developers group (2000-2024)             **
 **                      J. Chem. Phys. 152, 194103 (2020)                    **
 **                                                                           **
 *******************************************************************************


 TOTAL NUMBERS AND MAXIMUM NUMBERS

  Total number of            - Atomic kinds:                                   2
                             - Atoms:                                        192
                             - Shell sets:                                   192
                             - Shells:                                       704
                             - Primitive Cartesian functions:               1344
                             - Cartesian basis functions:                   1536
                             - Spherical basis functions:                   1472

  Maximum angular momentum of- Orbital basis functions:                        2
                             - Local part of the GTH pseudopotential:          2
                             - Non-local part of the GTH pseudopotential:      0

 ------------------------------ Linear scaling SCF -----------------------------
 eps_scf:                                                              0.100E-07
 eps_filter:                                                           0.100E-11
 mixing_fraction:                                                      0.450E+00
 max_scf:                                                                     25
 fixed chemical potential (mu)                                                 F
 has unit metric:                                                              F
 Computing inv(S):                                                             T
 Computing sqrt(S):                                                            T
 Computing S preconditioner                                                    F
 S sqrt method:                                                     NEWTONSCHULZ
 S sqrt order:                                                                 3
 Extrapolation order:                                                          1
 S preconditioner type                                                      NONE
 Polarized Atomic Orbitals (PAO)                                               T
 Purification method                                   Trace resetting 4th order
 Cluster type                                                             ATOMIC
 Computing Chebyshev                                                       FALSE
 Using PAO                                                                     T
 -------------------------------------------------------------------------------

 
 PAO|                                  EPS_PAO                           0.5E-06
 PAO|                                  MIXING                            0.5E+00
 PAO|                                  MAX_PAO                              1500
 PAO|                                  MAX_CYCLES                           1000
 PAO|                                  PARAMETERIZATION              EQUIVARIANT
 PAO|                                  PRECONDITION                            F
 PAO|                                  REGULARIZATION                    0.0E+00
 PAO|                                  EPS_PGF                           0.1E-09
 PAO|                                  PENALTY_DISTANCE                  0.1E+00
 PAO|                                  PENALTY_STRENGTH                  0.5E-02
 PAO|                                  LINPOT_PRECONDITION_DELTA         0.0E+00
 PAO|                                  LINPOT_INITGUESS_DELT             0.0E+00
 PAO|                                  LINPOT_REGULARIZATION_DELTA       0.0E+00
 PAO|                                  LINPOT_REGULARIZATION_STRENGTH    0.0E+00
 PAO|                                  OPTIMIZER                              CG
 PAO|                                  CG_INIT_STEPS                           2
 PAO|                                  CG_RESET_LIMIT                    0.1E+00
 PAO|                                  CHECK_UNITARY_TOL                -0.1E+01
 PAO|                                  CHECK_GRADIENT_TOL               -0.1E+01
 PAO|                                  NUM_GRADIENT_ORDER                      2
 PAO|                                  NUM_GRADIENT_EPS                  0.1E-07
 PAO|                                  PRINT%RESTART%WRITE_CYCLES            100
 PAO|                                  RESTART_FILE 
 PAO|                                  PREOPT_DM_FILE 64H2O_ref_LS_DM_SPIN_1_RESTART.dm
 PAO|                                  MACHINE_LEARNING%METHOD       GAUSSIAN_PR
 PAO|                                  MACHINE_LEARNING%PRIOR               ZERO
 PAO|                                  MACHINE_LEARNING%DESCRIPTOR     POTENTIAL
 PAO|                                  MACHINE_LEARNING%TOLERANCE        0.1E-01
 PAO|                                  MACHINE_LEARNING%GP_NOISE_VAR     0.1E+00
 PAO|                                  MACHINE_LEARNING%GP_SCALE         0.5E-01
 

 Calculating atomic Fock matrix for atomic kind: O

 Electronic structure
    Total number of core electrons                                          2.00
    Total number of valence electrons                                       6.00
    Total number of electrons                                               8.00
    Multiplicity                                                   not specified
    S   [  2.00] 2.00
    P      4.00


 *******************************************************************************
                  Iteration          Convergence                     Energy [au]
 *******************************************************************************
                          1        0.708315                     -15.576645311500
                          2        0.608879                     -15.587933561584
                          3        0.102828E-01                 -15.656849565404
                          4        0.113889E-02                 -15.656866888140
                          5        0.434197E-03                 -15.656867072159
                          6        0.263771E-03                 -15.656867091904
                          7        0.478536E-06                 -15.656867103452

 Energy components [Hartree]           Total Energy ::          -15.656867103452
                                        Band Energy ::           -3.000198112285
                                     Kinetic Energy ::           11.759971203220
                                   Potential Energy ::          -27.416838306672
                                      Virial (-V/T) ::            2.331369510426
                                        Core Energy ::          -26.140716385623
                                          XC Energy ::           -3.154051012914
                                     Coulomb Energy ::           13.637900295084
                       Total Pseudopotential Energy ::          -37.935781716540
                       Local Pseudopotential Energy ::          -39.218907440693
                    Nonlocal Pseudopotential Energy ::            1.283125724153
                                        Confinement ::            0.350941276976

 Orbital energies  State     L     Occupation   Energy[a.u.]          Energy[eV]

                       1     0          2.000      -0.864471          -23.523463

                       1     1          4.000      -0.317814           -8.648154


 Total Electron Density at R=0:                                         0.000068

 Calculating atomic Fock matrix for atomic kind: H

 Electronic structure
    Total number of core electrons                                          0.00
    Total number of valence electrons                                       1.00
    Total number of electrons                                               1.00
    Multiplicity                                                   not specified
    S      1.00


 *******************************************************************************
                  Iteration          Convergence                     Energy [au]
 *******************************************************************************
                          1        0.437545E-02                  -0.424159432110
                          2        0.531356E-03                  -0.424178438213
                          3        0.259176E-06                  -0.424178722480

 Energy components [Hartree]           Total Energy ::           -0.424178722480
                                        Band Energy ::           -0.199015229016
                                     Kinetic Energy ::            0.464007633961
                                   Potential Energy ::           -0.888186356441
                                      Virial (-V/T) ::            1.914163240935
                                        Core Energy ::           -0.479160803564
                                          XC Energy ::           -0.244352904054
                                     Coulomb Energy ::            0.299334985138
                       Total Pseudopotential Energy ::           -0.962295316385
                       Local Pseudopotential Energy ::           -0.962295316385
                    Nonlocal Pseudopotential Energy ::            0.000000000000
                                        Confinement ::            0.191268788606

 Orbital energies  State     L     Occupation   Energy[a.u.]          Energy[eV]

                       1     0          1.000      -0.199015           -5.415480


 Total Electron Density at R=0:                                         0.242907
 PAO| Made initial guess for matrix_X with norm:   27.712812921102035     

     Lanczos converged:  F threshold:   0.100E-02
     Est. extremal eigenvalues:    0.614E+01   0.953E-01
     Est. condition number :    0.645E+02

 Order=           3
     NS sqrt iter    1 1.00000000   0.150E+01       0.021     2662.486
     NS sqrt iter    2 1.00000000   0.816E+00       0.034     3346.251
     NS sqrt iter    3 1.00000000   0.327E+00       0.034     3319.385
     NS sqrt iter    4 1.00000000   0.903E-01       0.034     3315.294
     NS sqrt iter    5 1.00000000   0.311E-02       0.034     3330.018
     NS sqrt iter    6 1.00000000   0.228E-06       0.030     2868.098
     Symmetrizing Results
     Final NS sqrt iter    6 1.00000000   0.855E-13

 PAO| Read restart DM 64H2O_ref_LS_DM_SPIN_1_RESTART.dm with checksum:    6127.6259680474750     
 PAO| Quickstep energy from restart density:  -1103.1551185866292     
 PAO| ======================= Iteration:         1 =============================

     Lanczos converged:  F threshold:   0.100E-02
     Est. extremal eigenvalues:    0.614E+01   0.953E-01
     Est. condition number :    0.645E+02

 Order=           3
     NS sqrt iter    1 1.00000000   0.150E+01       0.021     2695.664
     NS sqrt iter    2 1.00000000   0.816E+00       0.034     3340.707
     NS sqrt iter    3 1.00000000   0.327E+00       0.034     3312.828
     NS sqrt iter    4 1.00000000   0.903E-01       0.034     3345.309
     NS sqrt iter    5 1.00000000   0.311E-02       0.034     3330.645
     NS sqrt iter    6 1.00000000   0.228E-06       0.030     2865.223
     Symmetrizing Results
     Final NS sqrt iter    6 1.00000000   0.856E-13

     Est. extremal eigenvalues     -0.81782     2.58779  converged:  T
     TRS4 it   1 1.00000000   0.272E+02       0.007     2050.123   0.100E-11
     TRS4 it   2 1.00000000   0.235E+02       0.013     2180.796   0.100E-11
     TRS4 it   3 1.00000000   0.160E+02       0.013     2169.647   0.100E-11
     TRS4 it   4 1.00000000   0.100E+02       0.013     2165.905   0.100E-11
     TRS4 it   5 1.00000000   0.482E+01       0.013     2167.355   0.100E-11
     TRS4 it   6 1.00000000   0.160E+01       0.013     2157.693   0.100E-11
     TRS4 it   7 1.00000000   0.314E+00       0.013     2169.814   0.100E-11
     TRS4 it   8 1.00000000   0.212E-01       0.013     2133.826   0.100E-11
     TRS4 it   9 1.00000000   0.149E-03       0.013     2176.493   0.100E-11
     TRS4 it  10 1.00000000   0.601E-08       0.013     2179.286   0.100E-11
     TRS4 it  11 1.00000000   0.533E-14       0.013     2180.081   0.100E-11
     Final TRS4 iteration   11 1.00000000   0.533E-14
     Chemical potential (mu):       0.00804
 
 PAO| energy:  -185.89118912805296      penalty:   1.2572470676959877E-031
 PAO|CG| warming up with steepest descent
 PAO|CG| beta:    0.0000000000000000     
 PAO| norm of gradient:   3.9762241434441155     
 PAO|LS| adapt:  T F F
 PAO|LS| adapt: scan_steps:    0.0000000000000000        0.0000000000000000        0.0000000000000000     
 PAO|LS| adapt: energies:   -185.89118912805296        0.0000000000000000        0.0000000000000000     
 PAO| ======================= Iteration:         2 =============================

     Lanczos converged:  F threshold:   0.100E-02
     Est. extremal eigenvalues:    0.593E+01   0.102E+00
     Est. condition number :    0.579E+02

 Order=           3
     NS sqrt iter    1 1.00000000   0.146E+01       0.021     2688.756
     NS sqrt iter    2 1.00000000   0.786E+00       0.034     3356.409
     NS sqrt iter    3 1.00000000   0.307E+00       0.034     3341.405
     NS sqrt iter    4 1.00000000   0.757E-01       0.034     3336.193
     NS sqrt iter    5 1.00000000   0.192E-02       0.034     3317.108
     NS sqrt iter    6 1.00000000   0.630E-07       0.029     2891.895
     Symmetrizing Results
     Final NS sqrt iter    6 1.00000000   0.104E-13

     Est. extremal eigenvalues     -0.82092     2.58747  converged:  T
     TRS4 it   1 1.00000000   0.274E+02       0.007     2115.228   0.100E-11
     TRS4 it   2 1.00000000   0.235E+02       0.013     2186.318   0.100E-11
     TRS4 it   3 1.00000000   0.159E+02       0.013     2172.736   0.100E-11
     TRS4 it   4 1.00000000   0.979E+01       0.013     2180.809   0.100E-11
     TRS4 it   5 1.00000000   0.461E+01       0.013     2184.437   0.100E-11
     TRS4 it   6 1.00000000   0.147E+01       0.013     2156.711   0.100E-11
     TRS4 it   7 1.00000000   0.268E+00       0.013     2157.353   0.100E-11
     TRS4 it   8 1.00000000   0.151E-01       0.013     2187.620   0.100E-11
     TRS4 it   9 1.00000000   0.677E-04       0.013     2159.768   0.100E-11
     TRS4 it  10 1.00000000   0.141E-08       0.013     2173.685   0.100E-11
     TRS4 it  11 1.00000000   0.124E-13       0.013     2164.736   0.100E-11
     Final TRS4 iteration   11 1.00000000   0.124E-13
     Chemical potential (mu):       0.01367
 
 PAO| energy:  -187.34309221945011      penalty:   4.7149123255458229E-007
 PAO|LS| adapt:  T T F
 PAO|LS| adapt: scan_steps:    0.0000000000000000       0.10000000000000001        0.0000000000000000     
 PAO|LS| adapt: energies:   -185.89118912805296       -187.34309221945011        0.0000000000000000     
 PAO| ======================= Iteration:         3 =============================

     Lanczos converged:  F threshold:   0.100E-02
     Est. extremal eigenvalues:    0.571E+01   0.108E+00
     Est. condition number :    0.528E+02

 Order=           3
     NS sqrt iter    1 1.00000000   0.141E+01       0.021     2670.722
     NS sqrt iter    2 1.00000000   0.757E+00       0.034     3325.267
     NS sqrt iter    3 1.00000000   0.286E+00       0.034     3347.625
     NS sqrt iter    4 1.00000000   0.632E-01       0.034     3340.282
     NS sqrt iter    5 1.00000000   0.120E-02       0.034     3341.313
     NS sqrt iter    6 1.00000000   0.183E-07       0.029     2888.343
     Symmetrizing Results
     Final NS sqrt iter    6 1.00000000   0.350E-14

     Est. extremal eigenvalues     -0.82390     2.59011  converged:  T
     TRS4 it   1 1.00000000   0.277E+02       0.007     2118.661   0.100E-11
     TRS4 it   2 1.00000000   0.235E+02       0.013     2187.197   0.100E-11
     TRS4 it   3 1.00000000   0.158E+02       0.013     2194.498   0.100E-11
     TRS4 it   4 1.00000000   0.961E+01       0.013     2166.935   0.100E-11
     TRS4 it   5 1.00000000   0.440E+01       0.013     2169.498   0.100E-11
     TRS4 it   6 1.00000000   0.135E+01       0.013     2177.536   0.100E-11
     TRS4 it   7 1.00000000   0.227E+00       0.013     2183.748   0.100E-11
     TRS4 it   8 1.00000000   0.104E-01       0.013     2174.199   0.100E-11
     TRS4 it   9 1.00000000   0.285E-04       0.013     2172.312   0.100E-11
     TRS4 it  10 1.00000000   0.284E-09       0.013     2175.724   0.100E-11
     TRS4 it  11 1.00000000   0.107E-13       0.013     2163.684   0.100E-11
     Final TRS4 iteration   11 1.00000000   0.107E-13
     Chemical potential (mu):       0.02004
 
 PAO| energy:  -188.52031915845208      penalty:   7.5438597209174835E-006
 PAO|LS| adapt:  T T F
 PAO|LS| adapt: scan_steps:    0.0000000000000000       0.20000000000000001        0.0000000000000000     
 PAO|LS| adapt: energies:   -185.89118912805296       -188.52031915845208        0.0000000000000000     
 PAO| ======================= Iteration:         4 =============================

     Lanczos converged:  T threshold:   0.100E-02
     Est. extremal eigenvalues:    0.529E+01   0.117E+00
     Est. condition number :    0.451E+02

 Order=           3
     NS sqrt iter    1 1.00000000   0.133E+01       0.021     2690.582
     NS sqrt iter    2 1.00000000   0.700E+00       0.034     3339.892
     NS sqrt iter    3 1.00000000   0.248E+00       0.034     3343.562
     NS sqrt iter    4 1.00000000   0.441E-01       0.034     3351.553
     NS sqrt iter    5 1.00000000   0.482E-03       0.034     3358.262
     NS sqrt iter    6 1.00000000   0.158E-08       0.029     2817.617
     Symmetrizing Results
     Final NS sqrt iter    6 1.00000000   0.182E-13

     Est. extremal eigenvalues     -0.82899     2.59788  converged:  T
     TRS4 it   1 1.00000000   0.281E+02       0.007     2132.328   0.100E-11
     TRS4 it   2 1.00000000   0.235E+02       0.013     2181.433   0.100E-11
     TRS4 it   3 1.00000000   0.156E+02       0.013     2169.336   0.100E-11
     TRS4 it   4 1.00000000   0.928E+01       0.013     2171.352   0.100E-11
     TRS4 it   5 1.00000000   0.405E+01       0.013     2202.093   0.100E-11
     TRS4 it   6 1.00000000   0.113E+01       0.013     2187.568   0.100E-11
     TRS4 it   7 1.00000000   0.161E+00       0.013     2172.615   0.100E-11
     TRS4 it   8 1.00000000   0.480E-02       0.013     2152.424   0.100E-11
     TRS4 it   9 1.00000000   0.483E-05       0.013     2186.916   0.100E-11
     TRS4 it  10 1.00000000   0.827E-11       0.013     2162.057   0.100E-11
     Final TRS4 iteration   10 1.00000000   0.827E-11
     Chemical potential (mu):       0.03968
 
 PAO| energy:  -190.00841584270972      penalty:   1.2070175553503186E-004
 PAO|LS| Need extra step
 PAO|LS| adapt:  T T F
 PAO|LS| adapt: scan_steps:    0.0000000000000000       0.40000000000000002        0.0000000000000000     
 PAO|LS| adapt: energies:   -185.89118912805296       -190.00841584270972        0.0000000000000000     
 PAO| ======================= Iteration:         5 =============================

     Lanczos converged:  T threshold:   0.100E-02
     Est. extremal eigenvalues:    0.465E+01   0.132E+00
     Est. condition number :    0.352E+02

 Order=           3
     NS sqrt iter    1 1.00000000   0.121E+01       0.021     2664.771
     NS sqrt iter    2 1.00000000   0.612E+00       0.034     3349.552
     NS sqrt iter    3 1.00000000   0.192E+00       0.034     3344.646
     NS sqrt iter    4 1.00000000   0.232E-01       0.034     3335.590
     NS sqrt iter    5 1.00000000   0.932E-04       0.034     3331.059
     NS sqrt iter    6 1.00000000   0.163E-10       0.017     2114.177
     Symmetrizing Results
     Final NS sqrt iter    6 1.00000000   0.198E-11

     Est. extremal eigenvalues     -0.83281     2.60116  converged:  T
     TRS4 it   1 1.00000000   0.287E+02       0.007     2089.517   0.100E-11
     TRS4 it   2 1.00000000   0.235E+02       0.013     2179.415   0.100E-11
     TRS4 it   3 1.00000000   0.154E+02       0.013     2178.421   0.100E-11
     TRS4 it   4 1.00000000   0.879E+01       0.013     2186.871   0.100E-11
     TRS4 it   5 1.00000000   0.353E+01       0.013     2188.064   0.100E-11
     TRS4 it   6 1.00000000   0.841E+00       0.013     2204.042   0.100E-11
     TRS4 it   7 1.00000000   0.876E-01       0.013     2158.677   0.100E-11
     TRS4 it   8 1.00000000   0.131E-02       0.013     2179.772   0.100E-11
     TRS4 it   9 1.00000000   0.357E-06       0.013     2174.523   0.100E-11
     TRS4 it  10 1.00000000   0.799E-13       0.013     2162.663   0.100E-11
     Final TRS4 iteration   10 1.00000000   0.799E-13
     Chemical potential (mu):       0.06104
 
 PAO| energy:  -189.64619140690419      penalty:   1.9312280885633343E-003
 PAO|LS| Need extra step
 PAO|LS| adapt:  T T T
 PAO|LS| adapt: scan_steps:    0.0000000000000000       0.40000000000000002       0.80000000000000004     
 PAO|LS| adapt: energies:   -185.89118912805296       -190.00841584270972       -189.64619140690419     
 PAO|LS| adapt: suggested step_size:   0.56765456984450913     
 PAO|LS| adapt: predicted energy  -190.40188040010094     
 PAO| ======================= Iteration:         6 =============================

     Lanczos converged:  F threshold:   0.100E-02
     Est. extremal eigenvalues:    0.498E+01   0.124E+00
     Est. condition number :    0.402E+02

 Order=           3
     NS sqrt iter    1 1.00000000   0.127E+01       0.021     2674.974
     NS sqrt iter    2 1.00000000   0.658E+00       0.034     3344.946
     NS sqrt iter    3 1.00000000   0.221E+00       0.034     3284.354
     NS sqrt iter    4 1.00000000   0.330E-01       0.034     3334.841
     NS sqrt iter    5 1.00000000   0.233E-03       0.034     3330.256
     NS sqrt iter    6 1.00000000   0.212E-09       0.028     2601.604
     Symmetrizing Results
     Final NS sqrt iter    6 1.00000000   0.672E-12

     Est. extremal eigenvalues     -0.83179     2.60125  converged:  T
     TRS4 it   1 1.00000000   0.284E+02       0.007     2148.516   0.100E-11
     TRS4 it   2 1.00000000   0.235E+02       0.013     2177.404   0.100E-11
     TRS4 it   3 1.00000000   0.155E+02       0.013     2173.611   0.100E-11
     TRS4 it   4 1.00000000   0.905E+01       0.013     2190.243   0.100E-11
     TRS4 it   5 1.00000000   0.380E+01       0.013     2182.912   0.100E-11
     TRS4 it   6 1.00000000   0.987E+00       0.013     2167.618   0.100E-11
     TRS4 it   7 1.00000000   0.122E+00       0.013     2203.711   0.100E-11
     TRS4 it   8 1.00000000   0.262E-02       0.013     2164.607   0.100E-11
     TRS4 it   9 1.00000000   0.136E-05       0.013     2168.090   0.100E-11
     TRS4 it  10 1.00000000   0.664E-12       0.013     2150.175   0.100E-11
     Final TRS4 iteration   10 1.00000000   0.664E-12
     Chemical potential (mu):       0.04981
 
 PAO| energy:  -190.37514836417691      penalty:   4.8956478979345791E-004
 PAO|CG| warming up with steepest descent
 PAO|CG| beta:    0.0000000000000000     
 PAO| norm of gradient:   2.0830703759298683     
 PAO| energy improvement:  -4.4839592361239511     
 PAO| step      6                 -190.375148364  0.407E-02  0.568E+00     2.516
 PAO|LS| adapt:  T F F
 PAO|LS| adapt: scan_steps:    0.0000000000000000        0.0000000000000000        0.0000000000000000     
 PAO|LS| adapt: energies:   -190.37514836417691        0.0000000000000000        0.0000000000000000     
 PAO| ======================= Iteration:         7 =============================

     Lanczos converged:  F threshold:   0.100E-02
     Est. extremal eigenvalues:    0.483E+01   0.132E+00
     Est. condition number :    0.367E+02

 Order=           3
     NS sqrt iter    1 1.00000000   0.124E+01       0.021     2669.748
     NS sqrt iter    2 1.00000000   0.633E+00       0.034     3352.842
     NS sqrt iter    3 1.00000000   0.204E+00       0.034     3365.558
     NS sqrt iter    4 1.00000000   0.267E-01       0.034     3366.323
     NS sqrt iter    5 1.00000000   0.130E-03       0.034     3322.373
     NS sqrt iter    6 1.00000000   0.398E-10       0.021     2274.684
     Symmetrizing Results
     Final NS sqrt iter    6 1.00000000   0.227E-11

     Est. extremal eigenvalues     -0.83213     2.59601  converged:  T
     TRS4 it   1 1.00000000   0.285E+02       0.007     2124.586   0.100E-11
     TRS4 it   2 1.00000000   0.236E+02       0.013     2180.816   0.100E-11
     TRS4 it   3 1.00000000   0.156E+02       0.013     2144.760   0.100E-11
     TRS4 it   4 1.00000000   0.918E+01       0.013     2170.330   0.100E-11
     TRS4 it   5 1.00000000   0.389E+01       0.013     2176.205   0.100E-11
     TRS4 it   6 1.00000000   0.101E+01       0.013     2170.072   0.100E-11
     TRS4 it   7 1.00000000   0.123E+00       0.013     2163.298   0.100E-11
     TRS4 it   8 1.00000000   0.265E-02       0.013     2196.406   0.100E-11
     TRS4 it   9 1.00000000   0.144E-05       0.013     2198.111   0.100E-11
     TRS4 it  10 1.00000000   0.751E-12       0.013     2189.933   0.100E-11
     Final TRS4 iteration   10 1.00000000   0.751E-12
     Chemical potential (mu):       0.05143
 
 PAO| energy:  -189.44734564234858      penalty:   6.9435394515628525E-004
 PAO|LS| adapt:  T F T
 PAO|LS| adapt: scan_steps:    0.0000000000000000        0.0000000000000000       0.56765456984450913     
 PAO|LS| adapt: energies:   -190.37514836417691        0.0000000000000000       -189.44734564234858     
 PAO| ======================= Iteration:         8 =============================

     Lanczos converged:  F threshold:   0.100E-02
     Est. extremal eigenvalues:    0.490E+01   0.128E+00
     Est. condition number :    0.384E+02

 Order=           3
     NS sqrt iter    1 1.00000000   0.125E+01       0.021     2685.132
     NS sqrt iter    2 1.00000000   0.645E+00       0.034     3358.484
     NS sqrt iter    3 1.00000000   0.213E+00       0.034     3303.328
     NS sqrt iter    4 1.00000000   0.297E-01       0.034     3322.404
     NS sqrt iter    5 1.00000000   0.174E-03       0.034     3339.695
     NS sqrt iter    6 1.00000000   0.926E-10       0.026     2443.589
     Symmetrizing Results
     Final NS sqrt iter    6 1.00000000   0.162E-11

     Est. extremal eigenvalues     -0.83303     2.59891  converged:  T
     TRS4 it   1 1.00000000   0.284E+02       0.007     2081.256   0.100E-11
     TRS4 it   2 1.00000000   0.236E+02       0.013     2182.244   0.100E-11
     TRS4 it   3 1.00000000   0.155E+02       0.013     2185.910   0.100E-11
     TRS4 it   4 1.00000000   0.908E+01       0.013     2185.056   0.100E-11
     TRS4 it   5 1.00000000   0.382E+01       0.013     2178.901   0.100E-11
     TRS4 it   6 1.00000000   0.991E+00       0.013     2198.259   0.100E-11
     TRS4 it   7 1.00000000   0.122E+00       0.013     2163.036   0.100E-11
     TRS4 it   8 1.00000000   0.262E-02       0.013     2199.057   0.100E-11
     TRS4 it   9 1.00000000   0.141E-05       0.013     2175.967   0.100E-11
     TRS4 it  10 1.00000000   0.762E-12       0.013     2201.669   0.100E-11
     Final TRS4 iteration   10 1.00000000   0.762E-12
     Chemical potential (mu):       0.04969
 
 PAO| energy:  -190.74547902188658      penalty:   5.1994971785337192E-004
 PAO|LS| adapt:  T T T
 PAO|LS| adapt: scan_steps:    0.0000000000000000       0.28382728492225456       0.56765456984450913     
 PAO|LS| adapt: energies:   -190.37514836417691       -190.74547902188658       -189.44734564234858     
 PAO|LS| adapt: suggested step_size:   0.20491167103991537     
 PAO|LS| adapt: predicted energy  -190.80997081429376     
 PAO| ======================= Iteration:         9 =============================

     Lanczos converged:  F threshold:   0.100E-02
     Est. extremal eigenvalues:    0.492E+01   0.127E+00
     Est. condition number :    0.389E+02

 Order=           3
     NS sqrt iter    1 1.00000000   0.126E+01       0.021     2687.137
     NS sqrt iter    2 1.00000000   0.648E+00       0.034     3341.622
     NS sqrt iter    3 1.00000000   0.215E+00       0.034     3341.466
     NS sqrt iter    4 1.00000000   0.306E-01       0.034     3339.269
     NS sqrt iter    5 1.00000000   0.189E-03       0.034     3345.105
     NS sqrt iter    6 1.00000000   0.117E-09       0.027     2475.313
     Symmetrizing Results
     Final NS sqrt iter    6 1.00000000   0.145E-11

     Est. extremal eigenvalues     -0.83291     2.59965  converged:  T
     TRS4 it   1 1.00000000   0.284E+02       0.007     2109.240   0.100E-11
     TRS4 it   2 1.00000000   0.235E+02       0.013     2184.189   0.100E-11
     TRS4 it   3 1.00000000   0.155E+02       0.013     2180.920   0.100E-11
     TRS4 it   4 1.00000000   0.906E+01       0.013     2176.814   0.100E-11
     TRS4 it   5 1.00000000   0.381E+01       0.013     2176.137   0.100E-11
     TRS4 it   6 1.00000000   0.988E+00       0.013     2182.828   0.100E-11
     TRS4 it   7 1.00000000   0.122E+00       0.013     2160.883   0.100E-11
     TRS4 it   8 1.00000000   0.262E-02       0.013     2180.332   0.100E-11
     TRS4 it   9 1.00000000   0.140E-05       0.013     2173.473   0.100E-11
     TRS4 it  10 1.00000000   0.689E-12       0.013     2174.365   0.100E-11
     Final TRS4 iteration   10 1.00000000   0.689E-12
     Chemical potential (mu):       0.04954
 
 PAO| energy:  -190.81436562707322      penalty:   5.0188811129369261E-004
 PAO|CG| trace_G_new   0.71385414366936217     
 PAO|CG| trace_G_prev    4.3391821910766035     
 PAO|CG| trace_G_mix   -4.1997739115651828E-002
 PAO|CG| trace_D    4.3391821910766035     
 PAO|CG| trace_D_Gnew   4.1997739115651828E-002
 PAO|CG| beta:   0.17419224395311184     
 PAO| norm of gradient:  0.84489889553091624     
 PAO| energy improvement: -0.43921726289630669     
 PAO| step      9                 -190.814365627  0.165E-02  0.205E+00     1.564
 PAO|LS| adapt:  T F F
 PAO|LS| adapt: scan_steps:    0.0000000000000000        0.0000000000000000        0.0000000000000000     
 PAO|LS| adapt: energies:   -190.81436562707322        0.0000000000000000        0.0000000000000000     
 PAO| ======================= Iteration:        10 =============================

     Lanczos converged:  F threshold:   0.100E-02
     Est. extremal eigenvalues:    0.487E+01   0.130E+00
     Est. condition number :    0.375E+02

 Order=           3
     NS sqrt iter    1 1.00000000   0.125E+01       0.021     2659.984
     NS sqrt iter    2 1.00000000   0.640E+00       0.034     3340.269
     NS sqrt iter    3 1.00000000   0.210E+00       0.034     3347.957
     NS sqrt iter    4 1.00000000   0.284E-01       0.034     3316.840
     NS sqrt iter    5 1.00000000   0.152E-03       0.034     3334.889
     NS sqrt iter    6 1.00000000   0.607E-10       0.024     2342.201
     Symmetrizing Results
     Final NS sqrt iter    6 1.00000000   0.210E-11

     Est. extremal eigenvalues     -0.83338     2.58723  converged:  T
     TRS4 it   1 1.00000000   0.284E+02       0.007     2123.010   0.100E-11
     TRS4 it   2 1.00000000   0.235E+02       0.013     2200.964   0.100E-11
     TRS4 it   3 1.00000000   0.155E+02       0.013     2164.509   0.100E-11
     TRS4 it   4 1.00000000   0.904E+01       0.013     2185.005   0.100E-11
     TRS4 it   5 1.00000000   0.379E+01       0.013     2194.410   0.100E-11
     TRS4 it   6 1.00000000   0.975E+00       0.013     2162.172   0.100E-11
     TRS4 it   7 1.00000000   0.118E+00       0.013     2169.884   0.100E-11
     TRS4 it   8 1.00000000   0.248E-02       0.013     2197.261   0.100E-11
     TRS4 it   9 1.00000000   0.127E-05       0.013     2172.085   0.100E-11
     TRS4 it  10 1.00000000   0.570E-12       0.013     2151.554   0.100E-11
     Final TRS4 iteration   10 1.00000000   0.570E-12
     Chemical potential (mu):       0.05025
 
 PAO| energy:  -190.91230555947146      penalty:   5.0418282424960698E-004
 PAO|LS| adapt:  T T F
 PAO|LS| adapt: scan_steps:    0.0000000000000000       0.20491167103991537        0.0000000000000000     
 PAO|LS| adapt: energies:   -190.81436562707322       -190.91230555947146        0.0000000000000000     
 PAO| ======================= Iteration:        11 =============================

     Lanczos converged:  F threshold:   0.100E-02
     Est. extremal eigenvalues:    0.482E+01   0.133E+00
     Est. condition number :    0.362E+02

 Order=           3
     NS sqrt iter    1 1.00000000   0.124E+01       0.021     2676.687
     NS sqrt iter    2 1.00000000   0.632E+00       0.034     3305.075
     NS sqrt iter    3 1.00000000   0.204E+00       0.034     3325.540
     NS sqrt iter    4 1.00000000   0.264E-01       0.034     3334.977
     NS sqrt iter    5 1.00000000   0.122E-03       0.034     3341.179
     NS sqrt iter    6 1.00000000   0.313E-10       0.020     2209.194
     Symmetrizing Results
     Final NS sqrt iter    6 1.00000000   0.231E-11

     Est. extremal eigenvalues     -0.83365     2.57472  converged:  T
     TRS4 it   1 1.00000000   0.284E+02       0.007     2092.497   0.100E-11
     TRS4 it   2 1.00000000   0.234E+02       0.013     2178.369   0.100E-11
     TRS4 it   3 1.00000000   0.155E+02       0.013     2180.671   0.100E-11
     TRS4 it   4 1.00000000   0.902E+01       0.013     2184.217   0.100E-11
     TRS4 it   5 1.00000000   0.376E+01       0.013     2154.402   0.100E-11
     TRS4 it   6 1.00000000   0.961E+00       0.013     2187.630   0.100E-11
     TRS4 it   7 1.00000000   0.115E+00       0.013     2178.631   0.100E-11
     TRS4 it   8 1.00000000   0.234E-02       0.013     2183.872   0.100E-11
     TRS4 it   9 1.00000000   0.114E-05       0.013     2184.147   0.100E-11
     TRS4 it  10 1.00000000   0.467E-12       0.013     2193.417   0.100E-11
     Final TRS4 iteration   10 1.00000000   0.467E-12
     Chemical potential (mu):       0.05104
 
 PAO| energy:  -190.91910839429627      penalty:   5.1613045789076616E-004
 PAO|LS| adapt:  T T F
 PAO|LS| adapt: scan_steps:    0.0000000000000000       0.40982334207983073        0.0000000000000000     
 PAO|LS| adapt: energies:   -190.81436562707322       -190.91910839429627        0.0000000000000000     
 PAO| ======================= Iteration:        12 =============================

     Lanczos converged:  T threshold:   0.100E-02
     Est. extremal eigenvalues:    0.473E+01   0.140E+00
     Est. condition number :    0.338E+02

 Order=           3
     NS sqrt iter    1 1.00000000   0.122E+01       0.021     2670.349
     NS sqrt iter    2 1.00000000   0.617E+00       0.034     3321.063
     NS sqrt iter    3 1.00000000   0.194E+00       0.034     3310.317
     NS sqrt iter    4 1.00000000   0.228E-01       0.034     3325.753
     NS sqrt iter    5 1.00000000   0.790E-04       0.034     3331.793
     NS sqrt iter    6 1.00000000   0.814E-11       0.015     2121.313
     Symmetrizing Results
     Final NS sqrt iter    6 1.00000000   0.155E-11

     Est. extremal eigenvalues     -0.83356     2.55037  converged:  T
     TRS4 it   1 1.00000000   0.284E+02       0.007     2106.146   0.100E-11
     TRS4 it   2 1.00000000   0.233E+02       0.013     2146.604   0.100E-11
     TRS4 it   3 1.00000000   0.155E+02       0.013     2186.818   0.100E-11
     TRS4 it   4 1.00000000   0.897E+01       0.013     2179.747   0.100E-11
     TRS4 it   5 1.00000000   0.371E+01       0.013     2171.397   0.100E-11
     TRS4 it   6 1.00000000   0.930E+00       0.013     2170.428   0.100E-11
     TRS4 it   7 1.00000000   0.107E+00       0.013     2172.879   0.100E-11
     TRS4 it   8 1.00000000   0.205E-02       0.013     2195.298   0.100E-11
     TRS4 it   9 1.00000000   0.889E-06       0.013     2170.781   0.100E-11
     TRS4 it  10 1.00000000   0.279E-12       0.013     2194.183   0.100E-11
     Final TRS4 iteration   10 1.00000000   0.279E-12
     Chemical potential (mu):       0.05283
 
 PAO| energy:  -190.67549642649811      penalty:   5.7589830831066067E-004
 PAO|LS| Need extra step
 PAO|LS| adapt:  T T T
 PAO|LS| adapt: scan_steps:    0.0000000000000000       0.40982334207983073       0.81964668415966146     
 PAO|LS| adapt: energies:   -190.81436562707322       -190.91910839429627       -190.67549642649811     
 PAO|LS| adapt: suggested step_size:   0.32813672471811195     
 PAO|LS| adapt: predicted energy  -190.92602829982991     
 PAO| ======================= Iteration:        13 =============================

     Lanczos converged:  F threshold:   0.100E-02
     Est. extremal eigenvalues:    0.484E+01   0.132E+00
     Est. condition number :    0.367E+02

 Order=           3
     NS sqrt iter    1 1.00000000   0.124E+01       0.021     2684.667
     NS sqrt iter    2 1.00000000   0.635E+00       0.034     3355.007
     NS sqrt iter    3 1.00000000   0.206E+00       0.034     3332.039
     NS sqrt iter    4 1.00000000   0.272E-01       0.034     3344.896
     NS sqrt iter    5 1.00000000   0.133E-03       0.034     3357.574
     NS sqrt iter    6 1.00000000   0.408E-10       0.021     2255.402
     Symmetrizing Results
     Final NS sqrt iter    6 1.00000000   0.228E-11

     Est. extremal eigenvalues     -0.83356     2.57970  converged:  T
     TRS4 it   1 1.00000000   0.284E+02       0.007     2130.639   0.100E-11
     TRS4 it   2 1.00000000   0.234E+02       0.013     2176.596   0.100E-11
     TRS4 it   3 1.00000000   0.155E+02       0.013     2179.620   0.100E-11
     TRS4 it   4 1.00000000   0.903E+01       0.013     2156.743   0.100E-11
     TRS4 it   5 1.00000000   0.377E+01       0.013     2191.144   0.100E-11
     TRS4 it   6 1.00000000   0.967E+00       0.013     2168.855   0.100E-11
     TRS4 it   7 1.00000000   0.116E+00       0.013     2165.316   0.100E-11
     TRS4 it   8 1.00000000   0.240E-02       0.013     2180.682   0.100E-11
     TRS4 it   9 1.00000000   0.119E-05       0.013     2200.742   0.100E-11
     TRS4 it  10 1.00000000   0.529E-12       0.013     2160.066   0.100E-11
     Final TRS4 iteration   10 1.00000000   0.529E-12
     Chemical potential (mu):       0.05072
 
 PAO| energy:  -190.92706939152990      penalty:   5.1013105679554574E-004
 PAO|CG| trace_G_new   0.26945724418346906     
 PAO|CG| trace_G_prev   0.71385414366936217     
 PAO|CG| trace_G_mix   -1.1560660125375162E-002
 PAO|CG| trace_D   0.83088631839284266     
 PAO|CG| trace_D_Gnew   1.1629875366277862E-002
 PAO|CG| beta:   0.39366291671902665     
 PAO| norm of gradient:  0.51909271251238831     
 PAO| energy improvement: -0.11270376445668262     
 PAO| step     13                 -190.927069392  0.101E-02  0.328E+00     1.999
 PAO|LS| adapt:  T F F
 PAO|LS| adapt: scan_steps:    0.0000000000000000        0.0000000000000000        0.0000000000000000     
 PAO|LS| adapt: energies:   -190.92706939152990        0.0000000000000000        0.0000000000000000     
 PAO| ======================= Iteration:        14 =============================

     Lanczos converged:  F threshold:   0.100E-02
     Est. extremal eigenvalues:    0.478E+01   0.135E+00
     Est. condition number :    0.355E+02

 Order=           3
     NS sqrt iter    1 1.00000000   0.123E+01       0.021     2699.464
     NS sqrt iter    2 1.00000000   0.625E+00       0.034     3299.037
     NS sqrt iter    3 1.00000000   0.200E+00       0.034     3340.501
     NS sqrt iter    4 1.00000000   0.252E-01       0.034     3376.074
     NS sqrt iter    5 1.00000000   0.107E-03       0.034     3331.317
     NS sqrt iter    6 1.00000000   0.215E-10       0.018     2140.859
     Symmetrizing Results
     Final NS sqrt iter    6 1.00000000   0.216E-11

     Est. extremal eigenvalues     -0.83391     2.57241  converged:  T
     TRS4 it   1 1.00000000   0.284E+02       0.007     2140.752   0.100E-11
     TRS4 it   2 1.00000000   0.234E+02       0.013     2188.056   0.100E-11
     TRS4 it   3 1.00000000   0.155E+02       0.013     2201.801   0.100E-11
     TRS4 it   4 1.00000000   0.897E+01       0.013     2170.600   0.100E-11
     TRS4 it   5 1.00000000   0.372E+01       0.013     2202.328   0.100E-11
     TRS4 it   6 1.00000000   0.937E+00       0.013     2187.568   0.100E-11
     TRS4 it   7 1.00000000   0.109E+00       0.013     2199.577   0.100E-11
     TRS4 it   8 1.00000000   0.212E-02       0.013     2164.212   0.100E-11
     TRS4 it   9 1.00000000   0.946E-06       0.013     2187.390   0.100E-11
     TRS4 it  10 1.00000000   0.329E-12       0.013     2168.530   0.100E-11
     Final TRS4 iteration   10 1.00000000   0.329E-12
     Chemical potential (mu):       0.05238
 
 PAO| energy:  -190.97784217060993      penalty:   5.1148616010223259E-004
 PAO|LS| adapt:  T T F
 PAO|LS| adapt: scan_steps:    0.0000000000000000       0.32813672471811195        0.0000000000000000     
 PAO|LS| adapt: energies:   -190.92706939152990       -190.97784217060993        0.0000000000000000     
 PAO| ======================= Iteration:        15 =============================

     Lanczos converged:  T threshold:   0.100E-02
     Est. extremal eigenvalues:    0.471E+01   0.137E+00
     Est. condition number :    0.343E+02

 Order=           3
     NS sqrt iter    1 1.00000000   0.121E+01       0.021     2666.825
     NS sqrt iter    2 1.00000000   0.615E+00       0.034     3346.676
     NS sqrt iter    3 1.00000000   0.195E+00       0.034     3332.168
     NS sqrt iter    4 1.00000000   0.233E-01       0.034     3321.426
     NS sqrt iter    5 1.00000000   0.871E-04       0.034     3338.668
     NS sqrt iter    6 1.00000000   0.114E-10       0.016     2116.649
     Symmetrizing Results
     Final NS sqrt iter    6 1.00000000   0.177E-11

     Est. extremal eigenvalues     -0.83398     2.56485  converged:  T
     TRS4 it   1 1.00000000   0.285E+02       0.007     2100.085   0.100E-11
     TRS4 it   2 1.00000000   0.234E+02       0.013     2181.089   0.100E-11
     TRS4 it   3 1.00000000   0.154E+02       0.013     2178.718   0.100E-11
     TRS4 it   4 1.00000000   0.891E+01       0.013     2146.301   0.100E-11
     TRS4 it   5 1.00000000   0.366E+01       0.013     2169.128   0.100E-11
     TRS4 it   6 1.00000000   0.908E+00       0.013     2173.420   0.100E-11
     TRS4 it   7 1.00000000   0.103E+00       0.013     2193.182   0.100E-11
     TRS4 it   8 1.00000000   0.189E-02       0.013     2156.010   0.100E-11
     TRS4 it   9 1.00000000   0.754E-06       0.013     2143.693   0.100E-11
     TRS4 it  10 1.00000000   0.227E-12       0.013     2180.938   0.100E-11
     Final TRS4 iteration   10 1.00000000   0.227E-12
     Chemical potential (mu):       0.05397
 
 PAO| energy:  -190.95744153360556      penalty:   5.2735706410557772E-004
 PAO|LS| adapt:  T T T
 PAO|LS| adapt: scan_steps:    0.0000000000000000       0.32813672471811195       0.65627344943622390     
 PAO|LS| adapt: energies:   -190.92706939152990       -190.97784217060993       -190.95744153360556     
 PAO|LS| adapt: suggested step_size:   0.39815033212710649     
 PAO|LS| adapt: predicted energy  -190.97946227518165     
 PAO| ======================= Iteration:        16 =============================

     Lanczos converged:  F threshold:   0.100E-02
     Est. extremal eigenvalues:    0.476E+01   0.135E+00
     Est. condition number :    0.352E+02

 Order=           3
     NS sqrt iter    1 1.00000000   0.122E+01       0.021     2666.115
     NS sqrt iter    2 1.00000000   0.623E+00       0.034     3328.408
     NS sqrt iter    3 1.00000000   0.199E+00       0.034     3322.264
     NS sqrt iter    4 1.00000000   0.248E-01       0.034     3348.554
     NS sqrt iter    5 1.00000000   0.103E-03       0.034     3355.192
     NS sqrt iter    6 1.00000000   0.187E-10       0.018     2131.565
     Symmetrizing Results
     Final NS sqrt iter    6 1.00000000   0.207E-11

     Est. extremal eigenvalues     -0.83395     2.57081  converged:  T
     TRS4 it   1 1.00000000   0.284E+02       0.007     2087.356   0.100E-11
     TRS4 it   2 1.00000000   0.234E+02       0.013     2170.363   0.100E-11
     TRS4 it   3 1.00000000   0.155E+02       0.013     2158.903   0.100E-11
     TRS4 it   4 1.00000000   0.896E+01       0.013     2159.565   0.100E-11
     TRS4 it   5 1.00000000   0.370E+01       0.013     2189.312   0.100E-11
     TRS4 it   6 1.00000000   0.931E+00       0.013     2184.655   0.100E-11
     TRS4 it   7 1.00000000   0.108E+00       0.013     2181.573   0.100E-11
     TRS4 it   8 1.00000000   0.207E-02       0.013     2191.837   0.100E-11
     TRS4 it   9 1.00000000   0.901E-06       0.013     2192.888   0.100E-11
     TRS4 it  10 1.00000000   0.282E-12       0.013     2166.097   0.100E-11
     Final TRS4 iteration   10 1.00000000   0.282E-12
     Chemical potential (mu):       0.05273
 
 PAO| energy:  -190.97940458900794      penalty:   5.1360711112971135E-004
 PAO|CG| trace_G_new   0.10423932162512044     
 PAO|CG| trace_G_prev   0.26945724418346906     
 PAO|CG| trace_G_mix    4.2939671166759502E-003
 PAO|CG| trace_D   0.38906360442511784     
 PAO|CG| trace_D_Gnew   7.4770171685354281E-004
 PAO|CG| beta:   0.37091359266033802     
 PAO| norm of gradient:  0.32286114914173314     
 PAO| energy improvement:  -5.2335197478043938E-002
 PAO| step     16                 -190.979404589  0.631E-03  0.398E+00     1.512
 PAO|LS| adapt:  T F F
 PAO|LS| adapt: scan_steps:    0.0000000000000000        0.0000000000000000        0.0000000000000000     
 PAO|LS| adapt: energies:   -190.97940458900794        0.0000000000000000        0.0000000000000000     
 PAO| ======================= Iteration:        17 =============================

     Lanczos converged:  F threshold:   0.100E-02
     Est. extremal eigenvalues:    0.473E+01   0.136E+00
     Est. condition number :    0.347E+02

 Order=           3
     NS sqrt iter    1 1.00000000   0.122E+01       0.021     2674.437
     NS sqrt iter    2 1.00000000   0.618E+00       0.034     3357.050
     NS sqrt iter    3 1.00000000   0.197E+00       0.034     3314.219
     NS sqrt iter    4 1.00000000   0.240E-01       0.034     3321.394
     NS sqrt iter    5 1.00000000   0.940E-04       0.034     3334.059
     NS sqrt iter    6 1.00000000   0.144E-10       0.016     2138.025
     Symmetrizing Results
     Final NS sqrt iter    6 1.00000000   0.188E-11

     Est. extremal eigenvalues     -0.83399     2.56779  converged:  T
     TRS4 it   1 1.00000000   0.285E+02       0.007     2114.345   0.100E-11
     TRS4 it   2 1.00000000   0.234E+02       0.013     2188.840   0.100E-11
     TRS4 it   3 1.00000000   0.154E+02       0.013     2164.891   0.100E-11
     TRS4 it   4 1.00000000   0.891E+01       0.013     2194.371   0.100E-11
     TRS4 it   5 1.00000000   0.366E+01       0.013     2184.987   0.100E-11
     TRS4 it   6 1.00000000   0.910E+00       0.013     2169.035   0.100E-11
     TRS4 it   7 1.00000000   0.104E+00       0.013     2173.802   0.100E-11
     TRS4 it   8 1.00000000   0.191E-02       0.013     2191.076   0.100E-11
     TRS4 it   9 1.00000000   0.772E-06       0.013     2188.769   0.100E-11
     TRS4 it  10 1.00000000   0.242E-12       0.013     2175.753   0.100E-11
     Final TRS4 iteration   10 1.00000000   0.242E-12
     Chemical potential (mu):       0.05378
 
 PAO| energy:  -190.98366505272810      penalty:   5.0594397908893397E-004
 PAO|LS| adapt:  T T F
 PAO|LS| adapt: scan_steps:    0.0000000000000000       0.39815033212710649        0.0000000000000000     
 PAO|LS| adapt: energies:   -190.97940458900794       -190.98366505272810        0.0000000000000000     
 PAO| ======================= Iteration:        18 =============================

     Lanczos converged:  T threshold:   0.100E-02
     Est. extremal eigenvalues:    0.469E+01   0.137E+00
     Est. condition number :    0.342E+02

 Order=           3
     NS sqrt iter    1 1.00000000   0.121E+01       0.021     2685.205
     NS sqrt iter    2 1.00000000   0.614E+00       0.034     3340.260
     NS sqrt iter    3 1.00000000   0.194E+00       0.034     3330.174
     NS sqrt iter    4 1.00000000   0.233E-01       0.034     3339.092
     NS sqrt iter    5 1.00000000   0.863E-04       0.034     3344.461
     NS sqrt iter    6 1.00000000   0.111E-10       0.016     2112.727
     Symmetrizing Results
     Final NS sqrt iter    6 1.00000000   0.176E-11

     Est. extremal eigenvalues     -0.83388     2.56469  converged:  T
     TRS4 it   1 1.00000000   0.285E+02       0.007     2128.889   0.100E-11
     TRS4 it   2 1.00000000   0.233E+02       0.013     2180.560   0.100E-11
     TRS4 it   3 1.00000000   0.154E+02       0.013     2168.320   0.100E-11
     TRS4 it   4 1.00000000   0.886E+01       0.013     2167.263   0.100E-11
     TRS4 it   5 1.00000000   0.362E+01       0.013     2192.080   0.100E-11
     TRS4 it   6 1.00000000   0.891E+00       0.013     2163.202   0.100E-11
     TRS4 it   7 1.00000000   0.996E-01       0.013     2166.781   0.100E-11
     TRS4 it   8 1.00000000   0.176E-02       0.013     2188.032   0.100E-11
     TRS4 it   9 1.00000000   0.662E-06       0.013     2174.330   0.100E-11
     TRS4 it  10 1.00000000   0.158E-12       0.013     2191.285   0.100E-11
     Final TRS4 iteration   10 1.00000000   0.158E-12
     Chemical potential (mu):       0.05488
 
 PAO| energy:  -190.91349548664778      penalty:   5.0618111802569043E-004
 PAO|LS| adapt:  T T T
 PAO|LS| adapt: scan_steps:    0.0000000000000000       0.39815033212710649       0.79630066425421298     
 PAO|LS| adapt: energies:   -190.97940458900794       -190.98366505272810       -190.91349548664778     
 PAO|LS| adapt: suggested step_size:   0.22186576617137857     
 PAO|LS| adapt: predicted energy  -190.99096051160666     
 PAO| ======================= Iteration:        19 =============================

     Lanczos converged:  F threshold:   0.100E-02
     Est. extremal eigenvalues:    0.474E+01   0.136E+00
     Est. condition number :    0.349E+02

 Order=           3
     NS sqrt iter    1 1.00000000   0.122E+01       0.021     2676.133
     NS sqrt iter    2 1.00000000   0.620E+00       0.034     3349.706
     NS sqrt iter    3 1.00000000   0.198E+00       0.034     3330.171
     NS sqrt iter    4 1.00000000   0.243E-01       0.034     3341.550
     NS sqrt iter    5 1.00000000   0.977E-04       0.034     3356.007
     NS sqrt iter    6 1.00000000   0.161E-10       0.017     2121.415
     Symmetrizing Results
     Final NS sqrt iter    6 1.00000000   0.198E-11

     Est. extremal eigenvalues     -0.83399     2.56915  converged:  T
     TRS4 it   1 1.00000000   0.285E+02       0.007     2083.987   0.100E-11
     TRS4 it   2 1.00000000   0.234E+02       0.013     2179.103   0.100E-11
     TRS4 it   3 1.00000000   0.154E+02       0.013     2197.858   0.100E-11
     TRS4 it   4 1.00000000   0.893E+01       0.013     2175.615   0.100E-11
     TRS4 it   5 1.00000000   0.368E+01       0.013     2195.878   0.100E-11
     TRS4 it   6 1.00000000   0.919E+00       0.013     2160.471   0.100E-11
     TRS4 it   7 1.00000000   0.106E+00       0.013     2187.958   0.100E-11
     TRS4 it   8 1.00000000   0.198E-02       0.013     2185.658   0.100E-11
     TRS4 it   9 1.00000000   0.827E-06       0.013     2180.542   0.100E-11
     TRS4 it  10 1.00000000   0.242E-12       0.013     2187.677   0.100E-11
     Final TRS4 iteration   10 1.00000000   0.242E-12
     Chemical potential (mu):       0.05331
 
 PAO| energy:  -190.99094731209840      penalty:   5.0837794677074640E-004
 PAO|CG| trace_G_new    2.1963427917584540E-002
 PAO|CG| trace_G_prev   0.10423932162512044     
 PAO|CG| trace_G_mix   -3.7340099896925158E-004
 PAO|CG| trace_D   0.15721081812690779     
 PAO|CG| trace_D_Gnew  -4.5450205247972962E-005
 PAO|CG| beta:   0.21428409709806553     
 PAO| norm of gradient:  0.14820063399859171     
 PAO| energy improvement:  -1.1542723090457230E-002
 PAO| step     19                 -190.990947312  0.289E-03  0.222E+00     1.509
 PAO|LS| adapt:  T F F
 PAO|LS| adapt: scan_steps:    0.0000000000000000        0.0000000000000000        0.0000000000000000     
 PAO|LS| adapt: energies:   -190.99094731209840        0.0000000000000000        0.0000000000000000     
 PAO| ======================= Iteration:        20 =============================

     Lanczos converged:  F threshold:   0.100E-02
     Est. extremal eigenvalues:    0.474E+01   0.136E+00
     Est. condition number :    0.349E+02

 Order=           3
     NS sqrt iter    1 1.00000000   0.122E+01       0.021     2654.924
     NS sqrt iter    2 1.00000000   0.620E+00       0.034     3351.053
     NS sqrt iter    3 1.00000000   0.198E+00       0.034     3329.813
     NS sqrt iter    4 1.00000000   0.243E-01       0.034     3328.038
     NS sqrt iter    5 1.00000000   0.974E-04       0.034     3327.761
     NS sqrt iter    6 1.00000000   0.159E-10       0.017     2145.141
     Symmetrizing Results
     Final NS sqrt iter    6 1.00000000   0.196E-11

     Est. extremal eigenvalues     -0.83399     2.56763  converged:  T
     TRS4 it   1 1.00000000   0.285E+02       0.007     2107.266   0.100E-11
     TRS4 it   2 1.00000000   0.234E+02       0.013     2186.165   0.100E-11
     TRS4 it   3 1.00000000   0.154E+02       0.013     2200.802   0.100E-11
     TRS4 it   4 1.00000000   0.892E+01       0.013     2178.234   0.100E-11
     TRS4 it   5 1.00000000   0.367E+01       0.013     2192.639   0.100E-11
     TRS4 it   6 1.00000000   0.915E+00       0.013     2171.693   0.100E-11
     TRS4 it   7 1.00000000   0.105E+00       0.013     2170.873   0.100E-11
     TRS4 it   8 1.00000000   0.195E-02       0.013     2175.580   0.100E-11
     TRS4 it   9 1.00000000   0.802E-06       0.013     2177.146   0.100E-11
     TRS4 it  10 1.00000000   0.274E-12       0.013     2189.765   0.100E-11
     Final TRS4 iteration   10 1.00000000   0.274E-12
     Chemical potential (mu):       0.05349
 
 PAO| energy:  -190.99489723787826      penalty:   4.9852720317175776E-004
 PAO|LS| adapt:  T T F
 PAO|LS| adapt: scan_steps:    0.0000000000000000       0.22186576617137857        0.0000000000000000     
 PAO|LS| adapt: energies:   -190.99094731209840       -190.99489723787826        0.0000000000000000     
 PAO| ======================= Iteration:        21 =============================

     Lanczos converged:  F threshold:   0.100E-02
     Est. extremal eigenvalues:    0.473E+01   0.136E+00
     Est. condition number :    0.348E+02

 Order=           3
     NS sqrt iter    1 1.00000000   0.122E+01       0.022     2616.235
     NS sqrt iter    2 1.00000000   0.619E+00       0.034     3356.872
     NS sqrt iter    3 1.00000000   0.197E+00       0.034     3310.099
     NS sqrt iter    4 1.00000000   0.243E-01       0.034     3337.363
     NS sqrt iter    5 1.00000000   0.971E-04       0.034     3325.919
     NS sqrt iter    6 1.00000000   0.157E-10       0.017     2129.542
     Symmetrizing Results
     Final NS sqrt iter    6 1.00000000   0.195E-11

     Est. extremal eigenvalues     -0.83400     2.56610  converged:  T
     TRS4 it   1 1.00000000   0.285E+02       0.007     2132.520   0.100E-11
     TRS4 it   2 1.00000000   0.233E+02       0.013     2191.628   0.100E-11
     TRS4 it   3 1.00000000   0.154E+02       0.013     2163.699   0.100E-11
     TRS4 it   4 1.00000000   0.891E+01       0.013     2150.520   0.100E-11
     TRS4 it   5 1.00000000   0.366E+01       0.013     2187.338   0.100E-11
     TRS4 it   6 1.00000000   0.910E+00       0.013     2162.783   0.100E-11
     TRS4 it   7 1.00000000   0.104E+00       0.013     2198.768   0.100E-11
     TRS4 it   8 1.00000000   0.192E-02       0.013     2191.837   0.100E-11
     TRS4 it   9 1.00000000   0.777E-06       0.013     2173.617   0.100E-11
     TRS4 it  10 1.00000000   0.206E-12       0.013     2210.443   0.100E-11
     Final TRS4 iteration   10 1.00000000   0.206E-12
     Chemical potential (mu):       0.05367
 
 PAO| energy:  -190.99698259350015      penalty:   4.8912995981355495E-004
 PAO|LS| adapt:  T T F
 PAO|LS| adapt: scan_steps:    0.0000000000000000       0.44373153234275714        0.0000000000000000     
 PAO|LS| adapt: energies:   -190.99094731209840       -190.99698259350015        0.0000000000000000     
 PAO| ======================= Iteration:        22 =============================

     Lanczos converged:  F threshold:   0.100E-02
     Est. extremal eigenvalues:    0.472E+01   0.136E+00
     Est. condition number :    0.347E+02

 Order=           3
     NS sqrt iter    1 1.00000000   0.121E+01       0.021     2658.554
     NS sqrt iter    2 1.00000000   0.619E+00       0.034     3350.545
     NS sqrt iter    3 1.00000000   0.197E+00       0.034     3343.266
     NS sqrt iter    4 1.00000000   0.243E-01       0.034     3354.485
     NS sqrt iter    5 1.00000000   0.966E-04       0.034     3332.346
     NS sqrt iter    6 1.00000000   0.153E-10       0.016     2144.358
     Symmetrizing Results
     Final NS sqrt iter    6 1.00000000   0.194E-11

     Est. extremal eigenvalues     -0.83400     2.56301  converged:  T
     TRS4 it   1 1.00000000   0.285E+02       0.007     2112.214   0.100E-11
     TRS4 it   2 1.00000000   0.233E+02       0.013     2177.667   0.100E-11
     TRS4 it   3 1.00000000   0.154E+02       0.013     2162.113   0.100E-11
     TRS4 it   4 1.00000000   0.888E+01       0.013     2194.822   0.100E-11
     TRS4 it   5 1.00000000   0.364E+01       0.013     2167.015   0.100E-11
     TRS4 it   6 1.00000000   0.902E+00       0.013     2182.713   0.100E-11
     TRS4 it   7 1.00000000   0.102E+00       0.013     2178.379   0.100E-11
     TRS4 it   8 1.00000000   0.186E-02       0.013     2180.694   0.100E-11
     TRS4 it   9 1.00000000   0.731E-06       0.013     2136.633   0.100E-11
     TRS4 it  10 1.00000000   0.194E-12       0.013     2177.581   0.100E-11
     Final TRS4 iteration   10 1.00000000   0.194E-12
     Chemical potential (mu):       0.05404
 
 PAO| energy:  -190.99547348568296      penalty:   4.7166621174101316E-004
 PAO|LS| Need extra step
 PAO|LS| adapt:  T T T
 PAO|LS| adapt: scan_steps:    0.0000000000000000       0.44373153234275714       0.88746306468551428     
 PAO|LS| adapt: energies:   -190.99094731209840       -190.99698259350015       -190.99547348568296     
 PAO|LS| adapt: suggested step_size:   0.57683746590778062     
 PAO|LS| adapt: predicted energy  -190.99732202202648     
 PAO| ======================= Iteration:        23 =============================

     Lanczos converged:  F threshold:   0.100E-02
     Est. extremal eigenvalues:    0.473E+01   0.136E+00
     Est. condition number :    0.348E+02

 Order=           3
     NS sqrt iter    1 1.00000000   0.122E+01       0.021     2651.026
     NS sqrt iter    2 1.00000000   0.619E+00       0.034     3336.607
     NS sqrt iter    3 1.00000000   0.197E+00       0.034     3330.150
     NS sqrt iter    4 1.00000000   0.243E-01       0.034     3308.276
     NS sqrt iter    5 1.00000000   0.970E-04       0.034     3331.819
     NS sqrt iter    6 1.00000000   0.156E-10       0.017     2126.146
     Symmetrizing Results
     Final NS sqrt iter    6 1.00000000   0.197E-11

     Est. extremal eigenvalues     -0.83400     2.56517  converged:  T
     TRS4 it   1 1.00000000   0.285E+02       0.007     2128.816   0.100E-11
     TRS4 it   2 1.00000000   0.233E+02       0.013     2200.428   0.100E-11
     TRS4 it   3 1.00000000   0.154E+02       0.013     2183.796   0.100E-11
     TRS4 it   4 1.00000000   0.890E+01       0.013     2184.282   0.100E-11
     TRS4 it   5 1.00000000   0.365E+01       0.013     2193.336   0.100E-11
     TRS4 it   6 1.00000000   0.908E+00       0.013     2167.725   0.100E-11
     TRS4 it   7 1.00000000   0.103E+00       0.013     2176.789   0.100E-11
     TRS4 it   8 1.00000000   0.190E-02       0.013     2161.185   0.100E-11
     TRS4 it   9 1.00000000   0.763E-06       0.013     2184.834   0.100E-11
     TRS4 it  10 1.00000000   0.249E-12       0.013     2181.990   0.100E-11
     Final TRS4 iteration   10 1.00000000   0.249E-12
     Chemical potential (mu):       0.05378
 
 PAO| energy:  -190.99732988211096      penalty:   4.8370650496639973E-004
 PAO|CG| trace_G_new    1.6814436953746112E-002
 PAO|CG| trace_G_prev    2.1963427917584540E-002
 PAO|CG| trace_G_mix    1.1734488958505451E-004
 PAO|CG| trace_D    2.9201661568308800E-002
 PAO|CG| trace_D_Gnew  -4.7442266210589946E-005
 PAO|CG| beta:   0.76022249927539298     
 PAO| norm of gradient:  0.12967049376687864     
 PAO| energy improvement:  -6.3825700125619278E-003
 PAO| step     23                 -190.997329882  0.253E-03  0.577E+00     1.973
 PAO|LS| adapt:  T F F
 PAO|LS| adapt: scan_steps:    0.0000000000000000        0.0000000000000000        0.0000000000000000     
 PAO|LS| adapt: energies:   -190.99732988211096        0.0000000000000000        0.0000000000000000     
 PAO| ======================= Iteration:        24 =============================

     Lanczos converged:  F threshold:   0.100E-02
     Est. extremal eigenvalues:    0.472E+01   0.136E+00
     Est. condition number :    0.348E+02

 Order=           3
     NS sqrt iter    1 1.00000000   0.121E+01       0.021     2654.589
     NS sqrt iter    2 1.00000000   0.618E+00       0.034     3358.157
     NS sqrt iter    3 1.00000000   0.197E+00       0.034     3347.817
     NS sqrt iter    4 1.00000000   0.243E-01       0.034     3337.111
     NS sqrt iter    5 1.00000000   0.969E-04       0.034     3335.266
     NS sqrt iter    6 1.00000000   0.155E-10       0.017     2128.096
     Symmetrizing Results
     Final NS sqrt iter    6 1.00000000   0.194E-11

     Est. extremal eigenvalues     -0.83402     2.56214  converged:  T
     TRS4 it   1 1.00000000   0.285E+02       0.007     2107.425   0.100E-11
     TRS4 it   2 1.00000000   0.233E+02       0.013     2177.316   0.100E-11
     TRS4 it   3 1.00000000   0.154E+02       0.013     2180.320   0.100E-11
     TRS4 it   4 1.00000000   0.887E+01       0.013     2186.800   0.100E-11
     TRS4 it   5 1.00000000   0.363E+01       0.013     2165.166   0.100E-11
     TRS4 it   6 1.00000000   0.898E+00       0.013     2198.833   0.100E-11
     TRS4 it   7 1.00000000   0.101E+00       0.013     2190.403   0.100E-11
     TRS4 it   8 1.00000000   0.183E-02       0.013     2177.462   0.100E-11
     TRS4 it   9 1.00000000   0.714E-06       0.013     2190.779   0.100E-11
     TRS4 it  10 1.00000000   0.210E-12       0.013     2190.989   0.100E-11
     Final TRS4 iteration   10 1.00000000   0.210E-12
     Chemical potential (mu):       0.05417
 
 PAO| energy:  -191.00091869722880      penalty:   4.4550637521158145E-004
 PAO|LS| adapt:  T T F
 PAO|LS| adapt: scan_steps:    0.0000000000000000       0.57683746590778062        0.0000000000000000     
 PAO|LS| adapt: energies:   -190.99732988211096       -191.00091869722880        0.0000000000000000     
 PAO| ======================= Iteration:        25 =============================

     Lanczos converged:  F threshold:   0.100E-02
     Est. extremal eigenvalues:    0.470E+01   0.135E+00
     Est. condition number :    0.348E+02

 Order=           3
     NS sqrt iter    1 1.00000000   0.121E+01       0.022     2643.266
     NS sqrt iter    2 1.00000000   0.617E+00       0.034     3340.756
     NS sqrt iter    3 1.00000000   0.197E+00       0.034     3325.754
     NS sqrt iter    4 1.00000000   0.242E-01       0.034     3313.604
     NS sqrt iter    5 1.00000000   0.970E-04       0.034     3314.924
     NS sqrt iter    6 1.00000000   0.156E-10       0.017     2149.064
     Symmetrizing Results
     Final NS sqrt iter    6 1.00000000   0.193E-11

     Est. extremal eigenvalues     -0.83403     2.55906  converged:  T
     TRS4 it   1 1.00000000   0.285E+02       0.007     2106.845   0.100E-11
     TRS4 it   2 1.00000000   0.233E+02       0.013     2157.257   0.100E-11
     TRS4 it   3 1.00000000   0.154E+02       0.013     2174.714   0.100E-11
     TRS4 it   4 1.00000000   0.884E+01       0.013     2169.358   0.100E-11
     TRS4 it   5 1.00000000   0.360E+01       0.013     2177.334   0.100E-11
     TRS4 it   6 1.00000000   0.889E+00       0.013     2203.851   0.100E-11
     TRS4 it   7 1.00000000   0.996E-01       0.013     2183.326   0.100E-11
     TRS4 it   8 1.00000000   0.177E-02       0.013     2195.571   0.100E-11
     TRS4 it   9 1.00000000   0.669E-06       0.013     2192.646   0.100E-11
     TRS4 it  10 1.00000000   0.176E-12       0.013     2197.867   0.100E-11
     Final TRS4 iteration   10 1.00000000   0.176E-12
     Chemical potential (mu):       0.05455
 
 PAO| energy:  -190.99201197198275      penalty:   4.1154598406630715E-004
 PAO|LS| adapt:  T T T
 PAO|LS| adapt: scan_steps:    0.0000000000000000       0.57683746590778062        1.1536749318155612     
 PAO|LS| adapt: energies:   -190.99732988211096       -191.00091869722880       -190.99201197198275     
 PAO|LS| adapt: suggested step_size:   0.45409088140835790     
 PAO|LS| adapt: predicted energy  -191.00120159984152     
 PAO| ======================= Iteration:        26 =============================

     Lanczos converged:  F threshold:   0.100E-02
     Est. extremal eigenvalues:    0.472E+01   0.136E+00
     Est. condition number :    0.348E+02

 Order=           3
     NS sqrt iter    1 1.00000000   0.121E+01       0.021     2653.789
     NS sqrt iter    2 1.00000000   0.618E+00       0.034     3333.230
     NS sqrt iter    3 1.00000000   0.197E+00       0.034     3317.545
     NS sqrt iter    4 1.00000000   0.243E-01       0.034     3317.521
     NS sqrt iter    5 1.00000000   0.969E-04       0.034     3311.228
     NS sqrt iter    6 1.00000000   0.155E-10       0.016     2151.832
     Symmetrizing Results
     Final NS sqrt iter    6 1.00000000   0.194E-11

     Est. extremal eigenvalues     -0.83401     2.56279  converged:  T
     TRS4 it   1 1.00000000   0.285E+02       0.007     2117.277   0.100E-11
     TRS4 it   2 1.00000000   0.233E+02       0.013     2172.327   0.100E-11
     TRS4 it   3 1.00000000   0.154E+02       0.013     2179.095   0.100E-11
     TRS4 it   4 1.00000000   0.888E+01       0.013     2195.087   0.100E-11
     TRS4 it   5 1.00000000   0.363E+01       0.013     2193.001   0.100E-11
     TRS4 it   6 1.00000000   0.900E+00       0.013     2170.584   0.100E-11
     TRS4 it   7 1.00000000   0.102E+00       0.013     2162.987   0.100E-11
     TRS4 it   8 1.00000000   0.185E-02       0.013     2195.703   0.100E-11
     TRS4 it   9 1.00000000   0.724E-06       0.013     2167.454   0.100E-11
     TRS4 it  10 1.00000000   0.192E-12       0.013     2192.575   0.100E-11
     Final TRS4 iteration   10 1.00000000   0.192E-12
     Chemical potential (mu):       0.05409
 
 PAO| energy:  -191.00118965441257      penalty:   4.5327302456643458E-004
 PAO|CG| trace_G_new    1.4097446443528897E-002
 PAO|CG| trace_G_prev    1.6814436953746112E-002
 PAO|CG| trace_G_mix    2.8760821817660429E-004
 PAO|CG| trace_D    3.3763327447416037E-002
 PAO|CG| trace_D_Gnew  -8.7862820799391149E-005
 PAO|CG| beta:   0.82130839488357532     
 PAO| norm of gradient:  0.11873266797107229     
 PAO| energy improvement:  -3.8597723016096097E-003
 PAO| step     26                 -191.001189654  0.232E-03  0.454E+00     1.523
 PAO|LS| adapt:  T F F
 PAO|LS| adapt: scan_steps:    0.0000000000000000        0.0000000000000000        0.0000000000000000     
 PAO|LS| adapt: energies:   -191.00118965441257        0.0000000000000000        0.0000000000000000     
 PAO| ======================= Iteration:        27 =============================

     Lanczos converged:  F threshold:   0.100E-02
     Est. extremal eigenvalues:    0.471E+01   0.135E+00
     Est. condition number :    0.348E+02

 Order=           3
     NS sqrt iter    1 1.00000000   0.121E+01       0.022     2639.669
     NS sqrt iter    2 1.00000000   0.616E+00       0.034     3340.169
     NS sqrt iter    3 1.00000000   0.196E+00       0.034     3334.803
     NS sqrt iter    4 1.00000000   0.242E-01       0.034     3312.979
     NS sqrt iter    5 1.00000000   0.969E-04       0.034     3363.123
     NS sqrt iter    6 1.00000000   0.157E-10       0.017     2127.288
     Symmetrizing Results
     Final NS sqrt iter    6 1.00000000   0.194E-11

     Est. extremal eigenvalues     -0.83403     2.56094  converged:  T
     TRS4 it   1 1.00000000   0.285E+02       0.007     2095.708   0.100E-11
     TRS4 it   2 1.00000000   0.233E+02       0.013     2168.450   0.100E-11
     TRS4 it   3 1.00000000   0.154E+02       0.013     2169.463   0.100E-11
     TRS4 it   4 1.00000000   0.885E+01       0.013     2190.112   0.100E-11
     TRS4 it   5 1.00000000   0.361E+01       0.013     2179.270   0.100E-11
     TRS4 it   6 1.00000000   0.891E+00       0.013     2171.165   0.100E-11
     TRS4 it   7 1.00000000   0.100E+00       0.013     2172.645   0.100E-11
     TRS4 it   8 1.00000000   0.178E-02       0.013     2185.275   0.100E-11
     TRS4 it   9 1.00000000   0.679E-06       0.013     2191.772   0.100E-11
     TRS4 it  10 1.00000000   0.181E-12       0.013     2178.601   0.100E-11
     Final TRS4 iteration   10 1.00000000   0.181E-12
     Chemical potential (mu):       0.05449
 
 PAO| energy:  -191.00384220757843      penalty:   4.1451182421276976E-004
 PAO|LS| adapt:  T T F
 PAO|LS| adapt: scan_steps:    0.0000000000000000       0.45409088140835790        0.0000000000000000     
 PAO|LS| adapt: energies:   -191.00118965441257       -191.00384220757843        0.0000000000000000     
 PAO| ======================= Iteration:        28 =============================

     Lanczos converged:  F threshold:   0.100E-02
     Est. extremal eigenvalues:    0.469E+01   0.135E+00
     Est. condition number :    0.349E+02

 Order=           3
     NS sqrt iter    1 1.00000000   0.121E+01       0.021     2664.445
     NS sqrt iter    2 1.00000000   0.615E+00       0.034     3343.438
     NS sqrt iter    3 1.00000000   0.196E+00       0.034     3350.556
     NS sqrt iter    4 1.00000000   0.241E-01       0.034     3338.803
     NS sqrt iter    5 1.00000000   0.972E-04       0.034     3345.508
     NS sqrt iter    6 1.00000000   0.161E-10       0.017     2153.091
     Symmetrizing Results
     Final NS sqrt iter    6 1.00000000   0.194E-11

     Est. extremal eigenvalues     -0.83404     2.55906  converged:  T
     TRS4 it   1 1.00000000   0.285E+02       0.007     2107.206   0.100E-11
     TRS4 it   2 1.00000000   0.233E+02       0.013     2196.615   0.100E-11
     TRS4 it   3 1.00000000   0.154E+02       0.013     2191.880   0.100E-11
     TRS4 it   4 1.00000000   0.883E+01       0.013     2191.004   0.100E-11
     TRS4 it   5 1.00000000   0.359E+01       0.013     2170.110   0.100E-11
     TRS4 it   6 1.00000000   0.882E+00       0.013     2173.061   0.100E-11
     TRS4 it   7 1.00000000   0.982E-01       0.013     2159.581   0.100E-11
     TRS4 it   8 1.00000000   0.172E-02       0.013     2159.860   0.100E-11
     TRS4 it   9 1.00000000   0.638E-06       0.013     2195.542   0.100E-11
     TRS4 it  10 1.00000000   0.137E-12       0.013     2163.113   0.100E-11
     Final TRS4 iteration   10 1.00000000   0.137E-12
     Chemical potential (mu):       0.05488
 
 PAO| energy:  -190.99885873866205      penalty:   3.7945921028440102E-004
 PAO|LS| adapt:  T T T
 PAO|LS| adapt: scan_steps:    0.0000000000000000       0.45409088140835790       0.90818176281671581     
 PAO|LS| adapt: energies:   -191.00118965441257       -191.00384220757843       -190.99885873866205     
 PAO|LS| adapt: suggested step_size:   0.38478466566913860     
 PAO|LS| adapt: predicted energy  -191.00393114734604     
 PAO| ======================= Iteration:        29 =============================

     Lanczos converged:  F threshold:   0.100E-02
     Est. extremal eigenvalues:    0.471E+01   0.135E+00
     Est. condition number :    0.348E+02

 Order=           3
     NS sqrt iter    1 1.00000000   0.121E+01       0.021     2668.757
     NS sqrt iter    2 1.00000000   0.617E+00       0.034     3347.937
     NS sqrt iter    3 1.00000000   0.197E+00       0.034     3323.571
     NS sqrt iter    4 1.00000000   0.242E-01       0.034     3365.093
     NS sqrt iter    5 1.00000000   0.969E-04       0.034     3347.970
     NS sqrt iter    6 1.00000000   0.157E-10       0.017     2143.156
     Symmetrizing Results
     Final NS sqrt iter    6 1.00000000   0.194E-11

     Est. extremal eigenvalues     -0.83403     2.56122  converged:  T
     TRS4 it   1 1.00000000   0.285E+02       0.007     2101.617   0.100E-11
     TRS4 it   2 1.00000000   0.233E+02       0.013     2152.729   0.100E-11
     TRS4 it   3 1.00000000   0.154E+02       0.013     2169.356   0.100E-11
     TRS4 it   4 1.00000000   0.886E+01       0.013     2185.198   0.100E-11
     TRS4 it   5 1.00000000   0.362E+01       0.013     2183.875   0.100E-11
     TRS4 it   6 1.00000000   0.893E+00       0.013     2170.617   0.100E-11
     TRS4 it   7 1.00000000   0.100E+00       0.013     2150.276   0.100E-11
     TRS4 it   8 1.00000000   0.179E-02       0.013     2190.011   0.100E-11
     TRS4 it   9 1.00000000   0.686E-06       0.013     2184.482   0.100E-11
[...]
     Symmetrizing Results
     Final NS sqrt iter    6 1.00000000   0.212E-11

     Est. extremal eigenvalues     -0.83384     2.55810  converged:  T
     TRS4 it   1 1.00000000   0.287E+02       0.007     2115.021   0.100E-11
     TRS4 it   2 1.00000000   0.235E+02       0.013     2192.638   0.100E-11
     TRS4 it   3 1.00000000   0.155E+02       0.013     2197.208   0.100E-11
     TRS4 it   4 1.00000000   0.920E+01       0.013     2134.100   0.100E-11
     TRS4 it   5 1.00000000   0.411E+01       0.013     2192.420   0.100E-11
     TRS4 it   6 1.00000000   0.127E+01       0.013     2199.372   0.100E-11
     TRS4 it   7 1.00000000   0.221E+00       0.013     2176.417   0.100E-11
     TRS4 it   8 1.00000000   0.101E-01       0.013     2198.901   0.100E-11
     TRS4 it   9 1.00000000   0.234E-04       0.013     2156.421   0.100E-11
     TRS4 it  10 1.00000000   0.176E-09       0.013     2204.850   0.100E-11
     Final TRS4 iteration   10 1.00000000   0.176E-09
     Chemical potential (mu):       0.02782
 
 PAO| energy:  -190.60609863882581      penalty:   2.9830405596811258E-008
 PAO| Writing restart file.
     Est. extremal eigenvalues     -0.83384     2.55810  converged:  T
     TRS4 it   1 1.00000000   0.287E+02       0.007     2119.545   0.100E-11
     TRS4 it   2 1.00000000   0.235E+02       0.013     2160.668   0.100E-11
     TRS4 it   3 1.00000000   0.155E+02       0.013     2174.458   0.100E-11
     TRS4 it   4 1.00000000   0.920E+01       0.013     2164.696   0.100E-11
     TRS4 it   5 1.00000000   0.411E+01       0.013     2169.669   0.100E-11
     TRS4 it   6 1.00000000   0.127E+01       0.013     2179.533   0.100E-11
     TRS4 it   7 1.00000000   0.221E+00       0.013     2187.385   0.100E-11
     TRS4 it   8 1.00000000   0.101E-01       0.013     2167.251   0.100E-11
     TRS4 it   9 1.00000000   0.234E-04       0.013     2168.979   0.100E-11
     TRS4 it  10 1.00000000   0.176E-09       0.013     2198.498   0.100E-11
     Final TRS4 iteration   10 1.00000000   0.176E-09
     Chemical potential (mu):       0.02782

 SCF     1     -1103.062204299     -1103.062204299    1.754700

*********************************************************
 Using MIXING_FRACTION=0.450 to mix KS matrix:  iscf=  2
 KS_nw=0.450*KS + 0.550*KS_old
*********************************************************
     Est. extremal eigenvalues     -0.83384     2.55810  converged:  T
     TRS4 it   1 1.00000000   0.287E+02       0.007     2125.224   0.100E-11
     TRS4 it   2 1.00000000   0.235E+02       0.013     2175.232   0.100E-11
     TRS4 it   3 1.00000000   0.155E+02       0.013     2188.276   0.100E-11
     TRS4 it   4 1.00000000   0.920E+01       0.013     2177.502   0.100E-11
     TRS4 it   5 1.00000000   0.411E+01       0.013     2169.032   0.100E-11
     TRS4 it   6 1.00000000   0.127E+01       0.013     2182.398   0.100E-11
     TRS4 it   7 1.00000000   0.221E+00       0.013     2157.404   0.100E-11
     TRS4 it   8 1.00000000   0.101E-01       0.013     2156.274   0.100E-11
     TRS4 it   9 1.00000000   0.234E-04       0.013     2179.801   0.100E-11
     TRS4 it  10 1.00000000   0.176E-09       0.013     2165.105   0.100E-11
     Final TRS4 iteration   10 1.00000000   0.176E-09
     Chemical potential (mu):       0.02782

 SCF     2     -1103.062204299        -0.000000000    1.767218


 SCF run converged in     2 steps.

 PAO| Storing density matrix for ASPC guess in slot:           1

 ENERGY| Total FORCE_EVAL ( QS ) energy [a.u.]:            -1103.062204299473024

 -------------------------------------------------------------------------------
 -                                                                             -
 -                                DBCSR STATISTICS                             -
 -                                                                             -
 -------------------------------------------------------------------------------
 COUNTER                                    TOTAL       BLAS       SMM       ACC
 flops     5 x     5 x     4             23116800       0.0%    100.0%      0.0%     
 flops    13 x     5 x     4             29818880       0.0%    100.0%      0.0%     
 flops     5 x    13 x     4             29818880       0.0%    100.0%      0.0%     
 flops    13 x    13 x     4             39370240       0.0%    100.0%      0.0%     
 flops     4 x     4 x     5           6326845440       0.0%    100.0%      0.0%     
 flops     5 x     4 x     5           7818444800       0.0%    100.0%      0.0%     
 flops     4 x     4 x    13           8224899072       0.0%    100.0%      0.0%     
 flops    13 x     4 x     5          10163978240       0.0%    100.0%      0.0%     
 flops     5 x     4 x    13          10163978240       0.0%    100.0%      0.0%     
 flops    13 x     4 x    13          13213171712       0.0%    100.0%      0.0%     
 flops     5 x     4 x     4         406577633440       0.0%    100.0%      0.0%     
 flops    13 x     4 x     4         558287862080       0.0%    100.0%      0.0%     
 flops     4 x     4 x     4       28289506279040       0.0%    100.0%      0.0%     
 flops inhomo. stacks                           0       0.0%      0.0%      0.0%
 flops total                        29.310405E+12       0.0%    100.0%      0.0%
 flops max/rank                    924.970800E+09       0.0%    100.0%      0.0%
 matmuls inhomo. stacks                         0       0.0%      0.0%      0.0%
 matmuls total                       225042447216       0.0%    100.0%      0.0%
 number of processed stacks             229885514       0.0%    100.0%      0.0%
 average stack size                                     0.0     978.9       0.0
 marketing flops                    50.916745E+12
 -------------------------------------------------------------------------------
 # multiplications                          47583
 max memory usage/rank             615.641088E+06
 # max total images/rank                        2
 # max 3D layers                                1
 # MPI messages exchanged                19794528
 MPI messages size (bytes):
  total size                         2.338681E+12
  min size                           0.000000E+00
  max size                         541.696000E+03
  average size                     118.147867E+03
 MPI breakdown and total messages size (bytes):
             size <=      128              868383                     1536
       128 < size <=     8192              295458               1108332288
      8192 < size <=    32768              102957               2238535168
     32768 < size <=   131072             8458828             618259791232
    131072 < size <=  4194304            10068902            1717470966272
   4194304 < size <= 16777216                   0                        0
  16777216 < size                               0                        0
 -------------------------------------------------------------------------------

 *** WARNING in dbcsr_mm.F:301 :: Using a non-square number of MPI ranks ***
 *** might lead to poor performance. Used ranks: 32 Suggested: 36 64     ***

 -------------------------------------------------------------------------------
 -                                                                             -
 -                      DBCSR MESSAGE PASSING PERFORMANCE                      -
 -                                                                             -
 -------------------------------------------------------------------------------
 ROUTINE             CALLS      AVE VOLUME [Bytes]
 MP_Bcast               14                     12.
 MP_Allreduce       284520                     37.
 MP_Alltoall        123589                  14857.
 MP_ISend          1589266                  55160.
 MP_IRecv          1555960                  56376.
 -------------------------------------------------------------------------------

 -------------------------------------------------------------------------------
 -                                                                             -
 -                                DBM STATISTICS                               -
 -                                                                             -
 -------------------------------------------------------------------------------
    M  x    N  x    K                                          COUNT     PERCENT
 -------------------------------------------------------------------------------

 -------------------------------------------------------------------------------
 -                                                                             -
 -                                GRID STATISTICS                              -
 -                                                                             -
 -------------------------------------------------------------------------------
 LP    KERNEL             BACKEND                              COUNT     PERCENT
 2     collocate ortho    CPU                               11479370      28.84%
 2     integrate ortho    CPU                               11479370      28.84%
 3     collocate ortho    CPU                                7372554      18.52%
 3     integrate ortho    CPU                                7372554      18.52%
 4     collocate ortho    CPU                                1046458       2.63%
 4     integrate ortho    CPU                                1046458       2.63%
 0     collocate general  CPU                                   6144       0.02%
 -------------------------------------------------------------------------------

 MEMORY| Estimated peak process memory [MiB]                                 588

 -------------------------------------------------------------------------------
 -                                                                             -
 -                         MESSAGE PASSING PERFORMANCE                         -
 -                                                                             -
 -------------------------------------------------------------------------------

 ROUTINE             CALLS      AVE VOLUME [Bytes]
 MP_Group                5
 MP_Bcast           352291                   1992.
 MP_Allreduce       875592                    514.
 MP_Sync                 5
 MP_Alltoall           369                3241351.
 MP_SendRecv          1302                  18832.
 MP_ISendRecv         1302                  18832.
 MP_Wait              3696
 MP_ISend             2166                 108220.
 MP_IRecv             2166                 108236.
 -------------------------------------------------------------------------------


 -------------------------------------------------------------------------------
 -                                                                             -
 -                           R E F E R E N C E S                               -
 -                                                                             -
 -------------------------------------------------------------------------------
 
 CP2K version 2024.3 (Development Version), the CP2K developers group (2024).
 CP2K is freely available from https://www.cp2k.org/ .
 
 T. D. Kuehne, M. Iannuzzi, M. Del Ben, V. V. Rybkin, P. Seewald, F. Stein, T. 
 Laino, R. Z. Khaliullin, O. Schuett, F. Schiffmann, D. Golze, J. Wilhelm, S. 
 Chulkov, M. H. Bani-Hashemian, V. Weber, U. Borstnik, M. Taillefumier, A. S. 
 Jakobovits, A. Lazzaro, H. Pabst, T. Mueller, R. Schade, M. Guidon, S. 
 Andermatt, N. Holmberg, G. K. Schenter, A. Hehn, A. Bussy, F. Belleflamme, G. 
 Tabacchi, A. Gloess, M. Lass, I. Bethune, C. J. Mundy, C. Plessl, M. Watkins, 
 J. VandeVondele, M. Krack, J. Hutter.
 J. Chem. Phys. 152, 194103 (2020).
 CP2K: An electronic structure and molecular dynamics software package - 
 Quickstep: Efficient and accurate electronic structure calculations.
 https://doi.org/10.1063/5.0007045

 O. Schuett, J. VandeVondele.
 J. Chem. Theory Comput. 14, 4168-4175 (2018).
 Machine Learning Adaptive Basis Sets for Efficient Large Scale Density 
 Functional Theory Simulation.
 https://doi.org/10.1021/acs.jctc.8b00378

 O. Schuett, P. Messmer, J. Hutter, J. VandeVondele.
 Electronic Structure Calculations on Graphics Processing Units, 173-190 (2016).
 GPU-Accelerated Sparse Matrix-Matrix Multiplication for Linear Scaling Density 
 Functional Theory.
 https://doi.org/10.1002/9781118670712.ch8

 A. Heinecke, G. Henry, M. Hutchinson, H. Pabst.
 Proceedings of Intl. Supercomputing Conference, 981-991 (2016).
 LIBXSMM: Accelerating Small Matrix Multiplications by Runtime Code Generation.
 https://doi.org/10.1109/SC.2016.83

 J. Hutter, M. Iannuzzi, F. Schiffmann, J. VandeVondele.
 WIREs Comput Mol Sci. 4, 15-25 (2014).
 CP2K: atomistic simulations of condensed matter systems.
 https://doi.org/10.1002/wcms.1159

 U. Borstnik, J. VandeVondele, V. Weber, J. Hutter.
 Parallel Comput. 40, 47-58 (2014).
 Sparse matrix multiplication: The distributed block-compressed sparse row 
 library.
 https://doi.org/10.1016/j.parco.2014.03.012

 A. Marek, V. Blum, R. Johanni, V. Havu, B. Lang, T. Auckenthaler, A. Heinecke, 
 H. Bungartz, H. Lederer.
 J. Phys. Condens. Matter 26, 213201 (2014).
 The ELPA library: scalable parallel eigenvalue solutions for electronic 
 structure theory and computational science.
 https://doi.org/10.1088/0953-8984/26/21/213201

 J. VandeVondele, U. Borstnik, J. Hutter.
 J. Chem. Theory Comput. 8, 3565-3573 (2012).
 Linear Scaling Self-Consistent Field Calculations with Millions of Atoms in the 
 Condensed Phase.
 https://doi.org/10.1021/ct200897x

 J. VandeVondele, J. Hutter.
 J. Chem. Phys. 127, 114105 (2007).
 Gaussian basis sets for accurate calculations on molecular systems in gas and 
 condensed phases.
 https://doi.org/10.1063/1.2770708

 J. VandeVondele, M. Krack, F. Mohamed, M. Parrinello, T. Chassaing, J. Hutter.
 Comput. Phys. Commun. 167, 103-128 (2005).
 QUICKSTEP: Fast and accurate density functional calculations using a mixed 
 Gaussian and plane waves approach.
 https://doi.org/10.1016/j.cpc.2004.12.014

 M. Krack.
 Theor. Chem. Acc. 114, 145-152 (2005).
 Pseudopotentials for H to Kr optimized for gradient-corrected 
 exchange-correlation functionals.
 https://doi.org/10.1007/s00214-005-0655-y

 M. Frigo, S. G. Johnson.
 Proc. IEEE 93, 216-231 (2005).
 The design and implementation of FFTW3.
 https://doi.org/10.1109/JPROC.2004.840301

 A. M. N. Niklasson, C. J. Tymczak, M. Challacombe.
 J. Chem. Phys. 118, 8611-8620 (2003).
 Trace resetting density matrix purification in O(N) self-consistent-field 
 theory.
 https://doi.org/10.1063/1.1559913

 C. Hartwigsen, S. Goedecker, J. Hutter.
 Phys. Rev. B 58, 3641-3662 (1998).
 Relativistic separable dual-space Gaussian pseudopotentials from H to Rn.
 https://doi.org/10.1103/PhysRevB.58.3641

 G. Lippert, J. Hutter, M. Parrinello.
 Mol. Phys. 92, 477-487 (1997).
 A hybrid Gaussian and plane wave density functional scheme.
 https://doi.org/10.1080/002689797170220

 S. Goedecker, M. Teter, J. Hutter.
 Phys. Rev. B 54, 1703-1710 (1996).
 Separable dual-space Gaussian pseudopotentials.
 https://doi.org/10.1103/PhysRevB.54.1703

 J. P. Perdew, K. Burke, M. Ernzerhof.
 Phys. Rev. Lett. 77, 3865-3868 (1996).
 Generalized gradient approximation made simple.
 https://doi.org/10.1103/PhysRevLett.77.3865


 -------------------------------------------------------------------------------
 -                                                                             -
 -                                T I M I N G                                  -
 -                                                                             -
 -------------------------------------------------------------------------------
 SUBROUTINE                       CALLS  ASD         SELF TIME        TOTAL TIME
                                MAXIMUM       AVERAGE  MAXIMUM  AVERAGE  MAXIMUM
 CP2K                                 1  1.0    0.012    0.015  425.343  425.344
 qs_energies                          1  2.0    0.000    0.000  425.196  425.196
 ls_scf                               1  3.0    0.000    0.000  424.117  424.118
 pao_update                           6  4.0    0.006    0.026  398.047  398.047
 pao_calc_energy                    795  5.0    0.003    0.018  355.408  355.409
 dbcsr_multiply_generic           47583  8.4    1.305    1.407  332.769  332.990
 multiply_cannon                  47583  9.4    2.474    2.855  270.078  272.061
 multiply_cannon_loop             47583 10.4    1.793    2.123  259.964  262.445
 ls_scf_init_matrix_S               801  7.0    0.008    0.009  199.124  199.173
 pao_rebuild_S                      795  6.0    0.002    0.003  197.612  197.662
 matrix_sqrt_Newton_Schulz          801  8.0    0.162    0.285  184.083  184.112
 multiply_cannon_multrec         380664 11.4  168.279  170.451  169.066  171.245
 pao_dm_trs4                        795  6.0    0.006    0.006  157.424  157.473
 density_matrix_trs4                808  7.0    0.194    0.329  151.348  151.429
 mp_waitall_1                   3046842 12.6   87.717   93.824   87.717   93.824
 multiply_cannon_metrocomm3      380664 11.4    0.668    0.793   70.630   75.045
 arnoldi_extremal                  1609  8.5    0.013    0.015   58.041   58.076
 arnoldi_normal_ev                 1609  9.5    0.035    0.059   58.025   58.061
 build_subspace                    5682 10.5    0.348    0.377   51.009   51.044
 make_m2s                         95166  9.4    0.516    0.656   48.546   49.534
 dbcsr_matrix_vector_mult        173678 11.5    0.746    1.122   48.032   48.518
 make_images                      95166 10.4    6.949    7.286   47.256   48.160
 pao_calc_AB                       1055  5.8    0.002    0.002   42.192   42.194
 pao_calc_AB_equi                  1055  6.8    0.039    0.097   42.190   42.193
 pao_calc_grad_lnv_wrt_AB           259  7.0    0.019    0.022   41.786   41.814
 dbcsr_matrix_vector_mult_local  173678 12.5   40.940   41.265   41.134   41.458
 make_images_data                 95166 11.4    0.822    1.030   20.870   22.915
 ls_scf_main                          6  4.0    0.000    0.001   22.858   22.859
 ls_scf_dm_to_ks                     13  5.0    0.000    0.000   20.283   20.285
 hybrid_alltoall_any              96764 12.4    0.848    1.658   16.373   19.410
 matrix_qs_to_ls                   1609  7.5    0.016    0.021   16.944   17.033
 calculate_norms                 709392 11.4   11.010   12.182   11.010   12.182
 qs_ks_update_qs_env                 14  6.0    0.000    0.000   12.172   12.175
 rebuild_ks_matrix                   14  7.0    0.000    0.000   12.162   12.165
 qs_ks_build_kohn_sham_matrix        14  8.0    0.002    0.003   12.162   12.165
 make_images_pack                 95166 11.4   10.428   10.682   10.557   10.812
 mp_sum_l                        193912  9.5    6.979   10.406    6.979   10.406
 qs_rho_update_rho_low               14  6.0    0.000    0.000    9.583    9.585
 calculate_rho_elec                  14  7.0    0.005    0.005    9.583    9.585
 sum_up_and_integrate                14  9.0    0.000    0.000    9.198    9.201
 integrate_v_rspace                  14 10.0    0.000    0.001    9.185    9.188
 grid_collocate_task_list            14  8.0    8.497    8.608    8.497    8.608
 -------------------------------------------------------------------------------

 The number of warnings for this run is : 1
 
 -------------------------------------------------------------------------------
  **** **** ******  **  PROGRAM ENDED AT                 2024-09-24 04:50:46.229
 ***** ** ***  *** **   PROGRAM RAN ON                                    moritz
 **    ****   ******    PROGRAM RAN BY                                       ole
 ***** **    ** ** **   PROGRAM PROCESS ID                                168838
  **** **  *******  **  PROGRAM STOPPED IN /home/ole/git/pao_ml_equivar/64H2O_MD
                                           /Frame5200
