 DBCSR| CPU Multiplication driver                                           XSMM (U)
 DBCSR| Multrec recursion limit                                              512 (U)
 DBCSR| Multiplication stack size                                           1000 (D)
 DBCSR| Maximum elements for images                                    UNLIMITED (U)
 DBCSR| Multiplicative factor virtual images                                   1 (U)
 DBCSR| Use multiplication densification                                       T (D)
 DBCSR| Multiplication size stacks                                             3 (U)
 DBCSR| Use memory pool for CPU allocation                                     F (U)
 DBCSR| Number of 3D layers                                               SINGLE (U)
 DBCSR| Use MPI memory allocation                                              F (U)
 DBCSR| Use RMA algorithm                                                      F (U)
 DBCSR| Use Communication thread                                               T (U)
 DBCSR| Communication thread load                                             87 (D)
 DBCSR| MPI: My process id                                                     0
 DBCSR| MPI: Number of processes                                              32
 DBCSR| OMP: Current number of threads                                         1
 DBCSR| OMP: Max number of threads                                             1
 DBCSR| Split modifier for TAS multiplication algorithm                  1.0E+00 (U)


  **** **** ******  **  PROGRAM STARTED AT               2024-09-23 23:23:06.448
 ***** ** ***  *** **   PROGRAM STARTED ON                                moritz
 **    ****   ******    PROGRAM STARTED BY                                   ole
 ***** **    ** ** **   PROGRAM PROCESS ID                                164214
  **** **  *******  **  PROGRAM STARTED IN /home/ole/git/pao_ml_equivar/64H2O_MD
                                           /Frame0900

 CP2K| version string:                 CP2K version 2024.3 (Development Version)
 CP2K| source code revision number:                                  git:3f890bb
 CP2K| cp2kflags: omp libint fftw3 libxc libgrpp pexsi elpa parallel scalapack c
 CP2K|            osma quip deepmd xsmm plumed2 spglib libdftd4 sirius libvori l
 CP2K|            libbqb libvdwxc hdf5
 CP2K| is freely available from                            https://www.cp2k.org/
 CP2K| Program compiled at                          Mo 23 Sep 2024 17:17:04 CEST
 CP2K| Program compiled on                                                moritz
 CP2K| Program compiled for                                                local
 CP2K| Data directory path                               /home/ole/git/cp2k/data
 CP2K| Input file name                                           64H2O_pao44.inp

 GLOBAL| Force Environment number                                              1
 GLOBAL| Basis set file name                                        BASIS_MOLOPT
 GLOBAL| Potential file name                                      GTH_POTENTIALS
 GLOBAL| MM Potential file name                                     MM_POTENTIAL
 GLOBAL| Coordinate file name                                         coords.xyz
 GLOBAL| Method name                                                        CP2K
 GLOBAL| Project name                                                64H2O_pao44
 GLOBAL| Run type                                                         ENERGY
 GLOBAL| FFT library                                                       FFTW3
 GLOBAL| Diagonalization library                                            ELPA
 GLOBAL| DGEMM library                                                      BLAS
 GLOBAL| Minimum number of eigenvectors for ELPA usage                        16
 GLOBAL| Orthonormality check for eigenvectors                          DISABLED
 GLOBAL| Matrix multiplication library                                     COSMA
 GLOBAL| All-to-all communication in single precision                          F
 GLOBAL| FFTs using library dependent lengths                                  F
 GLOBAL| Grid backend                                                       AUTO
 GLOBAL| Global print level                                                  LOW
 GLOBAL| MPI I/O enabled                                                       T
 GLOBAL| Total number of message passing processes                            32
 GLOBAL| Number of threads for this process                                    1
 GLOBAL| This output is from process                                           0
 GLOBAL| Stack size for threads created by OpenMP (OMP_STACKSIZE)        default
 GLOBAL| CPU model name           AMD Ryzen Threadripper 3970X 32-Core Processor
 GLOBAL| CPUID                                                              1002

 MEMORY| system memory details [Kb]
 MEMORY|                        rank 0           min           max       average
 MEMORY| MemTotal            131752136     131752136     131752136     131752136
 MEMORY| MemFree             114432296     114432296     114432296     114432296
 MEMORY| Buffers               1987700       1987700       1987700       1987700
 MEMORY| Cached                8590632       8590628       8590632       8590628
 MEMORY| Slab                  1635768       1635768       1635768       1635768
 MEMORY| SReclaimable          1141440       1141440       1141440       1141440
 MEMORY| MemLikelyFree       126152068     126152064     126152068     126152064


 GENERATE|  Preliminary Number of Bonds generated:                             0
 GENERATE|  Achieved consistency in connectivity generation.

 *******************************************************************************
 *******************************************************************************
 **                                                                           **
 **     #####                         ##              ##                      **
 **    ##   ##            ##          ##              ##                      **
 **   ##     ##                       ##            ######                    **
 **   ##     ##  ##   ##  ##   #####  ##  ##   ####   ##    #####    #####    **
 **   ##     ##  ##   ##  ##  ##      ## ##   ##      ##   ##   ##  ##   ##   **
 **   ##  ## ##  ##   ##  ##  ##      ####     ###    ##   ######   ######    **
 **    ##  ###   ##   ##  ##  ##      ## ##      ##   ##   ##       ##        **
 **     #######   #####   ##   #####  ##  ##  ####    ##    #####   ##        **
 **           ##                                                    ##        **
 **                                                                           **
 **                                                ... make the atoms dance   **
 **                                                                           **
 **            Copyright (C) by CP2K developers group (2000-2024)             **
 **                      J. Chem. Phys. 152, 194103 (2020)                    **
 **                                                                           **
 *******************************************************************************


 TOTAL NUMBERS AND MAXIMUM NUMBERS

  Total number of            - Atomic kinds:                                   2
                             - Atoms:                                        192
                             - Shell sets:                                   192
                             - Shells:                                       704
                             - Primitive Cartesian functions:               1344
                             - Cartesian basis functions:                   1536
                             - Spherical basis functions:                   1472

  Maximum angular momentum of- Orbital basis functions:                        2
                             - Local part of the GTH pseudopotential:          2
                             - Non-local part of the GTH pseudopotential:      0

 ------------------------------ Linear scaling SCF -----------------------------
 eps_scf:                                                              0.100E-07
 eps_filter:                                                           0.100E-11
 mixing_fraction:                                                      0.450E+00
 max_scf:                                                                     25
 fixed chemical potential (mu)                                                 F
 has unit metric:                                                              F
 Computing inv(S):                                                             T
 Computing sqrt(S):                                                            T
 Computing S preconditioner                                                    F
 S sqrt method:                                                     NEWTONSCHULZ
 S sqrt order:                                                                 3
 Extrapolation order:                                                          1
 S preconditioner type                                                      NONE
 Polarized Atomic Orbitals (PAO)                                               T
 Purification method                                   Trace resetting 4th order
 Cluster type                                                             ATOMIC
 Computing Chebyshev                                                       FALSE
 Using PAO                                                                     T
 -------------------------------------------------------------------------------

 
 PAO|                                  EPS_PAO                           0.5E-06
 PAO|                                  MIXING                            0.5E+00
 PAO|                                  MAX_PAO                              1500
 PAO|                                  MAX_CYCLES                           1000
 PAO|                                  PARAMETERIZATION              EQUIVARIANT
 PAO|                                  PRECONDITION                            F
 PAO|                                  REGULARIZATION                    0.0E+00
 PAO|                                  EPS_PGF                           0.1E-09
 PAO|                                  PENALTY_DISTANCE                  0.1E+00
 PAO|                                  PENALTY_STRENGTH                  0.5E-02
 PAO|                                  LINPOT_PRECONDITION_DELTA         0.0E+00
 PAO|                                  LINPOT_INITGUESS_DELT             0.0E+00
 PAO|                                  LINPOT_REGULARIZATION_DELTA       0.0E+00
 PAO|                                  LINPOT_REGULARIZATION_STRENGTH    0.0E+00
 PAO|                                  OPTIMIZER                              CG
 PAO|                                  CG_INIT_STEPS                           2
 PAO|                                  CG_RESET_LIMIT                    0.1E+00
 PAO|                                  CHECK_UNITARY_TOL                -0.1E+01
 PAO|                                  CHECK_GRADIENT_TOL               -0.1E+01
 PAO|                                  NUM_GRADIENT_ORDER                      2
 PAO|                                  NUM_GRADIENT_EPS                  0.1E-07
 PAO|                                  PRINT%RESTART%WRITE_CYCLES            100
 PAO|                                  RESTART_FILE 
 PAO|                                  PREOPT_DM_FILE 64H2O_ref_LS_DM_SPIN_1_RESTART.dm
 PAO|                                  MACHINE_LEARNING%METHOD       GAUSSIAN_PR
 PAO|                                  MACHINE_LEARNING%PRIOR               ZERO
 PAO|                                  MACHINE_LEARNING%DESCRIPTOR     POTENTIAL
 PAO|                                  MACHINE_LEARNING%TOLERANCE        0.1E-01
 PAO|                                  MACHINE_LEARNING%GP_NOISE_VAR     0.1E+00
 PAO|                                  MACHINE_LEARNING%GP_SCALE         0.5E-01
 

 Calculating atomic Fock matrix for atomic kind: O

 Electronic structure
    Total number of core electrons                                          2.00
    Total number of valence electrons                                       6.00
    Total number of electrons                                               8.00
    Multiplicity                                                   not specified
    S   [  2.00] 2.00
    P      4.00


 *******************************************************************************
                  Iteration          Convergence                     Energy [au]
 *******************************************************************************
                          1        0.708315                     -15.576645311500
                          2        0.608879                     -15.587933561584
                          3        0.102828E-01                 -15.656849565404
                          4        0.113889E-02                 -15.656866888140
                          5        0.434197E-03                 -15.656867072159
                          6        0.263771E-03                 -15.656867091904
                          7        0.478536E-06                 -15.656867103452

 Energy components [Hartree]           Total Energy ::          -15.656867103452
                                        Band Energy ::           -3.000198112285
                                     Kinetic Energy ::           11.759971203220
                                   Potential Energy ::          -27.416838306672
                                      Virial (-V/T) ::            2.331369510426
                                        Core Energy ::          -26.140716385623
                                          XC Energy ::           -3.154051012914
                                     Coulomb Energy ::           13.637900295084
                       Total Pseudopotential Energy ::          -37.935781716540
                       Local Pseudopotential Energy ::          -39.218907440693
                    Nonlocal Pseudopotential Energy ::            1.283125724153
                                        Confinement ::            0.350941276976

 Orbital energies  State     L     Occupation   Energy[a.u.]          Energy[eV]

                       1     0          2.000      -0.864471          -23.523463

                       1     1          4.000      -0.317814           -8.648154


 Total Electron Density at R=0:                                         0.000068

 Calculating atomic Fock matrix for atomic kind: H

 Electronic structure
    Total number of core electrons                                          0.00
    Total number of valence electrons                                       1.00
    Total number of electrons                                               1.00
    Multiplicity                                                   not specified
    S      1.00


 *******************************************************************************
                  Iteration          Convergence                     Energy [au]
 *******************************************************************************
                          1        0.437545E-02                  -0.424159432110
                          2        0.531356E-03                  -0.424178438213
                          3        0.259176E-06                  -0.424178722480

 Energy components [Hartree]           Total Energy ::           -0.424178722480
                                        Band Energy ::           -0.199015229016
                                     Kinetic Energy ::            0.464007633961
                                   Potential Energy ::           -0.888186356441
                                      Virial (-V/T) ::            1.914163240935
                                        Core Energy ::           -0.479160803564
                                          XC Energy ::           -0.244352904054
                                     Coulomb Energy ::            0.299334985138
                       Total Pseudopotential Energy ::           -0.962295316385
                       Local Pseudopotential Energy ::           -0.962295316385
                    Nonlocal Pseudopotential Energy ::            0.000000000000
                                        Confinement ::            0.191268788606

 Orbital energies  State     L     Occupation   Energy[a.u.]          Energy[eV]

                       1     0          1.000      -0.199015           -5.415480


 Total Electron Density at R=0:                                         0.242907
 PAO| Made initial guess for matrix_X with norm:   27.712812921102035     

     Lanczos converged:  F threshold:   0.100E-02
     Est. extremal eigenvalues:    0.640E+01   0.949E-01
     Est. condition number :    0.675E+02

 Order=           3
     NS sqrt iter    1 1.00000000   0.157E+01       0.021     2669.174
     NS sqrt iter    2 1.00000000   0.844E+00       0.033     3390.363
     NS sqrt iter    3 1.00000000   0.338E+00       0.034     3372.606
     NS sqrt iter    4 1.00000000   0.958E-01       0.034     3357.243
     NS sqrt iter    5 1.00000000   0.369E-02       0.033     3382.211
     NS sqrt iter    6 1.00000000   0.380E-06       0.029     2944.942
     Symmetrizing Results
     Final NS sqrt iter    6 1.00000000   0.282E-12

 PAO| Read restart DM 64H2O_ref_LS_DM_SPIN_1_RESTART.dm with checksum:    6083.8925457864361     
 PAO| Quickstep energy from restart density:  -1103.1344016863793     
 PAO| ======================= Iteration:         1 =============================

     Lanczos converged:  F threshold:   0.100E-02
     Est. extremal eigenvalues:    0.640E+01   0.949E-01
     Est. condition number :    0.675E+02

 Order=           3
     NS sqrt iter    1 1.00000000   0.157E+01       0.021     2726.767
     NS sqrt iter    2 1.00000000   0.844E+00       0.034     3361.918
     NS sqrt iter    3 1.00000000   0.338E+00       0.033     3386.252
     NS sqrt iter    4 1.00000000   0.958E-01       0.033     3381.278
     NS sqrt iter    5 1.00000000   0.369E-02       0.033     3390.373
     NS sqrt iter    6 1.00000000   0.380E-06       0.029     2962.239
     Symmetrizing Results
     Final NS sqrt iter    6 1.00000000   0.282E-12

     Est. extremal eigenvalues     -0.81450     2.62647  converged:  T
     TRS4 it   1 1.00000000   0.273E+02       0.007     2094.048   0.100E-11
     TRS4 it   2 1.00000000   0.236E+02       0.013     2193.816   0.100E-11
     TRS4 it   3 1.00000000   0.160E+02       0.013     2205.537   0.100E-11
     TRS4 it   4 1.00000000   0.996E+01       0.013     2190.126   0.100E-11
     TRS4 it   5 1.00000000   0.481E+01       0.013     2201.528   0.100E-11
     TRS4 it   6 1.00000000   0.160E+01       0.013     2203.503   0.100E-11
     TRS4 it   7 1.00000000   0.315E+00       0.013     2196.185   0.100E-11
     TRS4 it   8 1.00000000   0.220E-01       0.013     2192.258   0.100E-11
     TRS4 it   9 1.00000000   0.195E-03       0.013     2196.083   0.100E-11
     TRS4 it  10 1.00000000   0.183E-07       0.013     2211.006   0.100E-11
     TRS4 it  11 1.00000000   0.302E-13       0.013     2178.758   0.100E-11
     Final TRS4 iteration   11 1.00000000   0.302E-13
     Chemical potential (mu):       0.00943
 
 PAO| energy:  -186.49097191363973      penalty:   1.3829717744655866E-031
 PAO|CG| warming up with steepest descent
 PAO|CG| beta:    0.0000000000000000     
 PAO| norm of gradient:   3.9806145393572487     
 PAO|LS| adapt:  T F F
 PAO|LS| adapt: scan_steps:    0.0000000000000000        0.0000000000000000        0.0000000000000000     
 PAO|LS| adapt: energies:   -186.49097191363973        0.0000000000000000        0.0000000000000000     
 PAO| ======================= Iteration:         2 =============================

     Lanczos converged:  F threshold:   0.100E-02
     Est. extremal eigenvalues:    0.618E+01   0.101E+00
     Est. condition number :    0.614E+02

 Order=           3
     NS sqrt iter    1 1.00000000   0.153E+01       0.021     2691.870
     NS sqrt iter    2 1.00000000   0.815E+00       0.034     3375.070
     NS sqrt iter    3 1.00000000   0.318E+00       0.034     3368.210
     NS sqrt iter    4 1.00000000   0.810E-01       0.034     3368.216
     NS sqrt iter    5 1.00000000   0.233E-02       0.034     3368.725
     NS sqrt iter    6 1.00000000   0.114E-06       0.029     2923.610
     Symmetrizing Results
     Final NS sqrt iter    6 1.00000000   0.316E-13

     Est. extremal eigenvalues     -0.81776     2.62223  converged:  T
     TRS4 it   1 1.00000000   0.275E+02       0.007     2177.503   0.100E-11
     TRS4 it   2 1.00000000   0.236E+02       0.013     2203.764   0.100E-11
     TRS4 it   3 1.00000000   0.158E+02       0.013     2201.162   0.100E-11
     TRS4 it   4 1.00000000   0.976E+01       0.013     2206.792   0.100E-11
     TRS4 it   5 1.00000000   0.459E+01       0.013     2227.744   0.100E-11
     TRS4 it   6 1.00000000   0.147E+01       0.013     2241.420   0.100E-11
     TRS4 it   7 1.00000000   0.269E+00       0.013     2201.505   0.100E-11
     TRS4 it   8 1.00000000   0.157E-01       0.013     2222.695   0.100E-11
     TRS4 it   9 1.00000000   0.897E-04       0.013     2219.452   0.100E-11
     TRS4 it  10 1.00000000   0.448E-08       0.013     2219.618   0.100E-11
     TRS4 it  11 1.00000000   0.178E-14       0.013     2228.016   0.100E-11
     Final TRS4 iteration   11 1.00000000   0.178E-14
     Chemical potential (mu):       0.01527
 
 PAO| energy:  -187.94556934952581      penalty:   4.7180663760362185E-007
 PAO|LS| adapt:  T T F
 PAO|LS| adapt: scan_steps:    0.0000000000000000       0.10000000000000001        0.0000000000000000     
 PAO|LS| adapt: energies:   -186.49097191363973       -187.94556934952581        0.0000000000000000     
 PAO| ======================= Iteration:         3 =============================

     Lanczos converged:  F threshold:   0.100E-02
     Est. extremal eigenvalues:    0.596E+01   0.106E+00
     Est. condition number :    0.564E+02

 Order=           3
     NS sqrt iter    1 1.00000000   0.148E+01       0.021     2694.898
     NS sqrt iter    2 1.00000000   0.785E+00       0.034     3375.105
     NS sqrt iter    3 1.00000000   0.297E+00       0.034     3379.398
     NS sqrt iter    4 1.00000000   0.681E-01       0.033     3400.866
     NS sqrt iter    5 1.00000000   0.149E-02       0.034     3372.529
     NS sqrt iter    6 1.00000000   0.358E-07       0.029     2919.424
     Symmetrizing Results
     Final NS sqrt iter    6 1.00000000   0.409E-14

     Est. extremal eigenvalues     -0.82092     2.61980  converged:  T
     TRS4 it   1 1.00000000   0.277E+02       0.007     2150.983   0.100E-11
     TRS4 it   2 1.00000000   0.236E+02       0.013     2220.574   0.100E-11
     TRS4 it   3 1.00000000   0.157E+02       0.013     2200.510   0.100E-11
     TRS4 it   4 1.00000000   0.957E+01       0.013     2214.752   0.100E-11
     TRS4 it   5 1.00000000   0.439E+01       0.013     2208.721   0.100E-11
     TRS4 it   6 1.00000000   0.135E+01       0.013     2209.724   0.100E-11
     TRS4 it   7 1.00000000   0.228E+00       0.013     2217.475   0.100E-11
     TRS4 it   8 1.00000000   0.108E-01       0.013     2221.234   0.100E-11
     TRS4 it   9 1.00000000   0.382E-04       0.013     2210.527   0.100E-11
     TRS4 it  10 1.00000000   0.944E-09       0.013     2206.390   0.100E-11
     TRS4 it  11 1.00000000   0.178E-13       0.013     2216.304   0.100E-11
     Final TRS4 iteration   11 1.00000000   0.178E-13
     Chemical potential (mu):       0.02201
 
 PAO| energy:  -189.12389052446147      penalty:   7.5489062016867013E-006
 PAO|LS| adapt:  T T F
 PAO|LS| adapt: scan_steps:    0.0000000000000000       0.20000000000000001        0.0000000000000000     
 PAO|LS| adapt: energies:   -186.49097191363973       -189.12389052446147        0.0000000000000000     
 PAO| ======================= Iteration:         4 =============================

     Lanczos converged:  T threshold:   0.100E-02
     Est. extremal eigenvalues:    0.554E+01   0.115E+00
     Est. condition number :    0.483E+02

 Order=           3
     NS sqrt iter    1 1.00000000   0.140E+01       0.021     2700.231
     NS sqrt iter    2 1.00000000   0.728E+00       0.033     3403.029
     NS sqrt iter    3 1.00000000   0.260E+00       0.034     3361.618
     NS sqrt iter    4 1.00000000   0.483E-01       0.034     3369.439
     NS sqrt iter    5 1.00000000   0.626E-03       0.033     3382.978
     NS sqrt iter    6 1.00000000   0.369E-08       0.029     2907.372
     Symmetrizing Results
     Final NS sqrt iter    6 1.00000000   0.113E-13

     Est. extremal eigenvalues     -0.82628     2.61973  converged:  T
     TRS4 it   1 1.00000000   0.281E+02       0.007     2156.061   0.100E-11
     TRS4 it   2 1.00000000   0.236E+02       0.013     2207.472   0.100E-11
     TRS4 it   3 1.00000000   0.156E+02       0.013     2218.829   0.100E-11
     TRS4 it   4 1.00000000   0.924E+01       0.013     2182.184   0.100E-11
     TRS4 it   5 1.00000000   0.404E+01       0.013     2225.404   0.100E-11
     TRS4 it   6 1.00000000   0.113E+01       0.013     2223.572   0.100E-11
     TRS4 it   7 1.00000000   0.162E+00       0.013     2206.756   0.100E-11
     TRS4 it   8 1.00000000   0.496E-02       0.013     2223.527   0.100E-11
     TRS4 it   9 1.00000000   0.638E-05       0.013     2207.835   0.100E-11
     TRS4 it  10 1.00000000   0.291E-10       0.013     2221.238   0.100E-11
     Final TRS4 iteration   10 1.00000000   0.291E-10
     Chemical potential (mu):       0.04163
 
 PAO| energy:  -190.60941159514053      penalty:   1.2078249922721439E-004
 PAO|LS| Need extra step
 PAO|LS| adapt:  T T F
 PAO|LS| adapt: scan_steps:    0.0000000000000000       0.40000000000000002        0.0000000000000000     
 PAO|LS| adapt: energies:   -186.49097191363973       -190.60941159514053        0.0000000000000000     
 PAO| ======================= Iteration:         5 =============================

     Lanczos converged:  F threshold:   0.100E-02
     Est. extremal eigenvalues:    0.486E+01   0.130E+00
     Est. condition number :    0.375E+02

 Order=           3
     NS sqrt iter    1 1.00000000   0.127E+01       0.021     2686.497
     NS sqrt iter    2 1.00000000   0.637E+00       0.034     3360.756
     NS sqrt iter    3 1.00000000   0.202E+00       0.034     3342.907
     NS sqrt iter    4 1.00000000   0.257E-01       0.033     3391.060
     NS sqrt iter    5 1.00000000   0.126E-03       0.033     3381.231
     NS sqrt iter    6 1.00000000   0.463E-10       0.021     2355.037
     Symmetrizing Results
     Final NS sqrt iter    6 1.00000000   0.213E-11

     Est. extremal eigenvalues     -0.83029     2.61822  converged:  T
     TRS4 it   1 1.00000000   0.288E+02       0.007     2134.755   0.100E-11
     TRS4 it   2 1.00000000   0.236E+02       0.013     2226.240   0.100E-11
     TRS4 it   3 1.00000000   0.153E+02       0.013     2205.853   0.100E-11
     TRS4 it   4 1.00000000   0.877E+01       0.013     2213.319   0.100E-11
     TRS4 it   5 1.00000000   0.352E+01       0.013     2222.488   0.100E-11
     TRS4 it   6 1.00000000   0.842E+00       0.013     2226.742   0.100E-11
     TRS4 it   7 1.00000000   0.876E-01       0.013     2128.037   0.100E-11
     TRS4 it   8 1.00000000   0.134E-02       0.013     2205.431   0.100E-11
     TRS4 it   9 1.00000000   0.439E-06       0.013     2204.362   0.100E-11
     TRS4 it  10 1.00000000   0.128E-12       0.013     2193.221   0.100E-11
     Final TRS4 iteration   10 1.00000000   0.128E-12
     Chemical potential (mu):       0.06487
 
 PAO| energy:  -190.22366769731858      penalty:   1.9325199876372545E-003
 PAO|LS| Need extra step
 PAO|LS| adapt:  T T T
 PAO|LS| adapt: scan_steps:    0.0000000000000000       0.40000000000000002       0.80000000000000004     
 PAO|LS| adapt: energies:   -186.49097191363973       -190.60941159514053       -190.22366769731858     
 PAO|LS| adapt: suggested step_size:   0.56574350125578576     
 PAO|LS| adapt: predicted energy  -190.99608038783407     
 PAO| ======================= Iteration:         6 =============================

     Lanczos converged:  F threshold:   0.100E-02
     Est. extremal eigenvalues:    0.523E+01   0.122E+00
     Est. condition number :    0.430E+02

 Order=           3
     NS sqrt iter    1 1.00000000   0.134E+01       0.021     2700.388
     NS sqrt iter    2 1.00000000   0.686E+00       0.034     3375.376
     NS sqrt iter    3 1.00000000   0.233E+00       0.034     3352.538
     NS sqrt iter    4 1.00000000   0.367E-01       0.034     3348.951
     NS sqrt iter    5 1.00000000   0.315E-03       0.034     3337.990
     NS sqrt iter    6 1.00000000   0.576E-09       0.029     2753.585
     Symmetrizing Results
     Final NS sqrt iter    6 1.00000000   0.108E-12

     Est. extremal eigenvalues     -0.82917     2.62035  converged:  T
     TRS4 it   1 1.00000000   0.284E+02       0.007     2144.306   0.100E-11
     TRS4 it   2 1.00000000   0.236E+02       0.013     2214.668   0.100E-11
     TRS4 it   3 1.00000000   0.155E+02       0.013     2236.817   0.100E-11
     TRS4 it   4 1.00000000   0.902E+01       0.013     2199.345   0.100E-11
     TRS4 it   5 1.00000000   0.379E+01       0.013     2197.942   0.100E-11
     TRS4 it   6 1.00000000   0.990E+00       0.013     2229.098   0.100E-11
     TRS4 it   7 1.00000000   0.123E+00       0.013     2207.383   0.100E-11
     TRS4 it   8 1.00000000   0.271E-02       0.013     2214.209   0.100E-11
     TRS4 it   9 1.00000000   0.175E-05       0.013     2209.899   0.100E-11
     TRS4 it  10 1.00000000   0.203E-11       0.013     2190.180   0.100E-11
     Final TRS4 iteration   10 1.00000000   0.203E-11
     Chemical potential (mu):       0.05271
 
 PAO| energy:  -190.96949408573471      penalty:   4.8332843035500228E-004
 PAO|CG| warming up with steepest descent
 PAO|CG| beta:    0.0000000000000000     
 PAO| norm of gradient:   2.1061853708130074     
 PAO| energy improvement:  -4.4785221720949835     
 PAO| step      6                 -190.969494086  0.411E-02  0.566E+00     2.419
 PAO|LS| adapt:  T F F
 PAO|LS| adapt: scan_steps:    0.0000000000000000        0.0000000000000000        0.0000000000000000     
 PAO|LS| adapt: energies:   -190.96949408573471        0.0000000000000000        0.0000000000000000     
 PAO| ======================= Iteration:         7 =============================

     Lanczos converged:  F threshold:   0.100E-02
     Est. extremal eigenvalues:    0.507E+01   0.130E+00
     Est. condition number :    0.389E+02

 Order=           3
     NS sqrt iter    1 1.00000000   0.131E+01       0.021     2705.699
     NS sqrt iter    2 1.00000000   0.661E+00       0.033     3386.310
     NS sqrt iter    3 1.00000000   0.216E+00       0.034     3368.008
     NS sqrt iter    4 1.00000000   0.299E-01       0.034     3369.364
     NS sqrt iter    5 1.00000000   0.179E-03       0.034     3365.406
     NS sqrt iter    6 1.00000000   0.111E-09       0.026     2495.909
     Symmetrizing Results
     Final NS sqrt iter    6 1.00000000   0.160E-11

     Est. extremal eigenvalues     -0.82942     2.60913  converged:  T
     TRS4 it   1 1.00000000   0.285E+02       0.007     2113.481   0.100E-11
     TRS4 it   2 1.00000000   0.237E+02       0.013     2197.994   0.100E-11
     TRS4 it   3 1.00000000   0.156E+02       0.013     2204.599   0.100E-11
     TRS4 it   4 1.00000000   0.914E+01       0.013     2212.739   0.100E-11
     TRS4 it   5 1.00000000   0.389E+01       0.013     2215.105   0.100E-11
     TRS4 it   6 1.00000000   0.102E+01       0.013     2214.845   0.100E-11
     TRS4 it   7 1.00000000   0.124E+00       0.013     2208.068   0.100E-11
     TRS4 it   8 1.00000000   0.271E-02       0.013     2195.688   0.100E-11
     TRS4 it   9 1.00000000   0.176E-05       0.013     2188.208   0.100E-11
     TRS4 it  10 1.00000000   0.192E-11       0.013     2213.555   0.100E-11
     Final TRS4 iteration   10 1.00000000   0.192E-11
     Chemical potential (mu):       0.05524
 
 PAO| energy:  -190.05807533668735      penalty:   6.7766783674050876E-004
 PAO|LS| adapt:  T F T
 PAO|LS| adapt: scan_steps:    0.0000000000000000        0.0000000000000000       0.56574350125578576     
 PAO|LS| adapt: energies:   -190.96949408573471        0.0000000000000000       -190.05807533668735     
 PAO| ======================= Iteration:         8 =============================

     Lanczos converged:  F threshold:   0.100E-02
     Est. extremal eigenvalues:    0.515E+01   0.126E+00
     Est. condition number :    0.409E+02

 Order=           3
     NS sqrt iter    1 1.00000000   0.132E+01       0.021     2688.988
     NS sqrt iter    2 1.00000000   0.673E+00       0.034     3350.858
     NS sqrt iter    3 1.00000000   0.224E+00       0.033     3390.508
     NS sqrt iter    4 1.00000000   0.332E-01       0.034     3371.928
     NS sqrt iter    5 1.00000000   0.239E-03       0.033     3391.242
     NS sqrt iter    6 1.00000000   0.257E-09       0.028     2618.798
     Symmetrizing Results
     Final NS sqrt iter    6 1.00000000   0.658E-12

     Est. extremal eigenvalues     -0.83022     2.61538  converged:  T
     TRS4 it   1 1.00000000   0.285E+02       0.007     2129.459   0.100E-11
     TRS4 it   2 1.00000000   0.236E+02       0.013     2227.385   0.100E-11
     TRS4 it   3 1.00000000   0.155E+02       0.013     2228.703   0.100E-11
     TRS4 it   4 1.00000000   0.905E+01       0.013     2194.505   0.100E-11
     TRS4 it   5 1.00000000   0.381E+01       0.013     2227.986   0.100E-11
     TRS4 it   6 1.00000000   0.993E+00       0.013     2214.638   0.100E-11
     TRS4 it   7 1.00000000   0.122E+00       0.013     2205.424   0.100E-11
     TRS4 it   8 1.00000000   0.268E-02       0.013     2215.675   0.100E-11
     TRS4 it   9 1.00000000   0.173E-05       0.013     2227.214   0.100E-11
     TRS4 it  10 1.00000000   0.194E-11       0.013     2191.630   0.100E-11
     Final TRS4 iteration   10 1.00000000   0.194E-11
     Chemical potential (mu):       0.05298
 
 PAO| energy:  -191.35540994833599      penalty:   5.1233919802195962E-004
 PAO|LS| adapt:  T T T
 PAO|LS| adapt: scan_steps:    0.0000000000000000       0.28287175062789288       0.56574350125578576     
 PAO|LS| adapt: energies:   -190.96949408573471       -191.35540994833599       -190.05807533668735     
 PAO|LS| adapt: suggested step_size:   0.20628938185921739     
 PAO|LS| adapt: predicted energy  -191.41709745034643     
 PAO| ======================= Iteration:         9 =============================

     Lanczos converged:  F threshold:   0.100E-02
     Est. extremal eigenvalues:    0.517E+01   0.125E+00
     Est. condition number :    0.415E+02

 Order=           3
     NS sqrt iter    1 1.00000000   0.133E+01       0.021     2695.155
     NS sqrt iter    2 1.00000000   0.677E+00       0.033     3382.159
     NS sqrt iter    3 1.00000000   0.226E+00       0.034     3342.273
     NS sqrt iter    4 1.00000000   0.341E-01       0.034     3358.899
     NS sqrt iter    5 1.00000000   0.257E-03       0.033     3381.545
     NS sqrt iter    6 1.00000000   0.321E-09       0.028     2667.771
     Symmetrizing Results
     Final NS sqrt iter    6 1.00000000   0.429E-12

     Est. extremal eigenvalues     -0.83013     2.61685  converged:  T
     TRS4 it   1 1.00000000   0.284E+02       0.007     2112.389   0.100E-11
     TRS4 it   2 1.00000000   0.236E+02       0.013     2196.749   0.100E-11
     TRS4 it   3 1.00000000   0.155E+02       0.013     2201.211   0.100E-11
     TRS4 it   4 1.00000000   0.903E+01       0.013     2211.561   0.100E-11
     TRS4 it   5 1.00000000   0.380E+01       0.013     2205.323   0.100E-11
     TRS4 it   6 1.00000000   0.990E+00       0.013     2198.647   0.100E-11
     TRS4 it   7 1.00000000   0.122E+00       0.013     2211.345   0.100E-11
     TRS4 it   8 1.00000000   0.268E-02       0.013     2220.865   0.100E-11
     TRS4 it   9 1.00000000   0.173E-05       0.013     2180.788   0.100E-11
     TRS4 it  10 1.00000000   0.194E-11       0.013     2189.728   0.100E-11
     Final TRS4 iteration   10 1.00000000   0.194E-11
     Chemical potential (mu):       0.05272
 
 PAO| energy:  -191.42139556915686      penalty:   4.9541382112484530E-004
 PAO|CG| trace_G_new   0.73719459727942249     
 PAO|CG| trace_G_prev    4.4360168162267248     
 PAO|CG| trace_G_mix   -4.3163874605769197E-002
 PAO|CG| trace_D    4.4360168162267248     
 PAO|CG| trace_D_Gnew   4.3163874605769197E-002
 PAO|CG| beta:   0.17591422760857892     
 PAO| norm of gradient:  0.85860037111535337     
 PAO| energy improvement: -0.45190148342214798     
 PAO| step      9                 -191.421395569  0.168E-02  0.206E+00     1.506
 PAO|LS| adapt:  T F F
 PAO|LS| adapt: scan_steps:    0.0000000000000000        0.0000000000000000        0.0000000000000000     
 PAO|LS| adapt: energies:   -191.42139556915686        0.0000000000000000        0.0000000000000000     
 PAO| ======================= Iteration:        10 =============================

     Lanczos converged:  F threshold:   0.100E-02
     Est. extremal eigenvalues:    0.512E+01   0.128E+00
     Est. condition number :    0.400E+02

 Order=           3
     NS sqrt iter    1 1.00000000   0.132E+01       0.021     2703.567
     NS sqrt iter    2 1.00000000   0.668E+00       0.034     3345.037
     NS sqrt iter    3 1.00000000   0.221E+00       0.034     3345.125
     NS sqrt iter    4 1.00000000   0.318E-01       0.034     3345.512
     NS sqrt iter    5 1.00000000   0.208E-03       0.034     3375.165
     NS sqrt iter    6 1.00000000   0.171E-09       0.026     2603.298
     Symmetrizing Results
     Final NS sqrt iter    6 1.00000000   0.116E-11

     Est. extremal eigenvalues     -0.83063     2.60496  converged:  T
     TRS4 it   1 1.00000000   0.284E+02       0.007     2119.916   0.100E-11
     TRS4 it   2 1.00000000   0.236E+02       0.013     2208.344   0.100E-11
     TRS4 it   3 1.00000000   0.155E+02       0.013     2211.479   0.100E-11
     TRS4 it   4 1.00000000   0.901E+01       0.013     2212.187   0.100E-11
     TRS4 it   5 1.00000000   0.378E+01       0.013     2174.591   0.100E-11
     TRS4 it   6 1.00000000   0.978E+00       0.013     2226.850   0.100E-11
     TRS4 it   7 1.00000000   0.119E+00       0.013     2217.760   0.100E-11
     TRS4 it   8 1.00000000   0.252E-02       0.013     2202.886   0.100E-11
     TRS4 it   9 1.00000000   0.154E-05       0.013     2198.957   0.100E-11
     TRS4 it  10 1.00000000   0.154E-11       0.013     2212.072   0.100E-11
     Final TRS4 iteration   10 1.00000000   0.154E-11
     Chemical potential (mu):       0.05365
 
 PAO| energy:  -191.52220978300724      penalty:   4.9788205402586858E-004
 PAO|LS| adapt:  T T F
 PAO|LS| adapt: scan_steps:    0.0000000000000000       0.20628938185921739        0.0000000000000000     
 PAO|LS| adapt: energies:   -191.42139556915686       -191.52220978300724        0.0000000000000000     
 PAO| ======================= Iteration:        11 =============================

     Lanczos converged:  F threshold:   0.100E-02
     Est. extremal eigenvalues:    0.506E+01   0.131E+00
     Est. condition number :    0.386E+02

 Order=           3
     NS sqrt iter    1 1.00000000   0.130E+01       0.021     2708.798
     NS sqrt iter    2 1.00000000   0.659E+00       0.034     3344.519
     NS sqrt iter    3 1.00000000   0.215E+00       0.033     3394.423
     NS sqrt iter    4 1.00000000   0.295E-01       0.034     3379.104
     NS sqrt iter    5 1.00000000   0.168E-03       0.034     3363.545
     NS sqrt iter    6 1.00000000   0.906E-10       0.024     2426.813
     Symmetrizing Results
     Final NS sqrt iter    6 1.00000000   0.187E-11

     Est. extremal eigenvalues     -0.83081     2.59285  converged:  T
     TRS4 it   1 1.00000000   0.284E+02       0.007     2132.915   0.100E-11
     TRS4 it   2 1.00000000   0.235E+02       0.013     2204.292   0.100E-11
     TRS4 it   3 1.00000000   0.155E+02       0.013     2201.282   0.100E-11
     TRS4 it   4 1.00000000   0.899E+01       0.013     2214.471   0.100E-11
     TRS4 it   5 1.00000000   0.376E+01       0.013     2186.009   0.100E-11
     TRS4 it   6 1.00000000   0.964E+00       0.013     2205.845   0.100E-11
     TRS4 it   7 1.00000000   0.115E+00       0.013     2212.440   0.100E-11
     TRS4 it   8 1.00000000   0.236E-02       0.013     2205.749   0.100E-11
     TRS4 it   9 1.00000000   0.135E-05       0.013     2224.044   0.100E-11
     TRS4 it  10 1.00000000   0.121E-11       0.013     2209.508   0.100E-11
     Final TRS4 iteration   10 1.00000000   0.121E-11
     Chemical potential (mu):       0.05466
 
 PAO| energy:  -191.52634284624170      penalty:   5.1036324375130756E-004
 PAO|LS| adapt:  T T F
 PAO|LS| adapt: scan_steps:    0.0000000000000000       0.41257876371843477        0.0000000000000000     
 PAO|LS| adapt: energies:   -191.42139556915686       -191.52634284624170        0.0000000000000000     
 PAO| ======================= Iteration:        12 =============================

     Lanczos converged:  F threshold:   0.100E-02
     Est. extremal eigenvalues:    0.496E+01   0.137E+00
     Est. condition number :    0.361E+02

 Order=           3
     NS sqrt iter    1 1.00000000   0.128E+01       0.021     2677.089
     NS sqrt iter    2 1.00000000   0.643E+00       0.034     3349.789
     NS sqrt iter    3 1.00000000   0.204E+00       0.034     3339.561
     NS sqrt iter    4 1.00000000   0.255E-01       0.034     3347.110
     NS sqrt iter    5 1.00000000   0.109E-03       0.034     3345.483
     NS sqrt iter    6 1.00000000   0.248E-10       0.018     2183.370
     Symmetrizing Results
     Final NS sqrt iter    6 1.00000000   0.206E-11

     Est. extremal eigenvalues     -0.83031     2.56893  converged:  T
     TRS4 it   1 1.00000000   0.284E+02       0.007     2125.762   0.100E-11
     TRS4 it   2 1.00000000   0.234E+02       0.013     2207.085   0.100E-11
     TRS4 it   3 1.00000000   0.154E+02       0.013     2227.191   0.100E-11
     TRS4 it   4 1.00000000   0.894E+01       0.013     2213.137   0.100E-11
     TRS4 it   5 1.00000000   0.370E+01       0.013     2211.274   0.100E-11
     TRS4 it   6 1.00000000   0.932E+00       0.013     2231.419   0.100E-11
     TRS4 it   7 1.00000000   0.107E+00       0.013     2202.143   0.100E-11
     TRS4 it   8 1.00000000   0.203E-02       0.013     2204.073   0.100E-11
     TRS4 it   9 1.00000000   0.102E-05       0.013     2221.409   0.100E-11
     TRS4 it  10 1.00000000   0.698E-12       0.013     2207.773   0.100E-11
     Final TRS4 iteration   10 1.00000000   0.698E-12
     Chemical potential (mu):       0.05686
 
 PAO| energy:  -191.26163233626460      penalty:   5.7250804034820438E-004
 PAO|LS| Need extra step
 PAO|LS| adapt:  T T T
 PAO|LS| adapt: scan_steps:    0.0000000000000000       0.41257876371843477       0.82515752743686954     
 PAO|LS| adapt: energies:   -191.42139556915686       -191.52634284624170       -191.26163233626460     
 PAO|LS| adapt: suggested step_size:   0.32342209040953207     
 PAO|LS| adapt: predicted energy  -191.53497390024540     
 PAO| ======================= Iteration:        13 =============================

     Lanczos converged:  F threshold:   0.100E-02
     Est. extremal eigenvalues:    0.509E+01   0.130E+00
     Est. condition number :    0.392E+02

 Order=           3
     NS sqrt iter    1 1.00000000   0.131E+01       0.021     2699.841
     NS sqrt iter    2 1.00000000   0.663E+00       0.034     3347.543
     NS sqrt iter    3 1.00000000   0.217E+00       0.034     3370.485
     NS sqrt iter    4 1.00000000   0.305E-01       0.034     3366.863
     NS sqrt iter    5 1.00000000   0.184E-03       0.034     3369.162
     NS sqrt iter    6 1.00000000   0.119E-09       0.026     2492.975
     Symmetrizing Results
     Final NS sqrt iter    6 1.00000000   0.162E-11

     Est. extremal eigenvalues     -0.83077     2.59809  converged:  T
     TRS4 it   1 1.00000000   0.284E+02       0.007     2142.553   0.100E-11
     TRS4 it   2 1.00000000   0.235E+02       0.013     2213.639   0.100E-11
     TRS4 it   3 1.00000000   0.155E+02       0.013     2201.962   0.100E-11
     TRS4 it   4 1.00000000   0.900E+01       0.013     2190.188   0.100E-11
     TRS4 it   5 1.00000000   0.377E+01       0.013     2187.663   0.100E-11
     TRS4 it   6 1.00000000   0.970E+00       0.013     2215.293   0.100E-11
     TRS4 it   7 1.00000000   0.117E+00       0.013     2237.461   0.100E-11
     TRS4 it   8 1.00000000   0.243E-02       0.013     2197.015   0.100E-11
     TRS4 it   9 1.00000000   0.143E-05       0.013     2199.687   0.100E-11
     TRS4 it  10 1.00000000   0.136E-11       0.013     2215.568   0.100E-11
     Final TRS4 iteration   10 1.00000000   0.136E-11
     Chemical potential (mu):       0.05422
 
 PAO| energy:  -191.53615262770708      penalty:   5.0365834079549971E-004
 PAO|CG| trace_G_new   0.27414396111081429     
 PAO|CG| trace_G_prev   0.73719459727942249     
 PAO|CG| trace_G_mix   -1.2019208600866272E-002
 PAO|CG| trace_D   0.85928447579518186     
 PAO|CG| trace_D_Gnew   1.1871257741202595E-002
 PAO|CG| beta:   0.38817860408601818     
 PAO| norm of gradient:  0.52358758685707429     
 PAO| energy improvement: -0.11475705855022511     
 PAO| step     13                 -191.536152628  0.102E-02  0.323E+00     1.942
 PAO|LS| adapt:  T F F
 PAO|LS| adapt: scan_steps:    0.0000000000000000        0.0000000000000000        0.0000000000000000     
 PAO|LS| adapt: energies:   -191.53615262770708        0.0000000000000000        0.0000000000000000     
 PAO| ======================= Iteration:        14 =============================

     Lanczos converged:  T threshold:   0.100E-02
     Est. extremal eigenvalues:    0.501E+01   0.133E+00
     Est. condition number :    0.378E+02

 Order=           3
     NS sqrt iter    1 1.00000000   0.129E+01       0.021     2689.553
     NS sqrt iter    2 1.00000000   0.652E+00       0.034     3372.294
     NS sqrt iter    3 1.00000000   0.211E+00       0.034     3352.432
     NS sqrt iter    4 1.00000000   0.282E-01       0.034     3346.082
     NS sqrt iter    5 1.00000000   0.149E-03       0.034     3377.471
     NS sqrt iter    6 1.00000000   0.634E-10       0.023     2366.089
     Symmetrizing Results
     Final NS sqrt iter    6 1.00000000   0.207E-11

     Est. extremal eigenvalues     -0.83119     2.59087  converged:  T
     TRS4 it   1 1.00000000   0.285E+02       0.007     2125.569   0.100E-11
     TRS4 it   2 1.00000000   0.235E+02       0.013     2214.780   0.100E-11
     TRS4 it   3 1.00000000   0.154E+02       0.013     2185.363   0.100E-11
     TRS4 it   4 1.00000000   0.895E+01       0.013     2176.417   0.100E-11
     TRS4 it   5 1.00000000   0.371E+01       0.013     2209.089   0.100E-11
     TRS4 it   6 1.00000000   0.941E+00       0.013     2211.805   0.100E-11
     TRS4 it   7 1.00000000   0.110E+00       0.013     2194.270   0.100E-11
     TRS4 it   8 1.00000000   0.214E-02       0.013     2212.483   0.100E-11
     TRS4 it   9 1.00000000   0.112E-05       0.013     2198.028   0.100E-11
     TRS4 it  10 1.00000000   0.878E-12       0.013     2197.889   0.100E-11
     Final TRS4 iteration   10 1.00000000   0.878E-12
     Chemical potential (mu):       0.05614
 
 PAO| energy:  -191.58786634511682      penalty:   5.0510277361370804E-004
 PAO|LS| adapt:  T T F
 PAO|LS| adapt: scan_steps:    0.0000000000000000       0.32342209040953207        0.0000000000000000     
 PAO|LS| adapt: energies:   -191.53615262770708       -191.58786634511682        0.0000000000000000     
 PAO| ======================= Iteration:        15 =============================

     Lanczos converged:  F threshold:   0.100E-02
     Est. extremal eigenvalues:    0.494E+01   0.135E+00
     Est. condition number :    0.366E+02

 Order=           3
     NS sqrt iter    1 1.00000000   0.128E+01       0.021     2692.737
     NS sqrt iter    2 1.00000000   0.642E+00       0.034     3359.399
     NS sqrt iter    3 1.00000000   0.205E+00       0.034     3376.647
     NS sqrt iter    4 1.00000000   0.262E-01       0.033     3381.686
     NS sqrt iter    5 1.00000000   0.121E-03       0.034     3359.082
     NS sqrt iter    6 1.00000000   0.339E-10       0.019     2281.449
     Symmetrizing Results
     Final NS sqrt iter    6 1.00000000   0.217E-11

     Est. extremal eigenvalues     -0.83130     2.58351  converged:  T
     TRS4 it   1 1.00000000   0.285E+02       0.007     2146.677   0.100E-11
     TRS4 it   2 1.00000000   0.234E+02       0.013     2182.877   0.100E-11
     TRS4 it   3 1.00000000   0.154E+02       0.013     2214.559   0.100E-11
     TRS4 it   4 1.00000000   0.889E+01       0.013     2208.225   0.100E-11
     TRS4 it   5 1.00000000   0.366E+01       0.013     2208.409   0.100E-11
     TRS4 it   6 1.00000000   0.912E+00       0.013     2202.814   0.100E-11
     TRS4 it   7 1.00000000   0.103E+00       0.013     2197.567   0.100E-11
     TRS4 it   8 1.00000000   0.189E-02       0.013     2215.761   0.100E-11
     TRS4 it   9 1.00000000   0.880E-06       0.013     2203.913   0.100E-11
     TRS4 it  10 1.00000000   0.526E-12       0.013     2224.863   0.100E-11
     Final TRS4 iteration   10 1.00000000   0.526E-12
     Chemical potential (mu):       0.05794
 
 PAO| energy:  -191.56972554259357      penalty:   5.2074188273652029E-004
 PAO|LS| adapt:  T T T
 PAO|LS| adapt: scan_steps:    0.0000000000000000       0.32342209040953207       0.64684418081906414     
 PAO|LS| adapt: energies:   -191.53615262770708       -191.58786634511682       -191.56972554259357     
 PAO|LS| adapt: suggested step_size:   0.40114234619360051     
 PAO|LS| adapt: predicted energy  -191.58988328799870     
 PAO| ======================= Iteration:        16 =============================

     Lanczos converged:  F threshold:   0.100E-02
     Est. extremal eigenvalues:    0.500E+01   0.133E+00
     Est. condition number :    0.375E+02

 Order=           3
     NS sqrt iter    1 1.00000000   0.129E+01       0.021     2704.389
     NS sqrt iter    2 1.00000000   0.650E+00       0.033     3397.171
     NS sqrt iter    3 1.00000000   0.210E+00       0.033     3381.684
     NS sqrt iter    4 1.00000000   0.277E-01       0.034     3363.171
     NS sqrt iter    5 1.00000000   0.142E-03       0.034     3356.032
     NS sqrt iter    6 1.00000000   0.545E-10       0.022     2346.833
     Symmetrizing Results
     Final NS sqrt iter    6 1.00000000   0.213E-11

     Est. extremal eigenvalues     -0.83125     2.58911  converged:  T
     TRS4 it   1 1.00000000   0.285E+02       0.007     2145.473   0.100E-11
     TRS4 it   2 1.00000000   0.235E+02       0.013     2199.358   0.100E-11
     TRS4 it   3 1.00000000   0.154E+02       0.013     2191.532   0.100E-11
     TRS4 it   4 1.00000000   0.893E+01       0.013     2204.973   0.100E-11
     TRS4 it   5 1.00000000   0.370E+01       0.013     2187.448   0.100E-11
     TRS4 it   6 1.00000000   0.934E+00       0.013     2230.155   0.100E-11
     TRS4 it   7 1.00000000   0.108E+00       0.013     2200.649   0.100E-11
     TRS4 it   8 1.00000000   0.208E-02       0.013     2191.095   0.100E-11
     TRS4 it   9 1.00000000   0.106E-05       0.013     2188.060   0.100E-11
     TRS4 it  10 1.00000000   0.739E-12       0.013     2193.547   0.100E-11
     Final TRS4 iteration   10 1.00000000   0.739E-12
     Chemical potential (mu):       0.05658
 
 PAO| energy:  -191.58982209805157      penalty:   5.0751710420736699E-004
 PAO|CG| trace_G_new    9.9947936631400780E-002
 PAO|CG| trace_G_prev   0.27414396111081429     
 PAO|CG| trace_G_mix    4.4142938370760323E-003
 PAO|CG| trace_D   0.39440686818165033     
 PAO|CG| trace_D_Gnew   6.9292603160054354E-004
 PAO|CG| beta:   0.34847983667861354     
 PAO| norm of gradient:  0.31614543588576566     
 PAO| energy improvement:  -5.3669470344487991E-002
 PAO| step     16                 -191.589822098  0.617E-03  0.401E+00     1.491
 PAO|LS| adapt:  T F F
 PAO|LS| adapt: scan_steps:    0.0000000000000000        0.0000000000000000        0.0000000000000000     
 PAO|LS| adapt: energies:   -191.58982209805157        0.0000000000000000        0.0000000000000000     
 PAO| ======================= Iteration:        17 =============================

     Lanczos converged:  F threshold:   0.100E-02
     Est. extremal eigenvalues:    0.496E+01   0.134E+00
     Est. condition number :    0.371E+02

 Order=           3
     NS sqrt iter    1 1.00000000   0.128E+01       0.021     2705.422
     NS sqrt iter    2 1.00000000   0.645E+00       0.034     3359.258
     NS sqrt iter    3 1.00000000   0.207E+00       0.033     3388.086
     NS sqrt iter    4 1.00000000   0.269E-01       0.034     3363.085
     NS sqrt iter    5 1.00000000   0.129E-03       0.033     3389.420
     NS sqrt iter    6 1.00000000   0.420E-10       0.021     2292.947
     Symmetrizing Results
     Final NS sqrt iter    6 1.00000000   0.217E-11

     Est. extremal eigenvalues     -0.83132     2.58635  converged:  T
     TRS4 it   1 1.00000000   0.285E+02       0.007     2158.710   0.100E-11
     TRS4 it   2 1.00000000   0.235E+02       0.013     2238.200   0.100E-11
     TRS4 it   3 1.00000000   0.154E+02       0.013     2203.411   0.100E-11
     TRS4 it   4 1.00000000   0.889E+01       0.013     2199.821   0.100E-11
     TRS4 it   5 1.00000000   0.366E+01       0.013     2227.622   0.100E-11
     TRS4 it   6 1.00000000   0.914E+00       0.013     2219.723   0.100E-11
     TRS4 it   7 1.00000000   0.104E+00       0.013     2205.566   0.100E-11
     TRS4 it   8 1.00000000   0.191E-02       0.013     2213.963   0.100E-11
     TRS4 it   9 1.00000000   0.899E-06       0.013     2197.100   0.100E-11
     TRS4 it  10 1.00000000   0.510E-12       0.013     2205.713   0.100E-11
     Final TRS4 iteration   10 1.00000000   0.510E-12
     Chemical potential (mu):       0.05773
 
 PAO| energy:  -191.59356248011201      penalty:   4.9952945866157548E-004
 PAO|LS| adapt:  T T F
 PAO|LS| adapt: scan_steps:    0.0000000000000000       0.40114234619360051        0.0000000000000000     
 PAO|LS| adapt: energies:   -191.58982209805157       -191.59356248011201        0.0000000000000000     
 PAO| ======================= Iteration:        18 =============================

     Lanczos converged:  F threshold:   0.100E-02
     Est. extremal eigenvalues:    0.492E+01   0.134E+00
     Est. condition number :    0.367E+02

 Order=           3
     NS sqrt iter    1 1.00000000   0.127E+01       0.021     2698.071
     NS sqrt iter    2 1.00000000   0.640E+00       0.034     3338.945
     NS sqrt iter    3 1.00000000   0.204E+00       0.034     3376.648
     NS sqrt iter    4 1.00000000   0.260E-01       0.034     3359.470
     NS sqrt iter    5 1.00000000   0.118E-03       0.034     3359.044
     NS sqrt iter    6 1.00000000   0.325E-10       0.019     2244.252
     Symmetrizing Results
     Final NS sqrt iter    6 1.00000000   0.218E-11

     Est. extremal eigenvalues     -0.83124     2.58350  converged:  T
     TRS4 it   1 1.00000000   0.285E+02       0.007     2142.334   0.100E-11
     TRS4 it   2 1.00000000   0.234E+02       0.013     2215.706   0.100E-11
     TRS4 it   3 1.00000000   0.154E+02       0.013     2213.362   0.100E-11
     TRS4 it   4 1.00000000   0.884E+01       0.013     2204.905   0.100E-11
     TRS4 it   5 1.00000000   0.362E+01       0.013     2192.292   0.100E-11
     TRS4 it   6 1.00000000   0.896E+00       0.013     2221.999   0.100E-11
     TRS4 it   7 1.00000000   0.998E-01       0.013     2196.617   0.100E-11
     TRS4 it   8 1.00000000   0.176E-02       0.013     2216.675   0.100E-11
     TRS4 it   9 1.00000000   0.769E-06       0.013     2210.975   0.100E-11
     TRS4 it  10 1.00000000   0.389E-12       0.013     2197.606   0.100E-11
     Final TRS4 iteration   10 1.00000000   0.389E-12
     Chemical potential (mu):       0.05894
 
 PAO| energy:  -191.52459781642222      penalty:   4.9877311937690028E-004
 PAO|LS| adapt:  T T T
 PAO|LS| adapt: scan_steps:    0.0000000000000000       0.40114234619360051       0.80228469238720101     
 PAO|LS| adapt: energies:   -191.58982209805157       -191.59356248011201       -191.52459781642222     
 PAO|LS| adapt: suggested step_size:   0.22120833273136925     
 PAO|LS| adapt: predicted energy  -191.60087663360397     
 PAO| ======================= Iteration:        19 =============================

     Lanczos converged:  F threshold:   0.100E-02
     Est. extremal eigenvalues:    0.497E+01   0.134E+00
     Est. condition number :    0.372E+02

 Order=           3
     NS sqrt iter    1 1.00000000   0.129E+01       0.021     2703.742
     NS sqrt iter    2 1.00000000   0.647E+00       0.034     3327.657
     NS sqrt iter    3 1.00000000   0.208E+00       0.034     3365.328
     NS sqrt iter    4 1.00000000   0.272E-01       0.034     3348.860
     NS sqrt iter    5 1.00000000   0.135E-03       0.034     3379.786
     NS sqrt iter    6 1.00000000   0.472E-10       0.021     2312.075
     Symmetrizing Results
     Final NS sqrt iter    6 1.00000000   0.218E-11

     Est. extremal eigenvalues     -0.83131     2.58760  converged:  T
     TRS4 it   1 1.00000000   0.285E+02       0.007     2138.323   0.100E-11
     TRS4 it   2 1.00000000   0.235E+02       0.013     2204.864   0.100E-11
     TRS4 it   3 1.00000000   0.154E+02       0.013     2203.759   0.100E-11
     TRS4 it   4 1.00000000   0.891E+01       0.013     2222.539   0.100E-11
     TRS4 it   5 1.00000000   0.368E+01       0.013     2214.152   0.100E-11
     TRS4 it   6 1.00000000   0.923E+00       0.013     2213.887   0.100E-11
     TRS4 it   7 1.00000000   0.106E+00       0.013     2186.780   0.100E-11
     TRS4 it   8 1.00000000   0.198E-02       0.013     2193.110   0.100E-11
     TRS4 it   9 1.00000000   0.966E-06       0.013     2180.352   0.100E-11
     TRS4 it  10 1.00000000   0.631E-12       0.013     2222.639   0.100E-11
     Final TRS4 iteration   10 1.00000000   0.631E-12
     Chemical potential (mu):       0.05721
 
 PAO| energy:  -191.60086071383327      penalty:   5.0222942264417452E-004
 PAO|CG| trace_G_new    2.1769009400614610E-002
 PAO|CG| trace_G_prev    9.9947936631400780E-002
 PAO|CG| trace_G_mix   -3.1649816612316895E-004
 PAO|CG| trace_D   0.14736105391816967     
 PAO|CG| trace_D_Gnew  -5.0042202084510075E-005
 PAO|CG| beta:   0.22097012015552850     
 PAO| norm of gradient:  0.14754324586579559     
 PAO| energy improvement:  -1.1038615781700400E-002
 PAO| step     19                 -191.600860714  0.288E-03  0.221E+00     1.487
 PAO|LS| adapt:  T F F
 PAO|LS| adapt: scan_steps:    0.0000000000000000        0.0000000000000000        0.0000000000000000     
 PAO|LS| adapt: energies:   -191.60086071383327        0.0000000000000000        0.0000000000000000     
 PAO| ======================= Iteration:        20 =============================

     Lanczos converged:  F threshold:   0.100E-02
     Est. extremal eigenvalues:    0.497E+01   0.133E+00
     Est. condition number :    0.372E+02

 Order=           3
     NS sqrt iter    1 1.00000000   0.128E+01       0.021     2704.455
     NS sqrt iter    2 1.00000000   0.646E+00       0.034     3368.356
     NS sqrt iter    3 1.00000000   0.208E+00       0.033     3383.757
     NS sqrt iter    4 1.00000000   0.272E-01       0.033     3381.529
     NS sqrt iter    5 1.00000000   0.134E-03       0.034     3366.409
     NS sqrt iter    6 1.00000000   0.463E-10       0.021     2300.829
     Symmetrizing Results
     Final NS sqrt iter    6 1.00000000   0.218E-11

     Est. extremal eigenvalues     -0.83132     2.58617  converged:  T
     TRS4 it   1 1.00000000   0.285E+02       0.007     2095.454   0.100E-11
     TRS4 it   2 1.00000000   0.235E+02       0.013     2213.100   0.100E-11
     TRS4 it   3 1.00000000   0.154E+02       0.013     2203.711   0.100E-11
     TRS4 it   4 1.00000000   0.890E+01       0.013     2207.520   0.100E-11
     TRS4 it   5 1.00000000   0.367E+01       0.013     2214.042   0.100E-11
     TRS4 it   6 1.00000000   0.919E+00       0.013     2217.244   0.100E-11
     TRS4 it   7 1.00000000   0.105E+00       0.013     2212.644   0.100E-11
     TRS4 it   8 1.00000000   0.195E-02       0.013     2204.080   0.100E-11
     TRS4 it   9 1.00000000   0.935E-06       0.013     2171.551   0.100E-11
     TRS4 it  10 1.00000000   0.565E-12       0.013     2224.538   0.100E-11
     Final TRS4 iteration   10 1.00000000   0.565E-12
     Chemical potential (mu):       0.05742
 
 PAO| energy:  -191.60475012490912      penalty:   4.9245019311289109E-004
 PAO|LS| adapt:  T T F
 PAO|LS| adapt: scan_steps:    0.0000000000000000       0.22120833273136925        0.0000000000000000     
 PAO|LS| adapt: energies:   -191.60086071383327       -191.60475012490912        0.0000000000000000     
 PAO| ======================= Iteration:        21 =============================

     Lanczos converged:  F threshold:   0.100E-02
     Est. extremal eigenvalues:    0.496E+01   0.133E+00
     Est. condition number :    0.372E+02

 Order=           3
     NS sqrt iter    1 1.00000000   0.128E+01       0.021     2699.456
     NS sqrt iter    2 1.00000000   0.646E+00       0.034     3369.222
     NS sqrt iter    3 1.00000000   0.208E+00       0.034     3365.585
     NS sqrt iter    4 1.00000000   0.272E-01       0.034     3369.165
     NS sqrt iter    5 1.00000000   0.133E-03       0.034     3372.282
     NS sqrt iter    6 1.00000000   0.456E-10       0.021     2316.471
     Symmetrizing Results
     Final NS sqrt iter    6 1.00000000   0.218E-11

     Est. extremal eigenvalues     -0.83133     2.58472  converged:  T
     TRS4 it   1 1.00000000   0.285E+02       0.007     2125.413   0.100E-11
     TRS4 it   2 1.00000000   0.234E+02       0.013     2223.992   0.100E-11
     TRS4 it   3 1.00000000   0.154E+02       0.013     2224.679   0.100E-11
     TRS4 it   4 1.00000000   0.888E+01       0.013     2231.401   0.100E-11
     TRS4 it   5 1.00000000   0.366E+01       0.013     2195.409   0.100E-11
     TRS4 it   6 1.00000000   0.915E+00       0.013     2225.554   0.100E-11
     TRS4 it   7 1.00000000   0.104E+00       0.013     2189.211   0.100E-11
     TRS4 it   8 1.00000000   0.192E-02       0.013     2214.537   0.100E-11
     TRS4 it   9 1.00000000   0.904E-06       0.013     2212.923   0.100E-11
     TRS4 it  10 1.00000000   0.547E-12       0.013     2200.476   0.100E-11
     Final TRS4 iteration   10 1.00000000   0.547E-12
     Chemical potential (mu):       0.05764
 
 PAO| energy:  -191.60676929970327      penalty:   4.8311920686090206E-004
 PAO|LS| adapt:  T T F
 PAO|LS| adapt: scan_steps:    0.0000000000000000       0.44241666546273850        0.0000000000000000     
 PAO|LS| adapt: energies:   -191.60086071383327       -191.60676929970327        0.0000000000000000     
 PAO| ======================= Iteration:        22 =============================

     Lanczos converged:  F threshold:   0.100E-02
     Est. extremal eigenvalues:    0.495E+01   0.133E+00
     Est. condition number :    0.372E+02

 Order=           3
     NS sqrt iter    1 1.00000000   0.128E+01       0.021     2691.254
     NS sqrt iter    2 1.00000000   0.645E+00       0.034     3373.805
     NS sqrt iter    3 1.00000000   0.208E+00       0.034     3356.175
     NS sqrt iter    4 1.00000000   0.272E-01       0.034     3364.973
     NS sqrt iter    5 1.00000000   0.132E-03       0.034     3368.402
     NS sqrt iter    6 1.00000000   0.441E-10       0.021     2304.772
     Symmetrizing Results
     Final NS sqrt iter    6 1.00000000   0.217E-11

     Est. extremal eigenvalues     -0.83134     2.58180  converged:  T
     TRS4 it   1 1.00000000   0.285E+02       0.007     2146.519   0.100E-11
     TRS4 it   2 1.00000000   0.234E+02       0.013     2199.205   0.100E-11
     TRS4 it   3 1.00000000   0.154E+02       0.013     2202.541   0.100E-11
     TRS4 it   4 1.00000000   0.886E+01       0.013     2212.259   0.100E-11
     TRS4 it   5 1.00000000   0.364E+01       0.013     2192.726   0.100E-11
     TRS4 it   6 1.00000000   0.906E+00       0.013     2205.181   0.100E-11
     TRS4 it   7 1.00000000   0.102E+00       0.013     2207.244   0.100E-11
     TRS4 it   8 1.00000000   0.186E-02       0.013     2208.522   0.100E-11
     TRS4 it   9 1.00000000   0.847E-06       0.013     2228.789   0.100E-11
     TRS4 it  10 1.00000000   0.510E-12       0.013     2242.545   0.100E-11
     Final TRS4 iteration   10 1.00000000   0.510E-12
     Chemical potential (mu):       0.05808
 
 PAO| energy:  -191.60511700030474      penalty:   4.6577266926298399E-004
 PAO|LS| Need extra step
 PAO|LS| adapt:  T T T
 PAO|LS| adapt: scan_steps:    0.0000000000000000       0.44241666546273850       0.88483333092547700     
 PAO|LS| adapt: energies:   -191.60086071383327       -191.60676929970327       -191.60511700030474     
 PAO|LS| adapt: suggested step_size:   0.56694256428842260     
 PAO|LS| adapt: predicted energy  -191.60706880124778     
 PAO| ======================= Iteration:        23 =============================

     Lanczos converged:  F threshold:   0.100E-02
     Est. extremal eigenvalues:    0.496E+01   0.133E+00
     Est. condition number :    0.372E+02

 Order=           3
     NS sqrt iter    1 1.00000000   0.128E+01       0.021     2704.854
     NS sqrt iter    2 1.00000000   0.645E+00       0.034     3376.461
     NS sqrt iter    3 1.00000000   0.208E+00       0.034     3378.026
     NS sqrt iter    4 1.00000000   0.272E-01       0.034     3354.593
     NS sqrt iter    5 1.00000000   0.133E-03       0.034     3369.158
     NS sqrt iter    6 1.00000000   0.452E-10       0.021     2308.573
     Symmetrizing Results
     Final NS sqrt iter    6 1.00000000   0.218E-11

     Est. extremal eigenvalues     -0.83133     2.58391  converged:  T
     TRS4 it   1 1.00000000   0.285E+02       0.007     2163.647   0.100E-11
     TRS4 it   2 1.00000000   0.234E+02       0.013     2215.224   0.100E-11
     TRS4 it   3 1.00000000   0.154E+02       0.013     2219.055   0.100E-11
     TRS4 it   4 1.00000000   0.888E+01       0.013     2204.662   0.100E-11
     TRS4 it   5 1.00000000   0.365E+01       0.013     2187.395   0.100E-11
     TRS4 it   6 1.00000000   0.912E+00       0.013     2231.148   0.100E-11
     TRS4 it   7 1.00000000   0.103E+00       0.013     2207.850   0.100E-11
     TRS4 it   8 1.00000000   0.190E-02       0.013     2223.006   0.100E-11
     TRS4 it   9 1.00000000   0.888E-06       0.013     2190.551   0.100E-11
     TRS4 it  10 1.00000000   0.529E-12       0.013     2198.922   0.100E-11
     Final TRS4 iteration   10 1.00000000   0.529E-12
     Chemical potential (mu):       0.05776
 
 PAO| energy:  -191.60707573280450      penalty:   4.7806068592085699E-004
 PAO|CG| trace_G_new    1.7228908025605529E-002
 PAO|CG| trace_G_prev    2.1769009400614610E-002
 PAO|CG| trace_G_mix    1.0771102789448156E-004
 PAO|CG| trace_D    2.8986440247997028E-002
 PAO|CG| trace_D_Gnew  -4.6157666239701278E-005
 PAO|CG| beta:   0.78649407892798562     
 PAO| norm of gradient:  0.13125893503150760     
 PAO| energy improvement:  -6.2150189712326664E-003
 PAO| step     23                 -191.607075733  0.256E-03  0.567E+00     1.930
 PAO|LS| adapt:  T F F
 PAO|LS| adapt: scan_steps:    0.0000000000000000        0.0000000000000000        0.0000000000000000     
 PAO|LS| adapt: energies:   -191.60707573280450        0.0000000000000000        0.0000000000000000     
 PAO| ======================= Iteration:        24 =============================

     Lanczos converged:  F threshold:   0.100E-02
     Est. extremal eigenvalues:    0.494E+01   0.133E+00
     Est. condition number :    0.371E+02

 Order=           3
     NS sqrt iter    1 1.00000000   0.128E+01       0.021     2698.719
     NS sqrt iter    2 1.00000000   0.644E+00       0.034     3352.984
     NS sqrt iter    3 1.00000000   0.207E+00       0.034     3369.031
     NS sqrt iter    4 1.00000000   0.271E-01       0.033     3390.866
     NS sqrt iter    5 1.00000000   0.132E-03       0.034     3374.980
     NS sqrt iter    6 1.00000000   0.441E-10       0.021     2302.761
     Symmetrizing Results
     Final NS sqrt iter    6 1.00000000   0.217E-11

     Est. extremal eigenvalues     -0.83135     2.57983  converged:  T
     TRS4 it   1 1.00000000   0.285E+02       0.007     2125.375   0.100E-11
     TRS4 it   2 1.00000000   0.234E+02       0.013     2217.544   0.100E-11
     TRS4 it   3 1.00000000   0.154E+02       0.013     2191.748   0.100E-11
     TRS4 it   4 1.00000000   0.885E+01       0.013     2226.306   0.100E-11
     TRS4 it   5 1.00000000   0.363E+01       0.013     2198.573   0.100E-11
     TRS4 it   6 1.00000000   0.903E+00       0.013     2230.502   0.100E-11
     TRS4 it   7 1.00000000   0.101E+00       0.013     2224.065   0.100E-11
     TRS4 it   8 1.00000000   0.183E-02       0.013     2229.948   0.100E-11
     TRS4 it   9 1.00000000   0.824E-06       0.013     2216.111   0.100E-11
     TRS4 it  10 1.00000000   0.476E-12       0.013     2194.464   0.100E-11
     Final TRS4 iteration   10 1.00000000   0.476E-12
     Chemical potential (mu):       0.05827
 
 PAO| energy:  -191.61041149500400      penalty:   4.4026746394545469E-004
 PAO|LS| adapt:  T T F
 PAO|LS| adapt: scan_steps:    0.0000000000000000       0.56694256428842260        0.0000000000000000     
 PAO|LS| adapt: energies:   -191.60707573280450       -191.61041149500400        0.0000000000000000     
 PAO| ======================= Iteration:        25 =============================

     Lanczos converged:  F threshold:   0.100E-02
     Est. extremal eigenvalues:    0.492E+01   0.133E+00
     Est. condition number :    0.370E+02

 Order=           3
     NS sqrt iter    1 1.00000000   0.127E+01       0.021     2681.080
     NS sqrt iter    2 1.00000000   0.642E+00       0.034     3359.433
     NS sqrt iter    3 1.00000000   0.207E+00       0.034     3377.873
     NS sqrt iter    4 1.00000000   0.270E-01       0.033     3391.131
     NS sqrt iter    5 1.00000000   0.132E-03       0.034     3362.607
     NS sqrt iter    6 1.00000000   0.432E-10       0.021     2300.445
     Symmetrizing Results
     Final NS sqrt iter    6 1.00000000   0.217E-11

     Est. extremal eigenvalues     -0.83135     2.57565  converged:  T
     TRS4 it   1 1.00000000   0.285E+02       0.007     2102.051   0.100E-11
     TRS4 it   2 1.00000000   0.234E+02       0.013     2207.645   0.100E-11
     TRS4 it   3 1.00000000   0.153E+02       0.013     2198.460   0.100E-11
     TRS4 it   4 1.00000000   0.882E+01       0.013     2196.841   0.100E-11
     TRS4 it   5 1.00000000   0.361E+01       0.013     2218.467   0.100E-11
     TRS4 it   6 1.00000000   0.894E+00       0.013     2221.099   0.100E-11
     TRS4 it   7 1.00000000   0.996E-01       0.013     2208.345   0.100E-11
     TRS4 it   8 1.00000000   0.176E-02       0.013     2209.460   0.100E-11
     TRS4 it   9 1.00000000   0.765E-06       0.013     2221.362   0.100E-11
     TRS4 it  10 1.00000000   0.410E-12       0.013     2213.834   0.100E-11
     Final TRS4 iteration   10 1.00000000   0.410E-12
     Chemical potential (mu):       0.05876
 
 PAO| energy:  -191.60061783249569      penalty:   4.0673784934220996E-004
 PAO|LS| adapt:  T T T
 PAO|LS| adapt: scan_steps:    0.0000000000000000       0.56694256428842260        1.1338851285768452     
 PAO|LS| adapt: energies:   -191.60707573280450       -191.61041149500400       -191.60061783249569     
 PAO|LS| adapt: suggested step_size:   0.42751305223901237     
 PAO|LS| adapt: predicted energy  -191.61080854663925     
 PAO| ======================= Iteration:        26 =============================

     Lanczos converged:  F threshold:   0.100E-02
     Est. extremal eigenvalues:    0.494E+01   0.133E+00
     Est. condition number :    0.371E+02

 Order=           3
     NS sqrt iter    1 1.00000000   0.128E+01       0.021     2678.678
     NS sqrt iter    2 1.00000000   0.644E+00       0.033     3391.903
     NS sqrt iter    3 1.00000000   0.207E+00       0.034     3341.047
     NS sqrt iter    4 1.00000000   0.271E-01       0.033     3418.783
     NS sqrt iter    5 1.00000000   0.132E-03       0.034     3366.059
     NS sqrt iter    6 1.00000000   0.443E-10       0.021     2295.387
     Symmetrizing Results
     Final NS sqrt iter    6 1.00000000   0.216E-11

     Est. extremal eigenvalues     -0.83135     2.58084  converged:  T
     TRS4 it   1 1.00000000   0.285E+02       0.007     2146.451   0.100E-11
     TRS4 it   2 1.00000000   0.234E+02       0.013     2202.881   0.100E-11
     TRS4 it   3 1.00000000   0.154E+02       0.013     2223.452   0.100E-11
     TRS4 it   4 1.00000000   0.886E+01       0.013     2230.501   0.100E-11
     TRS4 it   5 1.00000000   0.363E+01       0.013     2216.178   0.100E-11
     TRS4 it   6 1.00000000   0.905E+00       0.013     2205.679   0.100E-11
     TRS4 it   7 1.00000000   0.102E+00       0.013     2191.143   0.100E-11
     TRS4 it   8 1.00000000   0.185E-02       0.013     2198.074   0.100E-11
     TRS4 it   9 1.00000000   0.839E-06       0.013     2196.432   0.100E-11
     TRS4 it  10 1.00000000   0.506E-12       0.013     2211.888   0.100E-11
     Final TRS4 iteration   10 1.00000000   0.506E-12
     Chemical potential (mu):       0.05814
 
 PAO| energy:  -191.61079546821213      penalty:   4.4915915799605783E-004
 PAO|CG| trace_G_new    1.3756461569511502E-002
 PAO|CG| trace_G_prev    1.7228908025605529E-002
 PAO|CG| trace_G_mix    2.6061322233173129E-004
 PAO|CG| trace_D    3.5231740941859012E-002
 PAO|CG| trace_D_Gnew  -8.1426739012509664E-005
 PAO|CG| beta:   0.78332581073172480     
 PAO| norm of gradient:  0.11728794298439844     
 PAO| energy improvement:  -3.7197354076283773E-003
 PAO| step     26                 -191.610795468  0.229E-03  0.428E+00     1.488
 PAO|LS| adapt:  T F F
 PAO|LS| adapt: scan_steps:    0.0000000000000000        0.0000000000000000        0.0000000000000000     
 PAO|LS| adapt: energies:   -191.61079546821213        0.0000000000000000        0.0000000000000000     
 PAO| ======================= Iteration:        27 =============================

     Lanczos converged:  F threshold:   0.100E-02
     Est. extremal eigenvalues:    0.493E+01   0.133E+00
     Est. condition number :    0.371E+02

 Order=           3
     NS sqrt iter    1 1.00000000   0.127E+01       0.021     2724.793
     NS sqrt iter    2 1.00000000   0.642E+00       0.034     3376.439
     NS sqrt iter    3 1.00000000   0.207E+00       0.034     3380.465
     NS sqrt iter    4 1.00000000   0.270E-01       0.033     3384.500
     NS sqrt iter    5 1.00000000   0.132E-03       0.033     3391.055
     NS sqrt iter    6 1.00000000   0.442E-10       0.021     2296.938
     Symmetrizing Results
     Final NS sqrt iter    6 1.00000000   0.216E-11

     Est. extremal eigenvalues     -0.83137     2.57867  converged:  T
     TRS4 it   1 1.00000000   0.285E+02       0.007     2091.915   0.100E-11
     TRS4 it   2 1.00000000   0.234E+02       0.013     2245.102   0.100E-11
     TRS4 it   3 1.00000000   0.154E+02       0.013     2217.118   0.100E-11
     TRS4 it   4 1.00000000   0.884E+01       0.013     2224.326   0.100E-11
     TRS4 it   5 1.00000000   0.362E+01       0.013     2208.697   0.100E-11
     TRS4 it   6 1.00000000   0.897E+00       0.013     2230.434   0.100E-11
     TRS4 it   7 1.00000000   0.100E+00       0.013     2207.027   0.100E-11
     TRS4 it   8 1.00000000   0.178E-02       0.013     2211.436   0.100E-11
     TRS4 it   9 1.00000000   0.786E-06       0.013     2210.228   0.100E-11
     TRS4 it  10 1.00000000   0.425E-12       0.013     2224.590   0.100E-11
     Final TRS4 iteration   10 1.00000000   0.425E-12
     Chemical potential (mu):       0.05860
 
 PAO| energy:  -191.61355733776725      penalty:   4.1346625188088554E-004
 PAO|LS| adapt:  T T F
 PAO|LS| adapt: scan_steps:    0.0000000000000000       0.42751305223901237        0.0000000000000000     
 PAO|LS| adapt: energies:   -191.61079546821213       -191.61355733776725        0.0000000000000000     
 PAO| ======================= Iteration:        28 =============================

     Lanczos converged:  T threshold:   0.100E-02
     Est. extremal eigenvalues:    0.491E+01   0.133E+00
     Est. condition number :    0.370E+02

 Order=           3
     NS sqrt iter    1 1.00000000   0.127E+01       0.021     2722.064
     NS sqrt iter    2 1.00000000   0.640E+00       0.034     3361.836
     NS sqrt iter    3 1.00000000   0.206E+00       0.034     3339.991
     NS sqrt iter    4 1.00000000   0.268E-01       0.034     3329.822
     NS sqrt iter    5 1.00000000   0.132E-03       0.034     3362.699
     NS sqrt iter    6 1.00000000   0.442E-10       0.021     2304.513
     Symmetrizing Results
     Final NS sqrt iter    6 1.00000000   0.217E-11

     Est. extremal eigenvalues     -0.83138     2.57638  converged:  T
     TRS4 it   1 1.00000000   0.285E+02       0.007     2096.232   0.100E-11
     TRS4 it   2 1.00000000   0.234E+02       0.013     2221.134   0.100E-11
     TRS4 it   3 1.00000000   0.153E+02       0.013     2214.342   0.100E-11
     TRS4 it   4 1.00000000   0.881E+01       0.013     2193.417   0.100E-11
     TRS4 it   5 1.00000000   0.360E+01       0.013     2206.046   0.100E-11
     TRS4 it   6 1.00000000   0.889E+00       0.013     2212.672   0.100E-11
     TRS4 it   7 1.00000000   0.985E-01       0.013     2203.991   0.100E-11
     TRS4 it   8 1.00000000   0.172E-02       0.013     2185.946   0.100E-11
     TRS4 it   9 1.00000000   0.736E-06       0.013     2212.087   0.100E-11
     TRS4 it  10 1.00000000   0.393E-12       0.013     2203.360   0.100E-11
     Final TRS4 iteration   10 1.00000000   0.393E-12
     Chemical potential (mu):       0.05904
 
 PAO| energy:  -191.60996649638204      penalty:   3.8094739919240496E-004
 PAO|LS| adapt:  T T T
 PAO|LS| adapt: scan_steps:    0.0000000000000000       0.42751305223901237       0.85502610447802474     
 PAO|LS| adapt: energies:   -191.61079546821213       -191.61355733776725       -191.60996649638204     
 PAO|LS| adapt: suggested step_size:   0.39961974175859427     
 PAO|LS| adapt: predicted energy  -191.61357085944132     
 PAO| ======================= Iteration:        29 =============================

     Lanczos converged:  F threshold:   0.100E-02
     Est. extremal eigenvalues:    0.493E+01   0.133E+00
     Est. condition number :    0.371E+02

 Order=           3
     NS sqrt iter    1 1.00000000   0.127E+01       0.021     2704.580
     NS sqrt iter    2 1.00000000   0.642E+00       0.033     3391.726
     NS sqrt iter    3 1.00000000   0.207E+00       0.033     3401.183
     NS sqrt iter    4 1.00000000   0.270E-01       0.034     3366.727
     NS sqrt iter    5 1.00000000   0.132E-03       0.034     3340.565
     NS sqrt iter    6 1.00000000   0.442E-10       0.021     2311.778
     Symmetrizing Results
     Final NS sqrt iter    6 1.00000000   0.217E-11

     Est. extremal eigenvalues     -0.83137     2.57881  converged:  T
     TRS4 it   1 1.00000000   0.285E+02       0.007     2144.490   0.100E-11
     TRS4 it   2 1.00000000   0.234E+02       0.013     2195.106   0.100E-11
     TRS4 it   3 1.00000000   0.154E+02       0.013     2182.305   0.100E-11
     TRS4 it   4 1.00000000   0.884E+01       0.013     2211.063   0.100E-11
     TRS4 it   5 1.00000000   0.362E+01       0.013     2219.779   0.100E-11
     TRS4 it   6 1.00000000   0.898E+00       0.013     2221.737   0.100E-11
     TRS4 it   7 1.00000000   0.100E+00       0.013     2209.539   0.100E-11
     TRS4 it   8 1.00000000   0.179E-02       0.013     2194.141   0.100E-11
     TRS4 it   9 1.00000000   0.789E-06       0.013     2196.056   0.100E-11
[...]
     TRS4 it   5 1.00000000   0.413E+01       0.013     2193.485   0.100E-11
     TRS4 it   6 1.00000000   0.129E+01       0.013     2206.342   0.100E-11
     TRS4 it   7 1.00000000   0.225E+00       0.013     2191.215   0.100E-11
     TRS4 it   8 1.00000000   0.102E-01       0.013     2222.771   0.100E-11
     TRS4 it   9 1.00000000   0.303E-04       0.013     2240.970   0.100E-11
     TRS4 it  10 1.00000000   0.622E-09       0.013     2192.148   0.100E-11
     TRS4 it  11 1.00000000   0.107E-13       0.013     2197.944   0.100E-11
     Final TRS4 iteration   11 1.00000000   0.107E-13
     Chemical potential (mu):       0.02540
 
 PAO| energy:  -191.23641325425214      penalty:   1.4711328757314346E-008
 PAO| Writing restart file.
     Est. extremal eigenvalues     -0.83188     2.56497  converged:  T
     TRS4 it   1 1.00000000   0.288E+02       0.007     2140.082   0.100E-11
     TRS4 it   2 1.00000000   0.235E+02       0.013     2218.457   0.100E-11
     TRS4 it   3 1.00000000   0.155E+02       0.013     2196.054   0.100E-11
     TRS4 it   4 1.00000000   0.918E+01       0.013     2228.836   0.100E-11
     TRS4 it   5 1.00000000   0.413E+01       0.013     2202.320   0.100E-11
     TRS4 it   6 1.00000000   0.129E+01       0.013     2227.993   0.100E-11
     TRS4 it   7 1.00000000   0.225E+00       0.013     2230.378   0.100E-11
     TRS4 it   8 1.00000000   0.102E-01       0.013     2202.562   0.100E-11
     TRS4 it   9 1.00000000   0.303E-04       0.013     2208.081   0.100E-11
     TRS4 it  10 1.00000000   0.622E-09       0.013     2215.728   0.100E-11
     TRS4 it  11 1.00000000   0.107E-13       0.013     2193.167   0.100E-11
     Final TRS4 iteration   11 1.00000000   0.107E-13
     Chemical potential (mu):       0.02540

 SCF     1     -1103.042182447     -1103.042182447    1.797651

*********************************************************
 Using MIXING_FRACTION=0.450 to mix KS matrix:  iscf=  2
 KS_nw=0.450*KS + 0.550*KS_old
*********************************************************
     Est. extremal eigenvalues     -0.83188     2.56497  converged:  T
     TRS4 it   1 1.00000000   0.288E+02       0.007     2165.705   0.100E-11
     TRS4 it   2 1.00000000   0.235E+02       0.013     2229.519   0.100E-11
     TRS4 it   3 1.00000000   0.155E+02       0.013     2204.310   0.100E-11
     TRS4 it   4 1.00000000   0.918E+01       0.013     2221.992   0.100E-11
     TRS4 it   5 1.00000000   0.413E+01       0.013     2213.223   0.100E-11
     TRS4 it   6 1.00000000   0.129E+01       0.013     2196.476   0.100E-11
     TRS4 it   7 1.00000000   0.225E+00       0.013     2206.833   0.100E-11
     TRS4 it   8 1.00000000   0.102E-01       0.013     2225.303   0.100E-11
     TRS4 it   9 1.00000000   0.303E-04       0.013     2196.500   0.100E-11
     TRS4 it  10 1.00000000   0.622E-09       0.013     2186.782   0.100E-11
     TRS4 it  11 1.00000000   0.355E-14       0.013     2203.486   0.100E-11
     Final TRS4 iteration   11 1.00000000   0.355E-14
     Chemical potential (mu):       0.02540

 SCF     2     -1103.042182447        -0.000000000    1.775257


 SCF run converged in     2 steps.

 PAO| Storing density matrix for ASPC guess in slot:           1

 ENERGY| Total FORCE_EVAL ( QS ) energy [a.u.]:            -1103.042182447060441

 -------------------------------------------------------------------------------
 -                                                                             -
 -                                DBCSR STATISTICS                             -
 -                                                                             -
 -------------------------------------------------------------------------------
 COUNTER                                    TOTAL       BLAS       SMM       ACC
 flops     5 x     5 x     4             26419200       0.0%    100.0%      0.0%     
 flops    13 x     5 x     4             34078720       0.0%    100.0%      0.0%     
 flops     5 x    13 x     4             34078720       0.0%    100.0%      0.0%     
 flops    13 x    13 x     4             44994560       0.0%    100.0%      0.0%     
 flops     4 x     4 x     5           6535249920       0.0%    100.0%      0.0%     
 flops     5 x     4 x     5           8080588800       0.0%    100.0%      0.0%     
 flops     4 x     4 x    13           8495824896       0.0%    100.0%      0.0%     
 flops    13 x     4 x     5          10504765440       0.0%    100.0%      0.0%     
 flops     5 x     4 x    13          10504765440       0.0%    100.0%      0.0%     
 flops    13 x     4 x    13          13656195072       0.0%    100.0%      0.0%     
 flops     5 x     4 x     4         408018899040       0.0%    100.0%      0.0%     
 flops    13 x     4 x     4         537246153600       0.0%    100.0%      0.0%     
 flops     4 x     4 x     4       30093863611264       0.0%    100.0%      0.0%     
 flops inhomo. stacks                           0       0.0%      0.0%      0.0%
 flops total                        31.097046E+12       0.0%    100.0%      0.0%
 flops max/rank                    982.677366E+09       0.0%    100.0%      0.0%
 matmuls inhomo. stacks                         0       0.0%      0.0%      0.0%
 matmuls total                       239102355722       0.0%    100.0%      0.0%
 number of processed stacks             244256597       0.0%    100.0%      0.0%
 average stack size                                     0.0     978.9       0.0
 marketing flops                    53.767521E+12
 -------------------------------------------------------------------------------
 # multiplications                          50435
 max memory usage/rank             618.336256E+06
 # max total images/rank                        2
 # max 3D layers                                1
 # MPI messages exchanged                20980960
 MPI messages size (bytes):
  total size                         2.492682E+12
  min size                           0.000000E+00
  max size                         541.696000E+03
  average size                     118.806844E+03
 MPI breakdown and total messages size (bytes):
             size <=      128              897690                    11136
       128 < size <=     8192              340569               1291466752
      8192 < size <=    32768               18072                428555136
     32768 < size <=   131072             9035333             674580780032
    131072 < size <=  4194304            10689296            1816829740032
   4194304 < size <= 16777216                   0                        0
  16777216 < size                               0                        0
 -------------------------------------------------------------------------------

 *** WARNING in dbcsr_mm.F:301 :: Using a non-square number of MPI ranks ***
 *** might lead to poor performance. Used ranks: 32 Suggested: 36 64     ***

 -------------------------------------------------------------------------------
 -                                                                             -
 -                      DBCSR MESSAGE PASSING PERFORMANCE                      -
 -                                                                             -
 -------------------------------------------------------------------------------
 ROUTINE             CALLS      AVE VOLUME [Bytes]
 MP_Bcast               14                     12.
 MP_Allreduce       303493                     37.
 MP_Alltoall        130213                  14569.
 MP_ISend          1687858                  55299.
 MP_IRecv          1650888                  56616.
 -------------------------------------------------------------------------------

 -------------------------------------------------------------------------------
 -                                                                             -
 -                                DBM STATISTICS                               -
 -                                                                             -
 -------------------------------------------------------------------------------
    M  x    N  x    K                                          COUNT     PERCENT
 -------------------------------------------------------------------------------

 -------------------------------------------------------------------------------
 -                                                                             -
 -                                GRID STATISTICS                              -
 -                                                                             -
 -------------------------------------------------------------------------------
 LP    KERNEL             BACKEND                              COUNT     PERCENT
 2     collocate ortho    CPU                               13113200      28.83%
 2     integrate ortho    CPU                               13113200      28.83%
 3     collocate ortho    CPU                                8429504      18.53%
 3     integrate ortho    CPU                                8429504      18.53%
 4     collocate ortho    CPU                                1197232       2.63%
 4     integrate ortho    CPU                                1197232       2.63%
 0     collocate general  CPU                                   6144       0.01%
 -------------------------------------------------------------------------------

 MEMORY| Estimated peak process memory [MiB]                                 591

 -------------------------------------------------------------------------------
 -                                                                             -
 -                         MESSAGE PASSING PERFORMANCE                         -
 -                                                                             -
 -------------------------------------------------------------------------------

 ROUTINE             CALLS      AVE VOLUME [Bytes]
 MP_Group                5
 MP_Bcast           377119                   1920.
 MP_Allreduce       937308                    514.
 MP_Sync                 5
 MP_Alltoall           419                2243460.
 MP_SendRecv          1488                  18832.
 MP_ISendRecv         1488                  18832.
 MP_Wait              4218
 MP_ISend             2470                 108139.
 MP_IRecv             2470                 108153.
 -------------------------------------------------------------------------------


 -------------------------------------------------------------------------------
 -                                                                             -
 -                           R E F E R E N C E S                               -
 -                                                                             -
 -------------------------------------------------------------------------------
 
 CP2K version 2024.3 (Development Version), the CP2K developers group (2024).
 CP2K is freely available from https://www.cp2k.org/ .
 
 T. D. Kuehne, M. Iannuzzi, M. Del Ben, V. V. Rybkin, P. Seewald, F. Stein, T. 
 Laino, R. Z. Khaliullin, O. Schuett, F. Schiffmann, D. Golze, J. Wilhelm, S. 
 Chulkov, M. H. Bani-Hashemian, V. Weber, U. Borstnik, M. Taillefumier, A. S. 
 Jakobovits, A. Lazzaro, H. Pabst, T. Mueller, R. Schade, M. Guidon, S. 
 Andermatt, N. Holmberg, G. K. Schenter, A. Hehn, A. Bussy, F. Belleflamme, G. 
 Tabacchi, A. Gloess, M. Lass, I. Bethune, C. J. Mundy, C. Plessl, M. Watkins, 
 J. VandeVondele, M. Krack, J. Hutter.
 J. Chem. Phys. 152, 194103 (2020).
 CP2K: An electronic structure and molecular dynamics software package - 
 Quickstep: Efficient and accurate electronic structure calculations.
 https://doi.org/10.1063/5.0007045

 O. Schuett, J. VandeVondele.
 J. Chem. Theory Comput. 14, 4168-4175 (2018).
 Machine Learning Adaptive Basis Sets for Efficient Large Scale Density 
 Functional Theory Simulation.
 https://doi.org/10.1021/acs.jctc.8b00378

 O. Schuett, P. Messmer, J. Hutter, J. VandeVondele.
 Electronic Structure Calculations on Graphics Processing Units, 173-190 (2016).
 GPU-Accelerated Sparse Matrix-Matrix Multiplication for Linear Scaling Density 
 Functional Theory.
 https://doi.org/10.1002/9781118670712.ch8

 A. Heinecke, G. Henry, M. Hutchinson, H. Pabst.
 Proceedings of Intl. Supercomputing Conference, 981-991 (2016).
 LIBXSMM: Accelerating Small Matrix Multiplications by Runtime Code Generation.
 https://doi.org/10.1109/SC.2016.83

 J. Hutter, M. Iannuzzi, F. Schiffmann, J. VandeVondele.
 WIREs Comput Mol Sci. 4, 15-25 (2014).
 CP2K: atomistic simulations of condensed matter systems.
 https://doi.org/10.1002/wcms.1159

 U. Borstnik, J. VandeVondele, V. Weber, J. Hutter.
 Parallel Comput. 40, 47-58 (2014).
 Sparse matrix multiplication: The distributed block-compressed sparse row 
 library.
 https://doi.org/10.1016/j.parco.2014.03.012

 A. Marek, V. Blum, R. Johanni, V. Havu, B. Lang, T. Auckenthaler, A. Heinecke, 
 H. Bungartz, H. Lederer.
 J. Phys. Condens. Matter 26, 213201 (2014).
 The ELPA library: scalable parallel eigenvalue solutions for electronic 
 structure theory and computational science.
 https://doi.org/10.1088/0953-8984/26/21/213201

 J. VandeVondele, U. Borstnik, J. Hutter.
 J. Chem. Theory Comput. 8, 3565-3573 (2012).
 Linear Scaling Self-Consistent Field Calculations with Millions of Atoms in the 
 Condensed Phase.
 https://doi.org/10.1021/ct200897x

 J. VandeVondele, J. Hutter.
 J. Chem. Phys. 127, 114105 (2007).
 Gaussian basis sets for accurate calculations on molecular systems in gas and 
 condensed phases.
 https://doi.org/10.1063/1.2770708

 J. VandeVondele, M. Krack, F. Mohamed, M. Parrinello, T. Chassaing, J. Hutter.
 Comput. Phys. Commun. 167, 103-128 (2005).
 QUICKSTEP: Fast and accurate density functional calculations using a mixed 
 Gaussian and plane waves approach.
 https://doi.org/10.1016/j.cpc.2004.12.014

 M. Krack.
 Theor. Chem. Acc. 114, 145-152 (2005).
 Pseudopotentials for H to Kr optimized for gradient-corrected 
 exchange-correlation functionals.
 https://doi.org/10.1007/s00214-005-0655-y

 M. Frigo, S. G. Johnson.
 Proc. IEEE 93, 216-231 (2005).
 The design and implementation of FFTW3.
 https://doi.org/10.1109/JPROC.2004.840301

 A. M. N. Niklasson, C. J. Tymczak, M. Challacombe.
 J. Chem. Phys. 118, 8611-8620 (2003).
 Trace resetting density matrix purification in O(N) self-consistent-field 
 theory.
 https://doi.org/10.1063/1.1559913

 C. Hartwigsen, S. Goedecker, J. Hutter.
 Phys. Rev. B 58, 3641-3662 (1998).
 Relativistic separable dual-space Gaussian pseudopotentials from H to Rn.
 https://doi.org/10.1103/PhysRevB.58.3641

 G. Lippert, J. Hutter, M. Parrinello.
 Mol. Phys. 92, 477-487 (1997).
 A hybrid Gaussian and plane wave density functional scheme.
 https://doi.org/10.1080/002689797170220

 S. Goedecker, M. Teter, J. Hutter.
 Phys. Rev. B 54, 1703-1710 (1996).
 Separable dual-space Gaussian pseudopotentials.
 https://doi.org/10.1103/PhysRevB.54.1703

 J. P. Perdew, K. Burke, M. Ernzerhof.
 Phys. Rev. Lett. 77, 3865-3868 (1996).
 Generalized gradient approximation made simple.
 https://doi.org/10.1103/PhysRevLett.77.3865


 -------------------------------------------------------------------------------
 -                                                                             -
 -                                T I M I N G                                  -
 -                                                                             -
 -------------------------------------------------------------------------------
 SUBROUTINE                       CALLS  ASD         SELF TIME        TOTAL TIME
                                MAXIMUM       AVERAGE  MAXIMUM  AVERAGE  MAXIMUM
 CP2K                                 1  1.0    0.012    0.016  449.925  449.925
 qs_energies                          1  2.0    0.000    0.000  449.762  449.762
 ls_scf                               1  3.0    0.000    0.000  448.680  448.680
 pao_update                           7  4.0    0.006    0.025  418.503  418.508
 pao_calc_energy                    820  5.0    0.003    0.018  375.229  375.234
 dbcsr_multiply_generic           50435  8.4    1.381    1.509  349.439  349.750
 multiply_cannon                  50435  9.4    2.606    3.140  282.247  285.488
 multiply_cannon_loop             50435 10.4    1.876    2.199  271.385  275.700
 ls_scf_init_matrix_S               827  7.0    0.008    0.010  214.210  214.266
 pao_rebuild_S                      820  6.0    0.002    0.003  212.387  212.445
 matrix_sqrt_Newton_Schulz          827  8.0    0.173    0.296  198.941  198.988
 multiply_cannon_multrec         403480 11.4  178.891  181.131  179.715  181.945
 pao_dm_trs4                        820  6.0    0.006    0.007  162.456  162.504
 density_matrix_trs4                835  7.0    0.216    0.354  156.894  156.977
 mp_waitall_1                   3229588 12.6   87.942   95.818   87.942   95.818
 multiply_cannon_metrocomm3      403480 11.4    0.707    0.801   70.476   75.255
 arnoldi_extremal                  1662  8.5    0.013    0.015   61.897   61.939
 arnoldi_normal_ev                 1662  9.5    0.037    0.063   61.881   61.923
 build_subspace                    6086 10.6    0.370    0.397   54.367   54.405
 make_m2s                        100870  9.4    0.545    0.758   51.051   52.334
 dbcsr_matrix_vector_mult        185904 11.6    0.794    1.198   51.148   51.598
 make_images                     100870 10.4    7.403    7.697   49.683   50.984
 dbcsr_matrix_vector_mult_local  185904 12.6   43.704   44.165   43.912   44.371
 pao_calc_AB                       1089  5.8    0.002    0.002   42.807   42.813
 pao_calc_AB_equi                  1089  6.8    0.040    0.101   42.805   42.811
 pao_calc_grad_lnv_wrt_AB           268  7.0    0.020    0.025   42.384   42.424
 ls_scf_main                          7  4.0    0.000    0.001   26.649   26.651
 make_images_data                100870 11.4    0.861    1.086   21.555   24.099
 ls_scf_dm_to_ks                     15  5.0    0.000    0.000   23.413   23.418
 hybrid_alltoall_any             102519 12.3    0.917    1.879   16.959   20.247
 matrix_qs_to_ls                   1662  7.5    0.016    0.023   17.198   17.370
 mp_sum_l                        206054  9.5    8.577   16.363    8.577   16.363
 qs_ks_update_qs_env                 16  6.0    0.000    0.000   13.901   13.907
 rebuild_ks_matrix                   16  7.0    0.000    0.000   13.890   13.895
 qs_ks_build_kohn_sham_matrix        16  8.0    0.003    0.003   13.890   13.895
 calculate_norms                 753264 11.4   11.731   12.772   11.731   12.772
 make_images_pack                100870 11.4   11.170   11.450   11.306   11.588
 qs_rho_update_rho_low               16  6.0    0.000    0.000   10.975   10.979
 calculate_rho_elec                  16  7.0    0.005    0.006   10.975   10.979
 dbcsr_multiply_generic_mpsum_f   36993  9.5    0.027    0.031    5.197   10.769
 sum_up_and_integrate                16  9.0    0.000    0.001   10.526   10.532
 integrate_v_rspace                  16 10.0    0.000    0.001   10.511   10.517
 grid_collocate_task_list            16  8.0    9.711    9.858    9.711    9.858
 grid_integrate_task_list            16 11.0    9.271    9.426    9.271    9.426
 -------------------------------------------------------------------------------

 The number of warnings for this run is : 1
 
 -------------------------------------------------------------------------------
  **** **** ******  **  PROGRAM ENDED AT                 2024-09-23 23:30:36.951
 ***** ** ***  *** **   PROGRAM RAN ON                                    moritz
 **    ****   ******    PROGRAM RAN BY                                       ole
 ***** **    ** ** **   PROGRAM PROCESS ID                                164214
  **** **  *******  **  PROGRAM STOPPED IN /home/ole/git/pao_ml_equivar/64H2O_MD
                                           /Frame0900
