 DBCSR| CPU Multiplication driver                                           XSMM (U)
 DBCSR| Multrec recursion limit                                              512 (U)
 DBCSR| Multiplication stack size                                           1000 (D)
 DBCSR| Maximum elements for images                                    UNLIMITED (U)
 DBCSR| Multiplicative factor virtual images                                   1 (U)
 DBCSR| Use multiplication densification                                       T (D)
 DBCSR| Multiplication size stacks                                             3 (U)
 DBCSR| Use memory pool for CPU allocation                                     F (U)
 DBCSR| Number of 3D layers                                               SINGLE (U)
 DBCSR| Use MPI memory allocation                                              F (U)
 DBCSR| Use RMA algorithm                                                      F (U)
 DBCSR| Use Communication thread                                               T (U)
 DBCSR| Communication thread load                                             87 (D)
 DBCSR| MPI: My process id                                                     0
 DBCSR| MPI: Number of processes                                              32
 DBCSR| OMP: Current number of threads                                         1
 DBCSR| OMP: Max number of threads                                             1
 DBCSR| Split modifier for TAS multiplication algorithm                  1.0E+00 (U)


  **** **** ******  **  PROGRAM STARTED AT               2024-09-23 17:35:56.989
 ***** ** ***  *** **   PROGRAM STARTED ON                                moritz
 **    ****   ******    PROGRAM STARTED BY                                   ole
 ***** **    ** ** **   PROGRAM PROCESS ID                                156535
  **** **  *******  **  PROGRAM STARTED IN /home/ole/git/pao_ml_equivar/64H2O_MD
                                           /Frame1900

 CP2K| version string:                 CP2K version 2024.3 (Development Version)
 CP2K| source code revision number:                                  git:3f890bb
 CP2K| cp2kflags: omp libint fftw3 libxc libgrpp pexsi elpa parallel scalapack c
 CP2K|            osma quip deepmd xsmm plumed2 spglib libdftd4 sirius libvori l
 CP2K|            libbqb libvdwxc hdf5
 CP2K| is freely available from                            https://www.cp2k.org/
 CP2K| Program compiled at                          Mo 23 Sep 2024 17:17:04 CEST
 CP2K| Program compiled on                                                moritz
 CP2K| Program compiled for                                                local
 CP2K| Data directory path                               /home/ole/git/cp2k/data
 CP2K| Input file name                                             64H2O_ref.inp

 GLOBAL| Force Environment number                                              1
 GLOBAL| Basis set file name                                        BASIS_MOLOPT
 GLOBAL| Potential file name                                      GTH_POTENTIALS
 GLOBAL| MM Potential file name                                     MM_POTENTIAL
 GLOBAL| Coordinate file name                                         coords.xyz
 GLOBAL| Method name                                                        CP2K
 GLOBAL| Project name                                                  64H2O_ref
 GLOBAL| Run type                                                         ENERGY
 GLOBAL| FFT library                                                       FFTW3
 GLOBAL| Diagonalization library                                            ELPA
 GLOBAL| DGEMM library                                                      BLAS
 GLOBAL| Minimum number of eigenvectors for ELPA usage                        16
 GLOBAL| Orthonormality check for eigenvectors                          DISABLED
 GLOBAL| Matrix multiplication library                                     COSMA
 GLOBAL| All-to-all communication in single precision                          F
 GLOBAL| FFTs using library dependent lengths                                  F
 GLOBAL| Grid backend                                                       AUTO
 GLOBAL| Global print level                                                  LOW
 GLOBAL| MPI I/O enabled                                                       T
 GLOBAL| Total number of message passing processes                            32
 GLOBAL| Number of threads for this process                                    1
 GLOBAL| This output is from process                                           0
 GLOBAL| Stack size for threads created by OpenMP (OMP_STACKSIZE)        default
 GLOBAL| CPU model name           AMD Ryzen Threadripper 3970X 32-Core Processor
 GLOBAL| CPUID                                                              1002

 MEMORY| system memory details [Kb]
 MEMORY|                        rank 0           min           max       average
 MEMORY| MemTotal            131752136     131752136     131752136     131752136
 MEMORY| MemFree             118433604     118433604     118433604     118433604
 MEMORY| Buffers                259652        259652        259652        259652
 MEMORY| Cached                7029068       7029068       7029068       7029068
 MEMORY| Slab                   700960        700960        700960        700960
 MEMORY| SReclaimable           268132        268132        268132        268132
 MEMORY| MemLikelyFree       125990456     125990456     125990456     125990456


 GENERATE|  Preliminary Number of Bonds generated:                             0
 GENERATE|  Achieved consistency in connectivity generation.

 *******************************************************************************
 *******************************************************************************
 **                                                                           **
 **     #####                         ##              ##                      **
 **    ##   ##            ##          ##              ##                      **
 **   ##     ##                       ##            ######                    **
 **   ##     ##  ##   ##  ##   #####  ##  ##   ####   ##    #####    #####    **
 **   ##     ##  ##   ##  ##  ##      ## ##   ##      ##   ##   ##  ##   ##   **
 **   ##  ## ##  ##   ##  ##  ##      ####     ###    ##   ######   ######    **
 **    ##  ###   ##   ##  ##  ##      ## ##      ##   ##   ##       ##        **
 **     #######   #####   ##   #####  ##  ##  ####    ##    #####   ##        **
 **           ##                                                    ##        **
 **                                                                           **
 **                                                ... make the atoms dance   **
 **                                                                           **
 **            Copyright (C) by CP2K developers group (2000-2024)             **
 **                      J. Chem. Phys. 152, 194103 (2020)                    **
 **                                                                           **
 *******************************************************************************


 TOTAL NUMBERS AND MAXIMUM NUMBERS

  Total number of            - Atomic kinds:                                   2
                             - Atoms:                                        192
                             - Shell sets:                                   192
                             - Shells:                                       704
                             - Primitive Cartesian functions:               1344
                             - Cartesian basis functions:                   1536
                             - Spherical basis functions:                   1472

  Maximum angular momentum of- Orbital basis functions:                        2
                             - Local part of the GTH pseudopotential:          2
                             - Non-local part of the GTH pseudopotential:      0

 ------------------------------ Linear scaling SCF -----------------------------
 eps_scf:                                                              0.100E-07
 eps_filter:                                                           0.100E-11
 mixing_fraction:                                                      0.450E+00
 max_scf:                                                                     25
 fixed chemical potential (mu)                                                 F
 has unit metric:                                                              F
 Computing inv(S):                                                             T
 Computing sqrt(S):                                                            T
 Computing S preconditioner                                                    F
 S sqrt method:                                                     NEWTONSCHULZ
 S sqrt order:                                                                 3
 Extrapolation order:                                                          1
 S preconditioner type                                                      NONE
 Polarized Atomic Orbitals (PAO)                                               F
 Purification method                                   Trace resetting 4th order
 Cluster type                                                             ATOMIC
 Computing Chebyshev                                                       FALSE
 Using PAO                                                                     F
 -------------------------------------------------------------------------------


     Lanczos converged:  F threshold:   0.100E-02
     Est. extremal eigenvalues:    0.846E+01   0.571E-02
     Est. condition number :    0.148E+04

 Order=           3
     NS sqrt iter    1 1.00000000   0.218E+01       0.065     6176.486
     NS sqrt iter    2 1.00000000   0.115E+01       0.100     7995.165
     NS sqrt iter    3 1.00000000   0.573E+00       0.099     8041.376
     NS sqrt iter    4 1.00000000   0.331E+00       0.100     8012.759
     NS sqrt iter    5 1.00000000   0.224E+00       0.098     8148.955
     NS sqrt iter    6 1.00000000   0.103E+00       0.099     8040.716
     NS sqrt iter    7 1.00000000   0.127E-01       0.099     8023.286
     NS sqrt iter    8 1.00000000   0.628E-04       0.098     8105.085
     NS sqrt iter    9 1.00000000   0.357E-10       0.059     5814.019
     Symmetrizing Results
     Final NS sqrt iter    9 1.00000000   0.724E-11



 Guess for atomic kind: O

 Electronic structure
    Total number of core electrons                                          2.00
    Total number of valence electrons                                       6.00
    Total number of electrons                                               8.00
    Multiplicity                                                   not specified
    S   [  2.00] 2.00
    P      4.00


 *******************************************************************************
                  Iteration          Convergence                     Energy [au]
 *******************************************************************************
                          1        0.708315                     -15.576645311500
                          2        0.608879                     -15.587933561584
                          3        0.102828E-01                 -15.656849565404
                          4        0.113889E-02                 -15.656866888140
                          5        0.434197E-03                 -15.656867072159
                          6        0.263771E-03                 -15.656867091904
                          7        0.478536E-06                 -15.656867103452

 Energy components [Hartree]           Total Energy ::          -15.656867103452
                                        Band Energy ::           -3.000198112285
                                     Kinetic Energy ::           11.759971203220
                                   Potential Energy ::          -27.416838306672
                                      Virial (-V/T) ::            2.331369510426
                                        Core Energy ::          -26.140716385623
                                          XC Energy ::           -3.154051012914
                                     Coulomb Energy ::           13.637900295084
                       Total Pseudopotential Energy ::          -37.935781716540
                       Local Pseudopotential Energy ::          -39.218907440693
                    Nonlocal Pseudopotential Energy ::            1.283125724153
                                        Confinement ::            0.350941276976

 Orbital energies  State     L     Occupation   Energy[a.u.]          Energy[eV]

                       1     0          2.000      -0.864471          -23.523463

                       1     1          4.000      -0.317814           -8.648154


 Total Electron Density at R=0:                                         0.000068

 Guess for atomic kind: H

 Electronic structure
    Total number of core electrons                                          0.00
    Total number of valence electrons                                       1.00
    Total number of electrons                                               1.00
    Multiplicity                                                   not specified
    S      1.00


 *******************************************************************************
                  Iteration          Convergence                     Energy [au]
 *******************************************************************************
                          1        0.437545E-02                  -0.424159432110
                          2        0.531356E-03                  -0.424178438213
                          3        0.259176E-06                  -0.424178722480

 Energy components [Hartree]           Total Energy ::           -0.424178722480
                                        Band Energy ::           -0.199015229016
                                     Kinetic Energy ::            0.464007633961
                                   Potential Energy ::           -0.888186356441
                                      Virial (-V/T) ::            1.914163240935
                                        Core Energy ::           -0.479160803564
                                          XC Energy ::           -0.244352904054
                                     Coulomb Energy ::            0.299334985138
                       Total Pseudopotential Energy ::           -0.962295316385
                       Local Pseudopotential Energy ::           -0.962295316385
                    Nonlocal Pseudopotential Energy ::            0.000000000000
                                        Confinement ::            0.191268788606

 Orbital energies  State     L     Occupation   Energy[a.u.]          Energy[eV]

                       1     0          1.000      -0.199015           -5.415480


 Total Electron Density at R=0:                                         0.242907
 Re-scaling the density matrix to get the right number of electrons
                  # Electrons              Trace(P)               Scaling factor
                          512               512.001                        1.000
 Energy with the initial guess:     -1095.701183859

     Est. extremal eigenvalues     -0.94938     5.20086  converged:  T
     TRS4 it   1 1.00000000   0.566E+02       0.019     5386.862   0.100E-11
     TRS4 it   2 1.00000000   0.538E+02       0.019     5287.617   0.100E-11
     TRS4 it   3 1.00000000   0.336E+02       0.036     5509.208   0.100E-11
     TRS4 it   4 1.00000000   0.178E+02       0.036     5557.949   0.100E-11
     TRS4 it   5 1.00000000   0.108E+02       0.036     5535.070   0.100E-11
     TRS4 it   6 1.00000000   0.492E+01       0.036     5572.367   0.100E-11
     TRS4 it   7 1.00000000   0.147E+01       0.036     5556.808   0.100E-11
     TRS4 it   8 1.00000000   0.225E+00       0.036     5565.348   0.100E-11
     TRS4 it   9 1.00000000   0.974E-02       0.036     5638.006   0.100E-11
     TRS4 it  10 1.00000000   0.287E-04       0.036     5569.038   0.100E-11
     TRS4 it  11 1.00000000   0.916E-10       0.035     5659.623   0.100E-11
     Final TRS4 iteration   11 1.00000000   0.916E-10
     Chemical potential (mu):      -0.10628

 SCF     1     -1097.906121883     -1097.906121883    2.059959

*********************************************************
 Using MIXING_FRACTION=0.450 to mix KS matrix:  iscf=  2
 KS_nw=0.450*KS + 0.550*KS_old
*********************************************************
     Est. extremal eigenvalues     -0.82934     5.29230  converged:  T
     TRS4 it   1 1.00000000   0.557E+02       0.018     5508.458   0.100E-11
     TRS4 it   2 1.00000000   0.540E+02       0.019     5298.875   0.100E-11
     TRS4 it   3 1.00000000   0.350E+02       0.036     5622.494   0.100E-11
     TRS4 it   4 1.00000000   0.183E+02       0.037     5494.477   0.100E-11
     TRS4 it   5 1.00000000   0.118E+02       0.036     5546.832   0.100E-11
     TRS4 it   6 1.00000000   0.617E+01       0.035     5661.338   0.100E-11
     TRS4 it   7 1.00000000   0.245E+01       0.036     5595.069   0.100E-11
     TRS4 it   8 1.00000000   0.669E+00       0.036     5552.887   0.100E-11
     TRS4 it   9 1.00000000   0.955E-01       0.036     5599.110   0.100E-11
     TRS4 it  10 1.00000000   0.447E-02       0.035     5659.866   0.100E-11
     TRS4 it  11 1.00000000   0.429E-05       0.036     5577.913   0.100E-11
     TRS4 it  12 1.00000000   0.247E-11       0.036     5560.524   0.100E-11
     Final TRS4 iteration   12 1.00000000   0.247E-11
     Chemical potential (mu):      -0.01944

 SCF     2     -1102.950627049        -5.044505167    2.083588

*********************************************************
 Using MIXING_FRACTION=0.450 to mix KS matrix:  iscf=  3
 KS_nw=0.450*KS + 0.550*KS_old
*********************************************************
     Est. extremal eigenvalues     -0.83967     5.28532  converged:  T
     TRS4 it   1 1.00000000   0.558E+02       0.019     5374.437   0.100E-11
     TRS4 it   2 1.00000000   0.539E+02       0.019     5420.486   0.100E-11
     TRS4 it   3 1.00000000   0.348E+02       0.036     5587.768   0.100E-11
     TRS4 it   4 1.00000000   0.183E+02       0.036     5576.425   0.100E-11
     TRS4 it   5 1.00000000   0.117E+02       0.036     5598.116   0.100E-11
     TRS4 it   6 1.00000000   0.596E+01       0.036     5612.536   0.100E-11
     TRS4 it   7 1.00000000   0.229E+01       0.036     5613.788   0.100E-11
     TRS4 it   8 1.00000000   0.584E+00       0.036     5552.673   0.100E-11
     TRS4 it   9 1.00000000   0.730E-01       0.036     5579.629   0.100E-11
     TRS4 it  10 1.00000000   0.243E-02       0.036     5572.396   0.100E-11
     TRS4 it  11 1.00000000   0.119E-05       0.036     5568.038   0.100E-11
     TRS4 it  12 1.00000000   0.242E-12       0.036     5517.436   0.100E-11
     Final TRS4 iteration   12 1.00000000   0.242E-12
     Chemical potential (mu):      -0.02845

 SCF     3     -1103.112268035        -0.161640986    2.086102

*********************************************************
 Using MIXING_FRACTION=0.450 to mix KS matrix:  iscf=  4
 KS_nw=0.450*KS + 0.550*KS_old
*********************************************************
     Est. extremal eigenvalues     -0.83518     5.29013  converged:  T
     TRS4 it   1 1.00000000   0.558E+02       0.019     5416.044   0.100E-11
     TRS4 it   2 1.00000000   0.539E+02       0.019     5305.169   0.100E-11
     TRS4 it   3 1.00000000   0.348E+02       0.036     5530.261   0.100E-11
     TRS4 it   4 1.00000000   0.183E+02       0.035     5687.268   0.100E-11
     TRS4 it   5 1.00000000   0.117E+02       0.037     5481.424   0.100E-11
     TRS4 it   6 1.00000000   0.605E+01       0.036     5644.311   0.100E-11
     TRS4 it   7 1.00000000   0.235E+01       0.036     5589.727   0.100E-11
     TRS4 it   8 1.00000000   0.619E+00       0.036     5560.569   0.100E-11
     TRS4 it   9 1.00000000   0.823E-01       0.036     5604.603   0.100E-11
     TRS4 it  10 1.00000000   0.320E-02       0.036     5518.674   0.100E-11
     TRS4 it  11 1.00000000   0.234E-05       0.036     5583.375   0.100E-11
     TRS4 it  12 1.00000000   0.878E-12       0.036     5582.271   0.100E-11
     Final TRS4 iteration   12 1.00000000   0.878E-12
     Chemical potential (mu):      -0.02244

 SCF     4     -1103.120506756        -0.008238720    2.084842

*********************************************************
 Using MIXING_FRACTION=0.450 to mix KS matrix:  iscf=  5
 KS_nw=0.450*KS + 0.550*KS_old
*********************************************************
     Est. extremal eigenvalues     -0.83388     5.29113  converged:  T
     TRS4 it   1 1.00000000   0.558E+02       0.018     5564.471   0.100E-11
     TRS4 it   2 1.00000000   0.539E+02       0.019     5270.587   0.100E-11
     TRS4 it   3 1.00000000   0.348E+02       0.036     5603.624   0.100E-11
     TRS4 it   4 1.00000000   0.183E+02       0.035     5677.395   0.100E-11
     TRS4 it   5 1.00000000   0.117E+02       0.036     5547.137   0.100E-11
     TRS4 it   6 1.00000000   0.604E+01       0.036     5589.781   0.100E-11
     TRS4 it   7 1.00000000   0.235E+01       0.035     5700.135   0.100E-11
     TRS4 it   8 1.00000000   0.617E+00       0.036     5637.668   0.100E-11
     TRS4 it   9 1.00000000   0.820E-01       0.036     5588.711   0.100E-11
     TRS4 it  10 1.00000000   0.318E-02       0.036     5602.562   0.100E-11
     TRS4 it  11 1.00000000   0.232E-05       0.035     5758.064   0.100E-11
     TRS4 it  12 1.00000000   0.924E-12       0.036     5574.607   0.100E-11
     Final TRS4 iteration   12 1.00000000   0.924E-12
     Chemical potential (mu):      -0.02168

 SCF     5     -1103.121156819        -0.000650064    2.080843

*********************************************************
 Using MIXING_FRACTION=0.450 to mix KS matrix:  iscf=  6
 KS_nw=0.450*KS + 0.550*KS_old
*********************************************************
     Est. extremal eigenvalues     -0.83325     5.29183  converged:  T
     TRS4 it   1 1.00000000   0.558E+02       0.019     5339.984   0.100E-11
     TRS4 it   2 1.00000000   0.539E+02       0.019     5377.632   0.100E-11
     TRS4 it   3 1.00000000   0.348E+02       0.036     5555.136   0.100E-11
     TRS4 it   4 1.00000000   0.183E+02       0.035     5672.350   0.100E-11
     TRS4 it   5 1.00000000   0.117E+02       0.035     5692.175   0.100E-11
     TRS4 it   6 1.00000000   0.605E+01       0.036     5607.939   0.100E-11
     TRS4 it   7 1.00000000   0.236E+01       0.035     5687.787   0.100E-11
     TRS4 it   8 1.00000000   0.622E+00       0.036     5621.815   0.100E-11
     TRS4 it   9 1.00000000   0.832E-01       0.036     5545.949   0.100E-11
     TRS4 it  10 1.00000000   0.329E-02       0.036     5624.117   0.100E-11
     TRS4 it  11 1.00000000   0.254E-05       0.036     5542.788   0.100E-11
     TRS4 it  12 1.00000000   0.111E-11       0.036     5574.812   0.100E-11
     Final TRS4 iteration   12 1.00000000   0.111E-11
     Chemical potential (mu):      -0.02074

 SCF     6     -1103.121251532        -0.000094713    2.081559

*********************************************************
 Using MIXING_FRACTION=0.450 to mix KS matrix:  iscf=  7
 KS_nw=0.450*KS + 0.550*KS_old
*********************************************************
     Est. extremal eigenvalues     -0.83279     5.29216  converged:  T
     TRS4 it   1 1.00000000   0.558E+02       0.019     5276.736   0.100E-11
     TRS4 it   2 1.00000000   0.539E+02       0.018     5426.579   0.100E-11
     TRS4 it   3 1.00000000   0.348E+02       0.037     5437.642   0.100E-11
     TRS4 it   4 1.00000000   0.183E+02       0.036     5606.623   0.100E-11
     TRS4 it   5 1.00000000   0.117E+02       0.036     5524.694   0.100E-11
     TRS4 it   6 1.00000000   0.605E+01       0.035     5711.672   0.100E-11
     TRS4 it   7 1.00000000   0.236E+01       0.036     5529.842   0.100E-11
     TRS4 it   8 1.00000000   0.622E+00       0.036     5584.219   0.100E-11
     TRS4 it   9 1.00000000   0.834E-01       0.036     5553.956   0.100E-11
     TRS4 it  10 1.00000000   0.330E-02       0.036     5636.010   0.100E-11
     TRS4 it  11 1.00000000   0.258E-05       0.035     5671.208   0.100E-11
     TRS4 it  12 1.00000000   0.116E-11       0.036     5604.235   0.100E-11
     Final TRS4 iteration   12 1.00000000   0.116E-11
     Chemical potential (mu):      -0.02039

 SCF     7     -1103.121271363        -0.000019831    2.091420

*********************************************************
 Using MIXING_FRACTION=0.450 to mix KS matrix:  iscf=  8
 KS_nw=0.450*KS + 0.550*KS_old
*********************************************************
     Est. extremal eigenvalues     -0.83261     5.29233  converged:  T
     TRS4 it   1 1.00000000   0.558E+02       0.019     5287.321   0.100E-11
     TRS4 it   2 1.00000000   0.539E+02       0.019     5378.050   0.100E-11
     TRS4 it   3 1.00000000   0.348E+02       0.037     5404.473   0.100E-11
     TRS4 it   4 1.00000000   0.183E+02       0.036     5593.825   0.100E-11
     TRS4 it   5 1.00000000   0.118E+02       0.036     5563.473   0.100E-11
     TRS4 it   6 1.00000000   0.605E+01       0.036     5576.789   0.100E-11
     TRS4 it   7 1.00000000   0.236E+01       0.036     5644.617   0.100E-11
     TRS4 it   8 1.00000000   0.623E+00       0.036     5521.660   0.100E-11
     TRS4 it   9 1.00000000   0.836E-01       0.036     5638.979   0.100E-11
     TRS4 it  10 1.00000000   0.333E-02       0.036     5640.750   0.100E-11
     TRS4 it  11 1.00000000   0.263E-05       0.036     5540.527   0.100E-11
     TRS4 it  12 1.00000000   0.124E-11       0.035     5670.901   0.100E-11
     Final TRS4 iteration   12 1.00000000   0.124E-11
     Chemical potential (mu):      -0.02017

 SCF     8     -1103.121276141        -0.000004778    2.085170


 SCF run converged in     8 steps.

 Writing restart DM 64H2O_ref_LS_DM_SPIN_1_RESTART.dm with checksum:       0.61158839E+04

 ENERGY| Total FORCE_EVAL ( QS ) energy [a.u.]:            -1103.121276140619557

 -------------------------------------------------------------------------------
 -                                                                             -
 -                                DBCSR STATISTICS                             -
 -                                                                             -
 -------------------------------------------------------------------------------
 COUNTER                                    TOTAL       BLAS       SMM       ACC
 flops     5 x     5 x     5          79277006000       0.0%    100.0%      0.0%     
 flops    13 x     5 x     5         102651166150       0.0%    100.0%      0.0%     
 flops     5 x    13 x     5         102651306550       0.0%    100.0%      0.0%     
 flops     5 x     5 x    13         103160859100       0.0%    100.0%      0.0%     
 flops    13 x     5 x    13         133607320340       0.0%    100.0%      0.0%     
 flops     5 x    13 x    13         133617245710       0.0%    100.0%      0.0%     
 flops    13 x    13 x     5         134771928070       0.0%    100.0%      0.0%     
 flops    13 x    13 x    13         175463971826       0.0%    100.0%      0.0%     
 flops inhomo. stacks                           0       0.0%      0.0%      0.0%
 flops total                       965.200804E+09       0.0%    100.0%      0.0%
 flops max/rank                     30.978209E+09       0.0%    100.0%      0.0%
 matmuls inhomo. stacks                         0       0.0%      0.0%      0.0%
 matmuls total                         1069467373       0.0%    100.0%      0.0%
 number of processed stacks               1514476       0.0%    100.0%      0.0%
 average stack size                                     0.0     706.2       0.0
 marketing flops                     1.569237E+12
 -------------------------------------------------------------------------------
 # multiplications                            246
 max memory usage/rank             619.290624E+06
 # max total images/rank                        2
 # max 3D layers                                1
 # MPI messages exchanged                  102336
 MPI messages size (bytes):
  total size                        42.313359E+09
  min size                           0.000000E+00
  max size                         541.696000E+03
  average size                     413.474812E+03
 MPI breakdown and total messages size (bytes):
             size <=      128                 312                        0
       128 < size <=     8192                  42                   279312
      8192 < size <=    32768                  62                   841968
     32768 < size <=   131072                  42                  5160864
    131072 < size <=  4194304              101878              42307075296
   4194304 < size <= 16777216                   0                        0
  16777216 < size                               0                        0
 -------------------------------------------------------------------------------

 *** WARNING in dbcsr_mm.F:301 :: Using a non-square number of MPI ranks ***
 *** might lead to poor performance. Used ranks: 32 Suggested: 36 64     ***

 -------------------------------------------------------------------------------
 -                                                                             -
 -                      DBCSR MESSAGE PASSING PERFORMANCE                      -
 -                                                                             -
 -------------------------------------------------------------------------------
 ROUTINE             CALLS      AVE VOLUME [Bytes]
 MP_Bcast                9                     12.
 MP_Allreduce         1762                     34.
 MP_Alltoall           546                  34827.
 MP_ISend             8604                 170552.
 MP_IRecv             8238                 178756.
 -------------------------------------------------------------------------------

 -------------------------------------------------------------------------------
 -                                                                             -
 -                                DBM STATISTICS                               -
 -                                                                             -
 -------------------------------------------------------------------------------
    M  x    N  x    K                                          COUNT     PERCENT
 -------------------------------------------------------------------------------

 -------------------------------------------------------------------------------
 -                                                                             -
 -                                GRID STATISTICS                              -
 -                                                                             -
 -------------------------------------------------------------------------------
 LP    KERNEL             BACKEND                              COUNT     PERCENT
 2     collocate ortho    CPU                                7379820      28.83%
 2     integrate ortho    CPU                                7379820      28.83%
 3     collocate ortho    CPU                                4739859      18.52%
 3     integrate ortho    CPU                                4739859      18.52%
 4     collocate ortho    CPU                                 674532       2.64%
 4     integrate ortho    CPU                                 674532       2.64%
 0     collocate general  CPU                                   6144       0.02%
 -------------------------------------------------------------------------------

 MEMORY| Estimated peak process memory [MiB]                                 592

 -------------------------------------------------------------------------------
 -                                                                             -
 -                         MESSAGE PASSING PERFORMANCE                         -
 -                                                                             -
 -------------------------------------------------------------------------------

 ROUTINE             CALLS      AVE VOLUME [Bytes]
 MP_Group                5
 MP_Bcast             2418                 161261.
 MP_Allreduce         6482                    940.
 MP_Sync                 5
 MP_Alltoall           244                1545732.
 MP_SendRecv           837                  18832.
 MP_ISendRecv          837                  18832.
 MP_Wait              2391
 MP_ISend             1406                 108579.
 MP_IRecv             1406                 108603.
 -------------------------------------------------------------------------------


 -------------------------------------------------------------------------------
 -                                                                             -
 -                           R E F E R E N C E S                               -
 -                                                                             -
 -------------------------------------------------------------------------------
 
 CP2K version 2024.3 (Development Version), the CP2K developers group (2024).
 CP2K is freely available from https://www.cp2k.org/ .
 
 T. D. Kuehne, M. Iannuzzi, M. Del Ben, V. V. Rybkin, P. Seewald, F. Stein, T. 
 Laino, R. Z. Khaliullin, O. Schuett, F. Schiffmann, D. Golze, J. Wilhelm, S. 
 Chulkov, M. H. Bani-Hashemian, V. Weber, U. Borstnik, M. Taillefumier, A. S. 
 Jakobovits, A. Lazzaro, H. Pabst, T. Mueller, R. Schade, M. Guidon, S. 
 Andermatt, N. Holmberg, G. K. Schenter, A. Hehn, A. Bussy, F. Belleflamme, G. 
 Tabacchi, A. Gloess, M. Lass, I. Bethune, C. J. Mundy, C. Plessl, M. Watkins, 
 J. VandeVondele, M. Krack, J. Hutter.
 J. Chem. Phys. 152, 194103 (2020).
 CP2K: An electronic structure and molecular dynamics software package - 
 Quickstep: Efficient and accurate electronic structure calculations.
 https://doi.org/10.1063/5.0007045

 O. Schuett, P. Messmer, J. Hutter, J. VandeVondele.
 Electronic Structure Calculations on Graphics Processing Units, 173-190 (2016).
 GPU-Accelerated Sparse Matrix-Matrix Multiplication for Linear Scaling Density 
 Functional Theory.
 https://doi.org/10.1002/9781118670712.ch8

 A. Heinecke, G. Henry, M. Hutchinson, H. Pabst.
 Proceedings of Intl. Supercomputing Conference, 981-991 (2016).
 LIBXSMM: Accelerating Small Matrix Multiplications by Runtime Code Generation.
 https://doi.org/10.1109/SC.2016.83

 J. Hutter, M. Iannuzzi, F. Schiffmann, J. VandeVondele.
 WIREs Comput Mol Sci. 4, 15-25 (2014).
 CP2K: atomistic simulations of condensed matter systems.
 https://doi.org/10.1002/wcms.1159

 U. Borstnik, J. VandeVondele, V. Weber, J. Hutter.
 Parallel Comput. 40, 47-58 (2014).
 Sparse matrix multiplication: The distributed block-compressed sparse row 
 library.
 https://doi.org/10.1016/j.parco.2014.03.012

 A. Marek, V. Blum, R. Johanni, V. Havu, B. Lang, T. Auckenthaler, A. Heinecke, 
 H. Bungartz, H. Lederer.
 J. Phys. Condens. Matter 26, 213201 (2014).
 The ELPA library: scalable parallel eigenvalue solutions for electronic 
 structure theory and computational science.
 https://doi.org/10.1088/0953-8984/26/21/213201

 J. VandeVondele, U. Borstnik, J. Hutter.
 J. Chem. Theory Comput. 8, 3565-3573 (2012).
 Linear Scaling Self-Consistent Field Calculations with Millions of Atoms in the 
 Condensed Phase.
 https://doi.org/10.1021/ct200897x

 J. VandeVondele, J. Hutter.
 J. Chem. Phys. 127, 114105 (2007).
 Gaussian basis sets for accurate calculations on molecular systems in gas and 
 condensed phases.
 https://doi.org/10.1063/1.2770708

 J. VandeVondele, M. Krack, F. Mohamed, M. Parrinello, T. Chassaing, J. Hutter.
 Comput. Phys. Commun. 167, 103-128 (2005).
 QUICKSTEP: Fast and accurate density functional calculations using a mixed 
 Gaussian and plane waves approach.
 https://doi.org/10.1016/j.cpc.2004.12.014

 M. Krack.
 Theor. Chem. Acc. 114, 145-152 (2005).
 Pseudopotentials for H to Kr optimized for gradient-corrected 
 exchange-correlation functionals.
 https://doi.org/10.1007/s00214-005-0655-y

 M. Frigo, S. G. Johnson.
 Proc. IEEE 93, 216-231 (2005).
 The design and implementation of FFTW3.
 https://doi.org/10.1109/JPROC.2004.840301

 A. M. N. Niklasson, C. J. Tymczak, M. Challacombe.
 J. Chem. Phys. 118, 8611-8620 (2003).
 Trace resetting density matrix purification in O(N) self-consistent-field 
 theory.
 https://doi.org/10.1063/1.1559913

 C. Hartwigsen, S. Goedecker, J. Hutter.
 Phys. Rev. B 58, 3641-3662 (1998).
 Relativistic separable dual-space Gaussian pseudopotentials from H to Rn.
 https://doi.org/10.1103/PhysRevB.58.3641

 G. Lippert, J. Hutter, M. Parrinello.
 Mol. Phys. 92, 477-487 (1997).
 A hybrid Gaussian and plane wave density functional scheme.
 https://doi.org/10.1080/002689797170220

 S. Goedecker, M. Teter, J. Hutter.
 Phys. Rev. B 54, 1703-1710 (1996).
 Separable dual-space Gaussian pseudopotentials.
 https://doi.org/10.1103/PhysRevB.54.1703

 J. P. Perdew, K. Burke, M. Ernzerhof.
 Phys. Rev. Lett. 77, 3865-3868 (1996).
 Generalized gradient approximation made simple.
 https://doi.org/10.1103/PhysRevLett.77.3865


 -------------------------------------------------------------------------------
 -                                                                             -
 -                                T I M I N G                                  -
 -                                                                             -
 -------------------------------------------------------------------------------
 SUBROUTINE                       CALLS  ASD         SELF TIME        TOTAL TIME
                                MAXIMUM       AVERAGE  MAXIMUM  AVERAGE  MAXIMUM
 CP2K                                 1  1.0    0.013    0.015   20.385   20.385
 qs_energies                          1  2.0    0.000    0.000   20.223   20.223
 ls_scf                               1  3.0    0.000    0.000   19.194   19.195
 ls_scf_main                          1  4.0    0.000    0.000   16.654   16.654
 ls_scf_dm_to_ks                      8  5.0    0.000    0.000   12.409   12.412
 qs_ks_update_qs_env                  9  6.1    0.000    0.000    7.825    7.827
 rebuild_ks_matrix                    9  7.1    0.000    0.000    7.819    7.820
 qs_ks_build_kohn_sham_matrix         9  8.1    0.002    0.002    7.819    7.820
 qs_rho_update_rho_low                9  6.1    0.000    0.000    6.138    6.141
 calculate_rho_elec                   9  7.1    0.003    0.003    6.138    6.141
 sum_up_and_integrate                 9  9.1    0.000    0.000    5.922    5.923
 integrate_v_rspace                   9 10.1    0.000    0.000    5.913    5.915
 grid_collocate_task_list             9  8.1    5.450    5.573    5.450    5.573
 grid_integrate_task_list             9 11.1    5.201    5.304    5.201    5.304
 dbcsr_multiply_generic             246  6.2    0.012    0.013    4.619    4.625
 density_matrix_trs4                  8  5.0    0.004    0.006    4.240    4.242
 multiply_cannon                    246  7.2    0.018    0.026    3.756    3.808
 multiply_cannon_loop               246  8.2    0.019    0.021    3.682    3.742
 ls_scf_init_scf                      1  4.0    0.000    0.000    2.478    2.479
 multiply_cannon_multrec           1968  9.2    2.096    2.164    2.102    2.171
 mp_waitall_1                     16729 10.5    1.720    1.822    1.720    1.822
 fft_wrap_pw1pw2                    172 11.3    0.003    0.004    1.761    1.784
 fft_wrap_pw1pw2_200                100 12.8    0.102    0.108    1.687    1.731
 qs_vxc_create                        9  9.1    0.000    0.000    1.551    1.578
 xc_vxc_pw_create                     9 10.1    0.013    0.019    1.551    1.578
 ls_scf_initial_guess                 1  5.0    0.000    0.000    1.558    1.560
 ls_scf_qs_atomic_guess               1  6.0    0.000    0.000    1.558    1.560
 multiply_cannon_metrocomm3        1968  9.2    0.005    0.006    1.344    1.432
 fft3d_ps                           172 13.3    0.717    0.795    1.324    1.365
 xc_pw_derive                        54 12.1    0.001    0.001    1.102    1.186
 qs_energies_init_hamiltonians        1  3.0    0.000    0.000    1.028    1.028
 ls_scf_init_matrix_S                 1  5.0    0.000    0.000    0.920    0.921
 matrix_sqrt_Newton_Schulz            1  6.0    0.001    0.001    0.897    0.897
 build_core_hamiltonian_matrix        1  4.0    0.000    0.000    0.703    0.838
 xc_rho_set_and_dset_create           9 11.1    0.019    0.024    0.781    0.798
 xc_pw_divergence                     9 11.1    0.000    0.000    0.737    0.777
 density_rs2pw                        9  8.1    0.000    0.000    0.654    0.717
 make_m2s                           492  7.2    0.005    0.007    0.678    0.690
 make_images                        492  8.2    0.039    0.040    0.668    0.681
 mp_alltoall_z22v                   172 15.3    0.433    0.637    0.433    0.637
 mp_waitany                        1406 12.5    0.500    0.600    0.500    0.600
 potential_pw2rs                      9 11.1    0.000    0.001    0.596    0.598
 build_core_ppl                       1  5.0    0.476    0.542    0.476    0.542
 transfer_rs2pw                      46  9.0    0.001    0.001    0.427    0.517
 arnoldi_extremal                     9  6.1    0.000    0.000    0.428    0.429
 arnoldi_normal_ev                    9  7.1    0.000    0.001    0.427    0.428
 yz_to_x                             64 14.2    0.059    0.078    0.283    0.417
 transfer_rs2pw_200                  10  9.8    0.026    0.034    0.323    0.414
 make_images_data                   492  9.2    0.006    0.008    0.371    0.414
 -------------------------------------------------------------------------------

 The number of warnings for this run is : 1
 
 -------------------------------------------------------------------------------
  **** **** ******  **  PROGRAM ENDED AT                 2024-09-23 17:36:17.941
 ***** ** ***  *** **   PROGRAM RAN ON                                    moritz
 **    ****   ******    PROGRAM RAN BY                                       ole
 ***** **    ** ** **   PROGRAM PROCESS ID                                156535
  **** **  *******  **  PROGRAM STOPPED IN /home/ole/git/pao_ml_equivar/64H2O_MD
                                           /Frame1900
