 DBCSR| CPU Multiplication driver                                           XSMM
 DBCSR| Multrec recursion limit                                              512
 DBCSR| Multiplication stack size                                           1000
 DBCSR| Maximum elements for images                                    UNLIMITED
 DBCSR| Multiplicative factor virtual images                                   1
 DBCSR| Use multiplication densification                                       T
 DBCSR| Multiplication size stacks                                             3


  **** **** ******  **  PROGRAM STARTED AT               2019-02-14 11:07:55.558
 ***** ** ***  *** **   PROGRAM STARTED ON                                  otto
 **    ****   ******    PROGRAM STARTED BY                                   ole
 ***** **    ** ** **   PROGRAM PROCESS ID                                  7744
  **** **  *******  **  PROGRAM STARTED IN /home/ole/git/pao_ml_equivar/2H2O_MD/
                                           frame_1475

 CP2K| version string:                    CP2K version 7.0 (Development Version)
 CP2K| source code revision number:                                git:8bf305913
 CP2K| cp2kflags: libint fftw3 libxc xsmm libderiv_max_am1=5 libint_max_am=6    
 CP2K| is freely available from                            https://www.cp2k.org/
 CP2K| Program compiled at                           So Jan 13 00:02:37 CET 2019
 CP2K| Program compiled on                                                  otto
 CP2K| Program compiled for                                                local
 CP2K| Data directory path                               /home/ole/git/cp2k/data
 CP2K| Input file name                                            2H2O_pao44.inp

 GLOBAL| Force Environment number                                              1
 GLOBAL| Basis set file name                                        BASIS_MOLOPT
 GLOBAL| Potential file name                                      GTH_POTENTIALS
 GLOBAL| MM Potential file name                                     MM_POTENTIAL
 GLOBAL| Coordinate file name                                         coords.xyz
 GLOBAL| Method name                                                        CP2K
 GLOBAL| Project name                                                 2H2O_pao44
 GLOBAL| Preferred FFT library                                             FFTW3
 GLOBAL| Preferred diagonalization lib.                                       SL
 GLOBAL| Run type                                                         ENERGY
 GLOBAL| All-to-all communication in single precision                          F
 GLOBAL| FFTs using library dependent lengths                                  F
 GLOBAL| Global print level                                                  LOW
 GLOBAL| MPI I/O enabled                                                       T
 GLOBAL| Total number of message passing processes                             1
 GLOBAL| Number of threads for this process                                    1
 GLOBAL| This output is from process                                           0
 GLOBAL| CPU model name :  Intel(R) Core(TM) i5-3320M CPU @ 2.60GHz

 MEMORY| system memory details [Kb]
 MEMORY|                        rank 0           min           max       average
 MEMORY| MemTotal              7860772       7860772       7860772       7860772
 MEMORY| MemFree                632596        632596        632596        632596
 MEMORY| Buffers               1047724       1047724       1047724       1047724
 MEMORY| Cached                2070240       2070240       2070240       2070240
 MEMORY| Slab                   280240        280240        280240        280240
 MEMORY| SReclaimable           155756        155756        155756        155756
 MEMORY| MemLikelyFree         3906316       3906316       3906316       3906316


 GENERATE|  Preliminary Number of Bonds generated:                             0
 GENERATE|  Achieved consistency in connectivity generation.

 *******************************************************************************
 *******************************************************************************
 **                                                                           **
 **     #####                         ##              ##                      **
 **    ##   ##            ##          ##              ##                      **
 **   ##     ##                       ##            ######                    **
 **   ##     ##  ##   ##  ##   #####  ##  ##   ####   ##    #####    #####    **
 **   ##     ##  ##   ##  ##  ##      ## ##   ##      ##   ##   ##  ##   ##   **
 **   ##  ## ##  ##   ##  ##  ##      ####     ###    ##   ######   ######    **
 **    ##  ###   ##   ##  ##  ##      ## ##      ##   ##   ##       ##        **
 **     #######   #####   ##   #####  ##  ##  ####    ##    #####   ##        **
 **           ##                                                    ##        **
 **                                                                           **
 **                                                ... make the atoms dance   **
 **                                                                           **
 **            Copyright (C) by CP2K developers group (2000 - 2018)           **
 **                                                                           **
 *******************************************************************************


 TOTAL NUMBERS AND MAXIMUM NUMBERS

  Total number of            - Atomic kinds:                                   2
                             - Atoms:                                          6
                             - Shell sets:                                     6
                             - Shells:                                        22
                             - Primitive Cartesian functions:                 42
                             - Cartesian basis functions:                     48
                             - Spherical basis functions:                     46

  Maximum angular momentum of- Orbital basis functions:                        2
                             - Local part of the GTH pseudopotential:          2
                             - Non-local part of the GTH pseudopotential:      0

 ------------------------------ Linear scaling SCF -----------------------------
 eps_scf:                                       0.100E-07
 eps_filter:                                    0.100E-07
 mixing_fraction:                               0.450E+00
 max_scf:                                              25
 fixed chemical potential (mu)                          F
 has unit metric:                                       F
 Computing inv(S):                                      T
 Computing sqrt(S):                                     T
 Computing s preconditioner                             F
 sign sqrt order:                                       3
 Extrapolation order:                                   1
 Use single precision matrices                          F
 S preconditioner type                               NONE
 Polarized Atomic Orbitals (PAO)                        T
 Purification method                      Trace resetting 4th order
 Cluster type                                      ATOMIC
 Computing Chebyshev                                FALSE
 Using PAO                                              T
 -------------------------------------------------------------------------------

 
 PAO|                                  EPS_PAO                           0.5E-06
 PAO|                                  MIXING                            0.5E+00
 PAO|                                  MAX_PAO                              1000
 PAO|                                  MAX_CYCLES                           1000
 PAO|                                  PARAMETERIZATION                   DIRECT
 PAO|                                  PRECONDITION                            F
 PAO|                                  REGULARIZATION                    0.0E+00
 PAO|                                  EPS_PGF                           0.1E-09
 PAO|                                  PENALTY_DISTANCE                  0.1E+00
 PAO|                                  PENALTY_STRENGTH                  0.5E-02
 PAO|                                  LINPOT_PRECONDITION_DELTA         0.0E+00
 PAO|                                  LINPOT_INITGUESS_DELT             0.0E+00
 PAO|                                  LINPOT_REGULARIZATION_DELTA       0.0E+00
 PAO|                                  LINPOT_REGULARIZATION_STRENGTH    0.0E+00
 PAO|                                  OPTIMIZER                              CG
 PAO|                                  CG_INIT_STEPS                           2
 PAO|                                  CG_RESET_LIMIT                    0.1E+00
 PAO|                                  CHECK_UNITARY_TOL                -0.1E+01
 PAO|                                  CHECK_GRADIENT_TOL               -0.1E+01
 PAO|                                  NUM_GRADIENT_ORDER                      2
 PAO|                                  NUM_GRADIENT_EPS                  0.1E-07
 PAO|                                  PRINT%RESTART%WRITE_CYCLES            100
 PAO|                                  RESTART_FILE 
 PAO|                                  PREOPT_DM_FILE 2H2O_ref_LS_DM_SPIN_1_RESTART.dm
 PAO|                                  MACHINE_LEARNING%METHOD        GAUSSIAN_P
 PAO|                                  MACHINE_LEARNING%PRIOR               ZERO
 PAO|                                  MACHINE_LEARNING%DESCRIPTOR     POTENTIAL
 PAO|                                  MACHINE_LEARNING%TOLERANCE        0.1E-01
 PAO|                                  MACHINE_LEARNING%GP_NOISE_VAR     0.1E+00
 PAO|                                  MACHINE_LEARNING%GP_SCALE         0.5E-01
 

 Calculating atomic Fock matrix for atomic kind: O

 Electronic structure
    Total number of core electrons                                          2.00
    Total number of valence electrons                                       6.00
    Total number of electrons                                               8.00
    Multiplicity                                                   not specified
    S   [  2.00] 2.00
    P      4.00


 *******************************************************************************
                  Iteration          Convergence                     Energy [au]
 *******************************************************************************
                          1        0.708315                     -15.576645311500
                          2        0.608879                     -15.587933561584
                          3        0.102828E-01                 -15.656849565404
                          4        0.113889E-02                 -15.656866888140
                          5        0.434197E-03                 -15.656867072159
                          6        0.263771E-03                 -15.656867091904
                          7        0.478536E-06                 -15.656867103452

 Energy components [Hartree]           Total Energy ::          -15.656867103452
                                        Band Energy ::           -3.000198112285
                                     Kinetic Energy ::           11.759971203220
                                   Potential Energy ::          -27.416838306672
                                      Virial (-V/T) ::            2.331369510426
                                        Core Energy ::          -26.140716385623
                                          XC Energy ::           -3.154051012914
                                     Coulomb Energy ::           13.637900295084
                       Total Pseudopotential Energy ::          -37.935781716540
                       Local Pseudopotential Energy ::          -39.218907440693
                    Nonlocal Pseudopotential Energy ::            1.283125724153
                                        Confinement ::            0.350941276976

 Orbital energies  State     L     Occupation   Energy[a.u.]          Energy[eV]

                       1     0          2.000      -0.864471          -23.523463

                       1     1          4.000      -0.317814           -8.648154


 Total Electron Density at R=0:                                         0.000068

 Calculating atomic Fock matrix for atomic kind: H

 Electronic structure
    Total number of core electrons                                          0.00
    Total number of valence electrons                                       1.00
    Total number of electrons                                               1.00
    Multiplicity                                                   not specified
    S      1.00


 *******************************************************************************
                  Iteration          Convergence                     Energy [au]
 *******************************************************************************
                          1        0.437545E-02                  -0.424159432110
                          2        0.531356E-03                  -0.424178438213
                          3        0.259176E-06                  -0.424178722480

 Energy components [Hartree]           Total Energy ::           -0.424178722480
                                        Band Energy ::           -0.199015229016
                                     Kinetic Energy ::            0.464007633961
                                   Potential Energy ::           -0.888186356441
                                      Virial (-V/T) ::            1.914163240935
                                        Core Energy ::           -0.479160803564
                                          XC Energy ::           -0.244352904054
                                     Coulomb Energy ::            0.299334985138
                       Total Pseudopotential Energy ::           -0.962295316385
                       Local Pseudopotential Energy ::           -0.962295316385
                    Nonlocal Pseudopotential Energy ::            0.000000000000
                                        Confinement ::            0.191268788606

 Orbital energies  State     L     Occupation   Energy[a.u.]          Energy[eV]

                       1     0          1.000      -0.199015           -5.415480


 Total Electron Density at R=0:                                         0.242907
 PAO| Made initial guess for matrix_X with norm:   4.8989794855663558     

     Lanczos converged:  T threshold:   0.100E-02
     Est. extremal eigenvalues:    0.323E+01   0.118E+00
     Est. condition number :    0.273E+02
     NS sqrt iter    1 1.00000000   0.788E+00       0.001       46.971
     NS sqrt iter    2 1.00000000   0.418E+00       0.001       84.189
     NS sqrt iter    3 1.00000000   0.156E+00       0.001       84.841
     NS sqrt iter    4 1.00000000   0.166E-01       0.001       84.525
     NS sqrt iter    5 1.00000000   0.294E-04       0.001       66.586
     Final NS sqrt iter    5 1.00000000   0.140E-08

 PAO| Read restart DM 2H2O_ref_LS_DM_SPIN_1_RESTART.dm with checksum:    67.252459335650641     
 PAO| Quickstep energy from restart density:  -34.444511316230319     
 PAO| ======================= Iteration:         1 =============================

     Lanczos converged:  T threshold:   0.100E-02
     Est. extremal eigenvalues:    0.323E+01   0.118E+00
     Est. condition number :    0.273E+02
     NS sqrt iter    1 1.00000000   0.788E+00       0.001       64.512
     NS sqrt iter    2 1.00000000   0.418E+00       0.001      110.592
     NS sqrt iter    3 1.00000000   0.156E+00       0.001      110.592
     NS sqrt iter    4 1.00000000   0.166E-01       0.001      110.592
     NS sqrt iter    5 1.00000000   0.294E-04       0.001       83.840
     Final NS sqrt iter    5 1.00000000   0.140E-08

     Est. extremal eigenvalues     -0.90897     1.68747  converged:  T
     TRS4 it   1 1.00000000   0.850E+00       0.000       16.128   0.100E-07
     TRS4 it   2 1.00000000   0.650E+00       0.001       32.256   0.100E-07
     TRS4 it   3 1.00000000   0.478E+00       0.001       32.256   0.100E-07
     TRS4 it   4 1.00000000   0.299E+00       0.001       32.256   0.100E-07
     TRS4 it   5 1.00000000   0.144E+00       0.001       32.256   0.100E-07
     TRS4 it   6 1.00000000   0.403E-01       0.001       32.256   0.100E-07
     TRS4 it   7 1.00000000   0.410E-02       0.001       32.256   0.100E-07
     TRS4 it   8 1.00000000   0.550E-04       0.001       32.256   0.100E-07
     TRS4 it   9 1.00000000   0.122E-07       0.001       32.256   0.100E-07
     Final TRS4 iteration    9 1.00000000   0.122E-07
     Chemical potential (mu):      -0.06660
 
 PAO| energy:  -7.5616217844359177      penalty:   5.9164567891575897E-033
 PAO|CG| warming up with steepest descent
 PAO|CG| beta:    0.0000000000000000     
 PAO| norm of gradient:  0.78621492563845963     
 PAO|LS| adapt:  T F F
 PAO|LS| adapt: scan_steps:    0.0000000000000000        0.0000000000000000        0.0000000000000000     
 PAO|LS| adapt: energies:   -7.5616217844359177        0.0000000000000000        0.0000000000000000     
 PAO| ======================= Iteration:         2 =============================

     Lanczos converged:  T threshold:   0.100E-02
     Est. extremal eigenvalues:    0.316E+01   0.135E+00
     Est. condition number :    0.235E+02
     NS sqrt iter    1 1.00000000   0.776E+00       0.001       64.512
     NS sqrt iter    2 1.00000000   0.404E+00       0.001      110.592
     NS sqrt iter    3 1.00000000   0.139E+00       0.001      110.592
     NS sqrt iter    4 1.00000000   0.110E-01       0.001      110.592
     NS sqrt iter    5 1.00000000   0.790E-05       0.001       82.816
     Final NS sqrt iter    5 1.00000000   0.170E-09

     Est. extremal eigenvalues     -0.91272     1.63566  converged:  T
     TRS4 it   1 1.00000000   0.843E+00       0.000       16.128   0.100E-07
     TRS4 it   2 1.00000000   0.630E+00       0.001       32.256   0.100E-07
     TRS4 it   3 1.00000000   0.457E+00       0.001       32.256   0.100E-07
     TRS4 it   4 1.00000000   0.273E+00       0.001       32.256   0.100E-07
     TRS4 it   5 1.00000000   0.121E+00       0.001       32.256   0.100E-07
     TRS4 it   6 1.00000000   0.288E-01       0.001       32.256   0.100E-07
     TRS4 it   7 1.00000000   0.212E-02       0.001       32.256   0.100E-07
     TRS4 it   8 1.00000000   0.148E-04       0.001       32.256   0.100E-07
     TRS4 it   9 1.00000000   0.898E-09       0.001       32.256   0.100E-07
     Final TRS4 iteration    9 1.00000000   0.898E-09
     Chemical potential (mu):      -0.05476
 
 PAO| energy:  -7.6172695973372564      penalty:   2.2819429539022778E-008
 PAO|LS| adapt:  T T F
 PAO|LS| adapt: scan_steps:    0.0000000000000000       0.10000000000000001        0.0000000000000000     
 PAO|LS| adapt: energies:   -7.5616217844359177       -7.6172695973372564        0.0000000000000000     
 PAO| ======================= Iteration:         3 =============================

     Lanczos converged:  T threshold:   0.100E-02
     Est. extremal eigenvalues:    0.308E+01   0.150E+00
     Est. condition number :    0.206E+02
     NS sqrt iter    1 1.00000000   0.762E+00       0.001       64.512
     NS sqrt iter    2 1.00000000   0.389E+00       0.001      110.592
     NS sqrt iter    3 1.00000000   0.123E+00       0.001      110.592
     NS sqrt iter    4 1.00000000   0.733E-02       0.001      110.592
     NS sqrt iter    5 1.00000000   0.213E-05       0.001       82.816
     Final NS sqrt iter    5 1.00000000   0.653E-10

     Est. extremal eigenvalues     -0.91619     1.59835  converged:  T
     TRS4 it   1 1.00000000   0.839E+00       0.000       16.128   0.100E-07
     TRS4 it   2 1.00000000   0.614E+00       0.001       32.256   0.100E-07
     TRS4 it   3 1.00000000   0.437E+00       0.001       32.256   0.100E-07
     TRS4 it   4 1.00000000   0.250E+00       0.001       32.256   0.100E-07
     TRS4 it   5 1.00000000   0.101E+00       0.001       32.256   0.100E-07
     TRS4 it   6 1.00000000   0.200E-01       0.001       32.256   0.100E-07
     TRS4 it   7 1.00000000   0.101E-02       0.001       32.256   0.100E-07
     TRS4 it   8 1.00000000   0.340E-05       0.001       32.256   0.100E-07
     TRS4 it   9 1.00000000   0.479E-10       0.001       32.256   0.100E-07
     Final TRS4 iteration    9 1.00000000   0.479E-10
     Chemical potential (mu):      -0.04197
 
 PAO| energy:  -7.6599858776257701      penalty:   3.6511059944720922E-007
 PAO|LS| adapt:  T T F
 PAO|LS| adapt: scan_steps:    0.0000000000000000       0.20000000000000001        0.0000000000000000     
 PAO|LS| adapt: energies:   -7.5616217844359177       -7.6599858776257701        0.0000000000000000     
 PAO| ======================= Iteration:         4 =============================

     Lanczos converged:  T threshold:   0.100E-02
     Est. extremal eigenvalues:    0.291E+01   0.170E+00
     Est. condition number :    0.171E+02
     NS sqrt iter    1 1.00000000   0.731E+00       0.001       64.512
     NS sqrt iter    2 1.00000000   0.357E+00       0.001      110.592
     NS sqrt iter    3 1.00000000   0.951E-01       0.001      110.592
     NS sqrt iter    4 1.00000000   0.338E-02       0.001      110.592
     NS sqrt iter    5 1.00000000   0.239E-06       0.001       78.080
     Final NS sqrt iter    5 1.00000000   0.639E-09

     Est. extremal eigenvalues     -0.92146     1.55352  converged:  T
     TRS4 it   1 1.00000000   0.836E+00       0.000       16.128   0.100E-07
     TRS4 it   2 1.00000000   0.590E+00       0.001       32.256   0.100E-07
     TRS4 it   3 1.00000000   0.402E+00       0.001       32.256   0.100E-07
     TRS4 it   4 1.00000000   0.209E+00       0.001       32.256   0.100E-07
     TRS4 it   5 1.00000000   0.692E-01       0.001       32.256   0.100E-07
     TRS4 it   6 1.00000000   0.905E-02       0.001       32.256   0.100E-07
     TRS4 it   7 1.00000000   0.198E-03       0.001       32.256   0.100E-07
     TRS4 it   8 1.00000000   0.130E-06       0.001       32.256   0.100E-07
     TRS4 it   9 1.00000000   0.716E-13       0.001       32.256   0.100E-07
     Final TRS4 iteration    9 1.00000000   0.716E-13
     Chemical potential (mu):      -0.01497
 
 PAO| energy:  -7.7053028155168182      penalty:   5.8417674060605360E-006
 PAO|LS| Need extra step
 PAO|LS| adapt:  T T F
 PAO|LS| adapt: scan_steps:    0.0000000000000000       0.40000000000000002        0.0000000000000000     
 PAO|LS| adapt: energies:   -7.5616217844359177       -7.7053028155168182        0.0000000000000000     
 PAO| ======================= Iteration:         5 =============================

     Lanczos converged:  T threshold:   0.100E-02
     Est. extremal eigenvalues:    0.258E+01   0.196E+00
     Est. condition number :    0.132E+02
     NS sqrt iter    1 1.00000000   0.671E+00       0.001       64.512
     NS sqrt iter    2 1.00000000   0.296E+00       0.001      110.592
     NS sqrt iter    3 1.00000000   0.574E-01       0.001      110.592
     NS sqrt iter    4 1.00000000   0.882E-03       0.001      110.592
     NS sqrt iter    5 1.00000000   0.494E-08       0.001       37.888
     Final NS sqrt iter    5 1.00000000   0.969E-09

     Est. extremal eigenvalues     -0.92218     1.51929  converged:  T
     TRS4 it   1 1.00000000   0.840E+00       0.000       16.128   0.100E-07
     TRS4 it   2 1.00000000   0.561E+00       0.001       32.256   0.100E-07
     TRS4 it   3 1.00000000   0.352E+00       0.001       32.256   0.100E-07
     TRS4 it   4 1.00000000   0.152E+00       0.001       32.256   0.100E-07
     TRS4 it   5 1.00000000   0.344E-01       0.001       32.256   0.100E-07
     TRS4 it   6 1.00000000   0.206E-02       0.001       32.256   0.100E-07
     TRS4 it   7 1.00000000   0.932E-05       0.001       32.256   0.100E-07
     TRS4 it   8 1.00000000   0.271E-09       0.001       32.256   0.100E-07
     Final TRS4 iteration    8 1.00000000   0.271E-09
     Chemical potential (mu):       0.02847
 
 PAO| energy:  -7.6431881971943341      penalty:   9.3468261017499641E-005
 PAO|LS| Need extra step
 PAO|LS| adapt:  T T T
 PAO|LS| adapt: scan_steps:    0.0000000000000000       0.40000000000000002       0.80000000000000004     
 PAO|LS| adapt: energies:   -7.5616217844359177       -7.7053028155168182       -7.6431881971943341     
 PAO|LS| adapt: suggested step_size:   0.47926932663045402     
 PAO|LS| adapt: predicted energy  -7.7093438871512054     
 PAO| ======================= Iteration:         6 =============================

     Lanczos converged:  T threshold:   0.100E-02
     Est. extremal eigenvalues:    0.284E+01   0.176E+00
     Est. condition number :    0.162E+02
     NS sqrt iter    1 1.00000000   0.718E+00       0.001       64.512
     NS sqrt iter    2 1.00000000   0.344E+00       0.001      110.592
     NS sqrt iter    3 1.00000000   0.858E-01       0.001      110.592
     NS sqrt iter    4 1.00000000   0.255E-02       0.001      110.592
     NS sqrt iter    5 1.00000000   0.115E-06       0.001       72.064
     Final NS sqrt iter    5 1.00000000   0.335E-09

     Est. extremal eigenvalues     -0.92273     1.54281  converged:  T
     TRS4 it   1 1.00000000   0.836E+00       0.000       16.128   0.100E-07
     TRS4 it   2 1.00000000   0.582E+00       0.001       32.256   0.100E-07
     TRS4 it   3 1.00000000   0.390E+00       0.001       32.256   0.100E-07
     TRS4 it   4 1.00000000   0.195E+00       0.001       32.256   0.100E-07
     TRS4 it   5 1.00000000   0.596E-01       0.001       32.256   0.100E-07
     TRS4 it   6 1.00000000   0.658E-02       0.001       32.256   0.100E-07
     TRS4 it   7 1.00000000   0.101E-03       0.001       32.256   0.100E-07
     TRS4 it   8 1.00000000   0.338E-07       0.001       32.256   0.100E-07
     Final TRS4 iteration    8 1.00000000   0.338E-07
     Chemical potential (mu):      -0.00443
 
 PAO| energy:  -7.7086207551951604      penalty:   1.2039898029464920E-005
 PAO|CG| warming up with steepest descent
 PAO|CG| beta:    0.0000000000000000     
 PAO| norm of gradient:  0.41421923212984058     
 PAO| energy improvement: -0.14699897075924273     
 PAO| step      6                   -7.708620755  0.259E-01  0.479E+00     0.076
 PAO|LS| adapt:  T F F
 PAO|LS| adapt: scan_steps:    0.0000000000000000        0.0000000000000000        0.0000000000000000     
 PAO|LS| adapt: energies:   -7.7086207551951604        0.0000000000000000        0.0000000000000000     
 PAO| ======================= Iteration:         7 =============================

     Lanczos converged:  T threshold:   0.100E-02
     Est. extremal eigenvalues:    0.276E+01   0.193E+00
     Est. condition number :    0.143E+02
     NS sqrt iter    1 1.00000000   0.701E+00       0.001       64.512
     NS sqrt iter    2 1.00000000   0.323E+00       0.001      110.592
     NS sqrt iter    3 1.00000000   0.708E-01       0.001      110.592
     NS sqrt iter    4 1.00000000   0.145E-02       0.001      110.592
     NS sqrt iter    5 1.00000000   0.219E-07       0.001       51.328
     Final NS sqrt iter    5 1.00000000   0.412E-08

     Est. extremal eigenvalues     -0.92459     1.53050  converged:  T
     TRS4 it   1 1.00000000   0.835E+00       0.000       16.128   0.100E-07
     TRS4 it   2 1.00000000   0.580E+00       0.001       32.256   0.100E-07
     TRS4 it   3 1.00000000   0.389E+00       0.001       32.256   0.100E-07
     TRS4 it   4 1.00000000   0.194E+00       0.001       32.256   0.100E-07
     TRS4 it   5 1.00000000   0.593E-01       0.001       32.256   0.100E-07
     TRS4 it   6 1.00000000   0.639E-02       0.001       32.256   0.100E-07
     TRS4 it   7 1.00000000   0.909E-04       0.001       32.256   0.100E-07
     TRS4 it   8 1.00000000   0.246E-07       0.001       32.256   0.100E-07
     Final TRS4 iteration    8 1.00000000   0.246E-07
     Chemical potential (mu):      -0.00331
 
 PAO| energy:  -7.7061348876189619      penalty:   1.8009993089305953E-005
 PAO|LS| adapt:  T F T
 PAO|LS| adapt: scan_steps:    0.0000000000000000        0.0000000000000000       0.47926932663045402     
 PAO|LS| adapt: energies:   -7.7086207551951604        0.0000000000000000       -7.7061348876189619     
 PAO| ======================= Iteration:         8 =============================

     Lanczos converged:  T threshold:   0.100E-02
     Est. extremal eigenvalues:    0.280E+01   0.184E+00
     Est. condition number :    0.152E+02
     NS sqrt iter    1 1.00000000   0.710E+00       0.001       64.512
     NS sqrt iter    2 1.00000000   0.334E+00       0.001      110.592
     NS sqrt iter    3 1.00000000   0.781E-01       0.001      110.592
     NS sqrt iter    4 1.00000000   0.193E-02       0.001      110.592
     NS sqrt iter    5 1.00000000   0.520E-07       0.001       63.616
     Final NS sqrt iter    5 1.00000000   0.612E-09

     Est. extremal eigenvalues     -0.92455     1.53595  converged:  T
     TRS4 it   1 1.00000000   0.835E+00       0.000       16.128   0.100E-07
     TRS4 it   2 1.00000000   0.581E+00       0.001       32.256   0.100E-07
     TRS4 it   3 1.00000000   0.389E+00       0.001       32.256   0.100E-07
     TRS4 it   4 1.00000000   0.194E+00       0.001       32.256   0.100E-07
     TRS4 it   5 1.00000000   0.594E-01       0.001       32.256   0.100E-07
     TRS4 it   6 1.00000000   0.657E-02       0.001       32.256   0.100E-07
     TRS4 it   7 1.00000000   0.994E-04       0.001       32.256   0.100E-07
     TRS4 it   8 1.00000000   0.309E-07       0.001       32.256   0.100E-07
     Final TRS4 iteration    8 1.00000000   0.309E-07
     Chemical potential (mu):      -0.00425
 
 PAO| energy:  -7.7283288458583224      penalty:   1.3038511805750129E-005
 PAO|LS| adapt:  T T T
 PAO|LS| adapt: scan_steps:    0.0000000000000000       0.23963466331522701       0.47926932663045402     
 PAO|LS| adapt: energies:   -7.7086207551951604       -7.7283288458583224       -7.7061348876189619     
 PAO|LS| adapt: suggested step_size:   0.23252641854831410     
 PAO|LS| adapt: predicted energy  -7.7283472803316009     
 PAO| ======================= Iteration:         9 =============================

     Lanczos converged:  T threshold:   0.100E-02
     Est. extremal eigenvalues:    0.280E+01   0.184E+00
     Est. condition number :    0.152E+02
     NS sqrt iter    1 1.00000000   0.710E+00       0.001       64.311
     NS sqrt iter    2 1.00000000   0.334E+00       0.001      110.592
     NS sqrt iter    3 1.00000000   0.784E-01       0.001      110.592
     NS sqrt iter    4 1.00000000   0.195E-02       0.001      110.592
     NS sqrt iter    5 1.00000000   0.533E-07       0.001       63.744
     Final NS sqrt iter    5 1.00000000   0.636E-09

     Est. extremal eigenvalues     -0.92453     1.53614  converged:  T
     TRS4 it   1 1.00000000   0.835E+00       0.000       16.128   0.100E-07
     TRS4 it   2 1.00000000   0.581E+00       0.001       32.256   0.100E-07
     TRS4 it   3 1.00000000   0.389E+00       0.001       32.256   0.100E-07
     TRS4 it   4 1.00000000   0.194E+00       0.001       32.256   0.100E-07
     TRS4 it   5 1.00000000   0.594E-01       0.001       32.256   0.100E-07
     TRS4 it   6 1.00000000   0.657E-02       0.001       32.256   0.100E-07
     TRS4 it   7 1.00000000   0.995E-04       0.001       32.256   0.100E-07
     TRS4 it   8 1.00000000   0.310E-07       0.001       32.256   0.100E-07
     Final TRS4 iteration    8 1.00000000   0.310E-07
     Chemical potential (mu):      -0.00427
 
 PAO| energy:  -7.7283574852850219      penalty:   1.2966576015423948E-005
 PAO|CG| trace_G_new    4.0385800255890066E-002
 PAO|CG| trace_G_prev   0.17157757226623480     
 PAO|CG| trace_G_mix   -1.4189889361125173E-003
 PAO|CG| trace_D   0.17157757226623480     
 PAO|CG| trace_D_Gnew   1.4189889361125173E-003
 PAO|CG| beta:   0.24364949707491262     
 PAO| norm of gradient:  0.20096218613433242     
 PAO| energy improvement:  -1.9736730089861432E-002
 PAO| step      9                   -7.728357485  0.126E-01  0.233E+00     0.046
 PAO|LS| adapt:  T F F
 PAO|LS| adapt: scan_steps:    0.0000000000000000        0.0000000000000000        0.0000000000000000     
 PAO|LS| adapt: energies:   -7.7283574852850219        0.0000000000000000        0.0000000000000000     
 PAO| ======================= Iteration:        10 =============================

     Lanczos converged:  T threshold:   0.100E-02
     Est. extremal eigenvalues:    0.276E+01   0.190E+00
     Est. condition number :    0.145E+02
     NS sqrt iter    1 1.00000000   0.702E+00       0.001       64.512
     NS sqrt iter    2 1.00000000   0.325E+00       0.001      110.592
     NS sqrt iter    3 1.00000000   0.727E-01       0.001      110.592
     NS sqrt iter    4 1.00000000   0.157E-02       0.001      110.592
     NS sqrt iter    5 1.00000000   0.280E-07       0.001       54.784
     Final NS sqrt iter    5 1.00000000   0.392E-08

     Est. extremal eigenvalues     -0.92556     1.53774  converged:  T
     TRS4 it   1 1.00000000   0.836E+00       0.000       16.128   0.100E-07
     TRS4 it   2 1.00000000   0.581E+00       0.001       32.256   0.100E-07
     TRS4 it   3 1.00000000   0.388E+00       0.001       32.256   0.100E-07
     TRS4 it   4 1.00000000   0.192E+00       0.001       32.256   0.100E-07
     TRS4 it   5 1.00000000   0.580E-01       0.001       32.256   0.100E-07
     TRS4 it   6 1.00000000   0.620E-02       0.001       32.256   0.100E-07
     TRS4 it   7 1.00000000   0.869E-04       0.001       32.256   0.100E-07
     TRS4 it   8 1.00000000   0.230E-07       0.001       32.256   0.100E-07
     Final TRS4 iteration    8 1.00000000   0.230E-07
     Chemical potential (mu):      -0.00139
 
 PAO| energy:  -7.7337969690819195      penalty:   1.3606001745295870E-005
 PAO|LS| adapt:  T T F
 PAO|LS| adapt: scan_steps:    0.0000000000000000       0.23252641854831410        0.0000000000000000     
 PAO|LS| adapt: energies:   -7.7283574852850219       -7.7337969690819195        0.0000000000000000     
 PAO| ======================= Iteration:        11 =============================

     Lanczos converged:  T threshold:   0.100E-02
     Est. extremal eigenvalues:    0.272E+01   0.196E+00
     Est. condition number :    0.139E+02
     NS sqrt iter    1 1.00000000   0.693E+00       0.001       64.512
     NS sqrt iter    2 1.00000000   0.316E+00       0.001      110.592
     NS sqrt iter    3 1.00000000   0.673E-01       0.001      110.592
     NS sqrt iter    4 1.00000000   0.125E-02       0.001      110.592
     NS sqrt iter    5 1.00000000   0.133E-07       0.001       43.008
     Final NS sqrt iter    5 1.00000000   0.571E-08

     Est. extremal eigenvalues     -0.92525     1.54130  converged:  T
     TRS4 it   1 1.00000000   0.837E+00       0.000       16.128   0.100E-07
     TRS4 it   2 1.00000000   0.581E+00       0.001       32.256   0.100E-07
     TRS4 it   3 1.00000000   0.388E+00       0.001       32.256   0.100E-07
     TRS4 it   4 1.00000000   0.191E+00       0.001       32.256   0.100E-07
     TRS4 it   5 1.00000000   0.567E-01       0.001       32.256   0.100E-07
     TRS4 it   6 1.00000000   0.589E-02       0.001       32.256   0.100E-07
     TRS4 it   7 1.00000000   0.766E-04       0.001       32.256   0.100E-07
     TRS4 it   8 1.00000000   0.172E-07       0.001       32.256   0.100E-07
     Final TRS4 iteration    8 1.00000000   0.172E-07
     Chemical potential (mu):       0.00155
 
 PAO| energy:  -7.7317994816718576      penalty:   1.5017946833996182E-005
 PAO|LS| adapt:  T T T
 PAO|LS| adapt: scan_steps:    0.0000000000000000       0.23252641854831410       0.46505283709662820     
 PAO|LS| adapt: energies:   -7.7283574852850219       -7.7337969690819195       -7.7317994816718576     
 PAO|LS| adapt: suggested step_size:   0.28633562865646789     
 PAO|LS| adapt: predicted energy  -7.7339960981829545     
 PAO| ======================= Iteration:        12 =============================

     Lanczos converged:  T threshold:   0.100E-02
     Est. extremal eigenvalues:    0.275E+01   0.191E+00
     Est. condition number :    0.144E+02
     NS sqrt iter    1 1.00000000   0.700E+00       0.001       64.512
     NS sqrt iter    2 1.00000000   0.323E+00       0.001      110.592
     NS sqrt iter    3 1.00000000   0.714E-01       0.001      110.592
     NS sqrt iter    4 1.00000000   0.149E-02       0.001      110.592
     NS sqrt iter    5 1.00000000   0.238E-07       0.001       51.456
     Final NS sqrt iter    5 1.00000000   0.424E-08

     Est. extremal eigenvalues     -0.92560     1.53840  converged:  T
     TRS4 it   1 1.00000000   0.836E+00       0.000       16.128   0.100E-07
     TRS4 it   2 1.00000000   0.581E+00       0.001       32.256   0.100E-07
     TRS4 it   3 1.00000000   0.388E+00       0.001       32.256   0.100E-07
     TRS4 it   4 1.00000000   0.192E+00       0.001       32.256   0.100E-07
     TRS4 it   5 1.00000000   0.577E-01       0.001       32.256   0.100E-07
     TRS4 it   6 1.00000000   0.613E-02       0.001       32.256   0.100E-07
     TRS4 it   7 1.00000000   0.843E-04       0.001       32.256   0.100E-07
     TRS4 it   8 1.00000000   0.214E-07       0.001       32.256   0.100E-07
     Final TRS4 iteration    8 1.00000000   0.214E-07
     Chemical potential (mu):      -0.00071
 
 PAO| energy:  -7.7339790517263687      penalty:   1.3855532557745950E-005
 PAO|CG| trace_G_new    1.3838342767998692E-002
 PAO|CG| trace_G_prev    4.0385800255890066E-002
 PAO|CG| trace_G_mix   -6.1055727907306356E-004
 PAO|CG| trace_D    4.9880044236566876E-002
 PAO|CG| trace_D_Gnew   2.8229836948024420E-004
 PAO|CG| beta:   0.35777178997374104     
 PAO| norm of gradient:  0.11763648570064771     
 PAO| energy improvement:  -5.6215664413468147E-003
 PAO| step     12                   -7.733979052  0.735E-02  0.286E+00     0.047
 PAO|LS| adapt:  T F F
 PAO|LS| adapt: scan_steps:    0.0000000000000000        0.0000000000000000        0.0000000000000000     
 PAO|LS| adapt: energies:   -7.7339790517263687        0.0000000000000000        0.0000000000000000     
 PAO| ======================= Iteration:        13 =============================

     Lanczos converged:  T threshold:   0.100E-02
     Est. extremal eigenvalues:    0.272E+01   0.195E+00
     Est. condition number :    0.139E+02
     NS sqrt iter    1 1.00000000   0.692E+00       0.001       64.512
     NS sqrt iter    2 1.00000000   0.315E+00       0.001      110.592
     NS sqrt iter    3 1.00000000   0.671E-01       0.001      110.592
     NS sqrt iter    4 1.00000000   0.124E-02       0.001      110.592
     NS sqrt iter    5 1.00000000   0.136E-07       0.001       44.288
     Final NS sqrt iter    5 1.00000000   0.374E-08

     Est. extremal eigenvalues     -0.92620     1.53961  converged:  T
     TRS4 it   1 1.00000000   0.838E+00       0.000       16.128   0.100E-07
     TRS4 it   2 1.00000000   0.580E+00       0.001       32.256   0.100E-07
     TRS4 it   3 1.00000000   0.385E+00       0.001       32.256   0.100E-07
     TRS4 it   4 1.00000000   0.188E+00       0.001       32.256   0.100E-07
     TRS4 it   5 1.00000000   0.550E-01       0.001       32.256   0.100E-07
     TRS4 it   6 1.00000000   0.553E-02       0.001       32.256   0.100E-07
     TRS4 it   7 1.00000000   0.675E-04       0.001       32.256   0.100E-07
     TRS4 it   8 1.00000000   0.134E-07       0.001       32.256   0.100E-07
     Final TRS4 iteration    8 1.00000000   0.134E-07
     Chemical potential (mu):       0.00333
 
 PAO| energy:  -7.7363847713440723      penalty:   1.4294269168409828E-005
 PAO|LS| adapt:  T T F
 PAO|LS| adapt: scan_steps:    0.0000000000000000       0.28633562865646789        0.0000000000000000     
 PAO|LS| adapt: energies:   -7.7339790517263687       -7.7363847713440723        0.0000000000000000     
 PAO| ======================= Iteration:        14 =============================

     Lanczos converged:  T threshold:   0.100E-02
     Est. extremal eigenvalues:    0.268E+01   0.200E+00
     Est. condition number :    0.134E+02
     NS sqrt iter    1 1.00000000   0.684E+00       0.001       64.512
     NS sqrt iter    2 1.00000000   0.308E+00       0.001      110.592
     NS sqrt iter    3 1.00000000   0.630E-01       0.001      108.971
     NS sqrt iter    4 1.00000000   0.104E-02       0.001      110.592
     NS sqrt iter    5 1.00000000   0.663E-08       0.001       38.272
     Final NS sqrt iter    5 1.00000000   0.226E-08

     Est. extremal eigenvalues     -0.92619     1.54101  converged:  T
     TRS4 it   1 1.00000000   0.840E+00       0.000       16.128   0.100E-07
     TRS4 it   2 1.00000000   0.579E+00       0.001       32.256   0.100E-07
     TRS4 it   3 1.00000000   0.382E+00       0.001       32.256   0.100E-07
     TRS4 it   4 1.00000000   0.184E+00       0.001       32.256   0.100E-07
     TRS4 it   5 1.00000000   0.525E-01       0.001       32.256   0.100E-07
     TRS4 it   6 1.00000000   0.500E-02       0.001       32.256   0.100E-07
     TRS4 it   7 1.00000000   0.543E-04       0.001       32.256   0.100E-07
     TRS4 it   8 1.00000000   0.852E-08       0.001       32.256   0.100E-07
     Final TRS4 iteration    8 1.00000000   0.852E-08
     Chemical potential (mu):       0.00723
 
 PAO| energy:  -7.7357935645999634      penalty:   1.5283306667192087E-005
 PAO|LS| adapt:  T T T
 PAO|LS| adapt: scan_steps:    0.0000000000000000       0.28633562865646789       0.57267125731293578     
 PAO|LS| adapt: energies:   -7.7339790517263687       -7.7363847713440723       -7.7357935645999634     
 PAO|LS| adapt: suggested step_size:   0.37301771917866394     
 PAO|LS| adapt: predicted energy  -7.7365220977483160     
 PAO| ======================= Iteration:        15 =============================

     Lanczos converged:  T threshold:   0.100E-02
     Est. extremal eigenvalues:    0.270E+01   0.197E+00
     Est. condition number :    0.137E+02
     NS sqrt iter    1 1.00000000   0.690E+00       0.001       64.512
     NS sqrt iter    2 1.00000000   0.313E+00       0.001      110.577
     NS sqrt iter    3 1.00000000   0.658E-01       0.001      110.592
     NS sqrt iter    4 1.00000000   0.118E-02       0.001      110.592
     NS sqrt iter    5 1.00000000   0.114E-07       0.001       42.752
     Final NS sqrt iter    5 1.00000000   0.505E-08

     Est. extremal eigenvalues     -0.92626     1.54002  converged:  T
     TRS4 it   1 1.00000000   0.838E+00       0.000       16.128   0.100E-07
     TRS4 it   2 1.00000000   0.579E+00       0.001       32.256   0.100E-07
     TRS4 it   3 1.00000000   0.384E+00       0.001       32.256   0.100E-07
     TRS4 it   4 1.00000000   0.187E+00       0.001       32.256   0.100E-07
     TRS4 it   5 1.00000000   0.542E-01       0.001       32.256   0.100E-07
     TRS4 it   6 1.00000000   0.536E-02       0.001       32.256   0.100E-07
     TRS4 it   7 1.00000000   0.632E-04       0.001       32.256   0.100E-07
     TRS4 it   8 1.00000000   0.117E-07       0.001       32.256   0.100E-07
     Final TRS4 iteration    8 1.00000000   0.117E-07
     Chemical potential (mu):       0.00453
 
 PAO| energy:  -7.7365180420345014      penalty:   1.4530944032511942E-005
 PAO|CG| trace_G_new    3.0119644520702283E-003
 PAO|CG| trace_G_prev    1.3838342767998692E-002
 PAO|CG| trace_G_mix    1.0167122236884476E-004
 PAO|CG| trace_D    2.0021024251003543E-002
 PAO|CG| trace_D_Gnew   3.7409681370336557E-005
 PAO|CG| beta:   0.21030648528460111     
 PAO| norm of gradient:   5.4881367075449473E-002
 PAO| energy improvement:  -2.5389903081327603E-003
 PAO| step     15                   -7.736518042  0.343E-02  0.373E+00     0.049
 PAO|LS| adapt:  T F F
 PAO|LS| adapt: scan_steps:    0.0000000000000000        0.0000000000000000        0.0000000000000000     
 PAO|LS| adapt: energies:   -7.7365180420345014        0.0000000000000000        0.0000000000000000     
 PAO| ======================= Iteration:        16 =============================

     Lanczos converged:  T threshold:   0.100E-02
     Est. extremal eigenvalues:    0.269E+01   0.198E+00
     Est. condition number :    0.136E+02
     NS sqrt iter    1 1.00000000   0.688E+00       0.001       64.512
     NS sqrt iter    2 1.00000000   0.312E+00       0.001      110.592
     NS sqrt iter    3 1.00000000   0.652E-01       0.001      110.592
     NS sqrt iter    4 1.00000000   0.114E-02       0.001      110.592
     NS sqrt iter    5 1.00000000   0.947E-08       0.001       41.088
     Final NS sqrt iter    5 1.00000000   0.367E-08

     Est. extremal eigenvalues     -0.92629     1.53978  converged:  T
     TRS4 it   1 1.00000000   0.839E+00       0.000       16.128   0.100E-07
     TRS4 it   2 1.00000000   0.579E+00       0.001       32.256   0.100E-07
     TRS4 it   3 1.00000000   0.382E+00       0.001       32.256   0.100E-07
     TRS4 it   4 1.00000000   0.185E+00       0.001       32.256   0.100E-07
     TRS4 it   5 1.00000000   0.531E-01       0.001       32.256   0.100E-07
     TRS4 it   6 1.00000000   0.515E-02       0.001       32.256   0.100E-07
     TRS4 it   7 1.00000000   0.586E-04       0.001       32.256   0.100E-07
     TRS4 it   8 1.00000000   0.101E-07       0.001       32.256   0.100E-07
     Final TRS4 iteration    8 1.00000000   0.101E-07
     Chemical potential (mu):       0.00557
 
 PAO| energy:  -7.7366530996788718      penalty:   1.4395268800502958E-005
 PAO|LS| adapt:  T T F
 PAO|LS| adapt: scan_steps:    0.0000000000000000       0.37301771917866394        0.0000000000000000     
 PAO|LS| adapt: energies:   -7.7365180420345014       -7.7366530996788718        0.0000000000000000     
 PAO| ======================= Iteration:        17 =============================

     Lanczos converged:  T threshold:   0.100E-02
     Est. extremal eigenvalues:    0.268E+01   0.199E+00
     Est. condition number :    0.135E+02
     NS sqrt iter    1 1.00000000   0.686E+00       0.001       64.512
     NS sqrt iter    2 1.00000000   0.310E+00       0.001      110.592
     NS sqrt iter    3 1.00000000   0.645E-01       0.001      110.592
     NS sqrt iter    4 1.00000000   0.109E-02       0.001      110.592
     NS sqrt iter    5 1.00000000   0.776E-08       0.001       39.552
     Final NS sqrt iter    5 1.00000000   0.419E-08

     Est. extremal eigenvalues     -0.92614     1.53969  converged:  T
     TRS4 it   1 1.00000000   0.839E+00       0.000       16.128   0.100E-07
     TRS4 it   2 1.00000000   0.578E+00       0.001       32.256   0.100E-07
     TRS4 it   3 1.00000000   0.381E+00       0.001       32.256   0.100E-07
     TRS4 it   4 1.00000000   0.183E+00       0.001       32.256   0.100E-07
     TRS4 it   5 1.00000000   0.520E-01       0.001       32.256   0.100E-07
     TRS4 it   6 1.00000000   0.496E-02       0.001       32.256   0.100E-07
     TRS4 it   7 1.00000000   0.544E-04       0.001       32.256   0.100E-07
     TRS4 it   8 1.00000000   0.869E-08       0.001       32.256   0.100E-07
     Final TRS4 iteration    8 1.00000000   0.869E-08
     Chemical potential (mu):       0.00661
 
 PAO| energy:  -7.7348095564932846      penalty:   1.4401310059237266E-005
 PAO|LS| adapt:  T T T
 PAO|LS| adapt: scan_steps:    0.0000000000000000       0.37301771917866394       0.74603543835732788     
 PAO|LS| adapt: energies:   -7.7365180420345014       -7.7366530996788718       -7.7348095564932846     
 PAO|LS| adapt: suggested step_size:   0.21197073835634100     
 PAO|LS| adapt: predicted energy  -7.7368375054215779     
 PAO| ======================= Iteration:        18 =============================

     Lanczos converged:  T threshold:   0.100E-02
     Est. extremal eigenvalues:    0.270E+01   0.197E+00
     Est. condition number :    0.137E+02
     NS sqrt iter    1 1.00000000   0.689E+00       0.001       64.512
     NS sqrt iter    2 1.00000000   0.312E+00       0.001      110.592
     NS sqrt iter    3 1.00000000   0.655E-01       0.001      110.592
     NS sqrt iter    4 1.00000000   0.115E-02       0.001      110.592
     NS sqrt iter    5 1.00000000   0.105E-07       0.001       42.624
     Final NS sqrt iter    5 1.00000000   0.429E-08

     Est. extremal eigenvalues     -0.92630     1.53987  converged:  T
     TRS4 it   1 1.00000000   0.839E+00       0.000       16.128   0.100E-07
     TRS4 it   2 1.00000000   0.579E+00       0.001       32.256   0.100E-07
     TRS4 it   3 1.00000000   0.383E+00       0.001       32.256   0.100E-07
     TRS4 it   4 1.00000000   0.186E+00       0.001       32.256   0.100E-07
     TRS4 it   5 1.00000000   0.536E-01       0.001       32.256   0.100E-07
     TRS4 it   6 1.00000000   0.524E-02       0.001       32.256   0.100E-07
     TRS4 it   7 1.00000000   0.605E-04       0.001       32.256   0.100E-07
     TRS4 it   8 1.00000000   0.107E-07       0.001       32.256   0.100E-07
     Final TRS4 iteration    8 1.00000000   0.107E-07
     Chemical potential (mu):       0.00512
 
 PAO| energy:  -7.7368368708019037      penalty:   1.4436874607748641E-005
 PAO|CG| trace_G_new    8.0921777023147039E-004
 PAO|CG| trace_G_prev    3.0119644520702283E-003
 PAO|CG| trace_G_mix    1.1486176090319850E-006
 PAO|CG| trace_D    3.8817356876822712E-003
 PAO|CG| trace_D_Gnew  -2.3020773138576824E-006
 PAO|CG| beta:   0.26828641754620453     
 PAO| norm of gradient:   2.8446753245870971E-002
 PAO| energy improvement:  -3.1882876740230159E-004
 PAO| step     18                   -7.736836871  0.178E-02  0.212E+00     0.049
 PAO|LS| adapt:  T F F
 PAO|LS| adapt: scan_steps:    0.0000000000000000        0.0000000000000000        0.0000000000000000     
 PAO|LS| adapt: energies:   -7.7368368708019037        0.0000000000000000        0.0000000000000000     
 PAO| ======================= Iteration:        19 =============================

     Lanczos converged:  T threshold:   0.100E-02
     Est. extremal eigenvalues:    0.270E+01   0.197E+00
     Est. condition number :    0.137E+02
     NS sqrt iter    1 1.00000000   0.689E+00       0.001       64.512
     NS sqrt iter    2 1.00000000   0.313E+00       0.001      110.592
     NS sqrt iter    3 1.00000000   0.657E-01       0.001      110.592
     NS sqrt iter    4 1.00000000   0.116E-02       0.001      110.592
     NS sqrt iter    5 1.00000000   0.105E-07       0.001       42.624
     Final NS sqrt iter    5 1.00000000   0.430E-08

     Est. extremal eigenvalues     -0.92630     1.54023  converged:  T
     TRS4 it   1 1.00000000   0.839E+00       0.000       16.128   0.100E-07
     TRS4 it   2 1.00000000   0.579E+00       0.001       32.256   0.100E-07
     TRS4 it   3 1.00000000   0.383E+00       0.001       32.256   0.100E-07
     TRS4 it   4 1.00000000   0.185E+00       0.001       32.256   0.100E-07
     TRS4 it   5 1.00000000   0.535E-01       0.001       32.256   0.100E-07
     TRS4 it   6 1.00000000   0.524E-02       0.001       32.256   0.100E-07
     TRS4 it   7 1.00000000   0.607E-04       0.001       32.256   0.100E-07
     TRS4 it   8 1.00000000   0.108E-07       0.001       32.256   0.100E-07
     Final TRS4 iteration    8 1.00000000   0.108E-07
     Chemical potential (mu):       0.00504
 
 PAO| energy:  -7.7369678438037788      penalty:   1.4174273285145536E-005
 PAO|LS| adapt:  T T F
 PAO|LS| adapt: scan_steps:    0.0000000000000000       0.21197073835634100        0.0000000000000000     
 PAO|LS| adapt: energies:   -7.7368368708019037       -7.7369678438037788        0.0000000000000000     
 PAO| ======================= Iteration:        20 =============================

     Lanczos converged:  T threshold:   0.100E-02
     Est. extremal eigenvalues:    0.270E+01   0.197E+00
     Est. condition number :    0.137E+02
     NS sqrt iter    1 1.00000000   0.688E+00       0.001       64.512
     NS sqrt iter    2 1.00000000   0.313E+00       0.001      110.592
     NS sqrt iter    3 1.00000000   0.659E-01       0.001      110.592
     NS sqrt iter    4 1.00000000   0.117E-02       0.001      110.592
     NS sqrt iter    5 1.00000000   0.105E-07       0.001       42.624
     Final NS sqrt iter    5 1.00000000   0.432E-08

     Est. extremal eigenvalues     -0.92630     1.54059  converged:  T
     TRS4 it   1 1.00000000   0.839E+00       0.000       16.128   0.100E-07
     TRS4 it   2 1.00000000   0.579E+00       0.001       32.256   0.100E-07
     TRS4 it   3 1.00000000   0.383E+00       0.001       32.256   0.100E-07
     TRS4 it   4 1.00000000   0.185E+00       0.001       32.256   0.100E-07
     TRS4 it   5 1.00000000   0.534E-01       0.001       32.256   0.100E-07
     TRS4 it   6 1.00000000   0.524E-02       0.001       32.256   0.100E-07
     TRS4 it   7 1.00000000   0.609E-04       0.001       32.256   0.100E-07
     TRS4 it   8 1.00000000   0.109E-07       0.001       32.256   0.100E-07
     Final TRS4 iteration    8 1.00000000   0.109E-07
     Chemical potential (mu):       0.00496
 
 PAO| energy:  -7.7370169208797179      penalty:   1.3924058096403223E-005
 PAO|LS| adapt:  T T F
 PAO|LS| adapt: scan_steps:    0.0000000000000000       0.42394147671268201        0.0000000000000000     
 PAO|LS| adapt: energies:   -7.7368368708019037       -7.7370169208797179        0.0000000000000000     
 PAO| ======================= Iteration:        21 =============================

     Lanczos converged:  T threshold:   0.100E-02
     Est. extremal eigenvalues:    0.270E+01   0.197E+00
     Est. condition number :    0.137E+02
     NS sqrt iter    1 1.00000000   0.688E+00       0.001       64.512
     NS sqrt iter    2 1.00000000   0.313E+00       0.001      110.592
     NS sqrt iter    3 1.00000000   0.663E-01       0.001      110.592
     NS sqrt iter    4 1.00000000   0.118E-02       0.001      110.592
     NS sqrt iter    5 1.00000000   0.105E-07       0.001       42.624
     Final NS sqrt iter    5 1.00000000   0.435E-08

     Est. extremal eigenvalues     -0.92629     1.54133  converged:  T
     TRS4 it   1 1.00000000   0.839E+00       0.000       16.128   0.100E-07
     TRS4 it   2 1.00000000   0.579E+00       0.001       32.256   0.100E-07
     TRS4 it   3 1.00000000   0.383E+00       0.001       32.256   0.100E-07
     TRS4 it   4 1.00000000   0.185E+00       0.001       32.256   0.100E-07
     TRS4 it   5 1.00000000   0.533E-01       0.001       32.256   0.100E-07
     TRS4 it   6 1.00000000   0.523E-02       0.001       32.256   0.100E-07
     TRS4 it   7 1.00000000   0.613E-04       0.001       32.256   0.100E-07
     TRS4 it   8 1.00000000   0.111E-07       0.001       32.256   0.100E-07
     Final TRS4 iteration    8 1.00000000   0.111E-07
     Chemical potential (mu):       0.00478
 
 PAO| energy:  -7.7368662602047715      penalty:   1.3460397309420112E-005
 PAO|LS| Need extra step
 PAO|LS| adapt:  T T T
 PAO|LS| adapt: scan_steps:    0.0000000000000000       0.42394147671268201       0.84788295342536402     
 PAO|LS| adapt: energies:   -7.7368368708019037       -7.7370169208797179       -7.7368662602047715     
 PAO|LS| adapt: suggested step_size:   0.44277876390015458     
 PAO|LS| adapt: predicted energy  -7.7370172473496748     
 PAO| ======================= Iteration:        22 =============================

     Lanczos converged:  T threshold:   0.100E-02
     Est. extremal eigenvalues:    0.270E+01   0.197E+00
     Est. condition number :    0.137E+02
     NS sqrt iter    1 1.00000000   0.688E+00       0.001       64.512
     NS sqrt iter    2 1.00000000   0.313E+00       0.001      110.592
     NS sqrt iter    3 1.00000000   0.659E-01       0.001      110.592
     NS sqrt iter    4 1.00000000   0.117E-02       0.001      110.592
     NS sqrt iter    5 1.00000000   0.105E-07       0.001       42.624
     Final NS sqrt iter    5 1.00000000   0.432E-08

     Est. extremal eigenvalues     -0.92630     1.54062  converged:  T
     TRS4 it   1 1.00000000   0.839E+00       0.000       16.128   0.100E-07
     TRS4 it   2 1.00000000   0.579E+00       0.001       32.256   0.100E-07
     TRS4 it   3 1.00000000   0.383E+00       0.001       32.256   0.100E-07
     TRS4 it   4 1.00000000   0.185E+00       0.001       32.256   0.100E-07
     TRS4 it   5 1.00000000   0.534E-01       0.001       32.256   0.100E-07
     TRS4 it   6 1.00000000   0.524E-02       0.001       32.256   0.100E-07
     TRS4 it   7 1.00000000   0.609E-04       0.001       32.256   0.100E-07
     TRS4 it   8 1.00000000   0.109E-07       0.001       32.256   0.100E-07
     Final TRS4 iteration    8 1.00000000   0.109E-07
     Chemical potential (mu):       0.00495
 
 PAO| energy:  -7.7370172935780994      penalty:   1.3902416645582573E-005
 PAO|CG| trace_G_new    2.3853345222152558E-004
 PAO|CG| trace_G_prev    8.0921777023147039E-004
 PAO|CG| trace_G_mix    4.5117743484344943E-006
 PAO|CG| trace_D    1.0898510281576144E-003
 PAO|CG| trace_D_Gnew  -2.4417712722873932E-006
 PAO|CG| beta:   0.28919493179957112     
 PAO| norm of gradient:   1.5444528229166650E-002
 PAO| energy improvement:  -1.8042277619567670E-004
 PAO| step     22                   -7.737017294  0.965E-03  0.443E+00     0.061
 PAO|LS| adapt:  T F F
 PAO|LS| adapt: scan_steps:    0.0000000000000000        0.0000000000000000        0.0000000000000000     
 PAO|LS| adapt: energies:   -7.7370172935780994        0.0000000000000000        0.0000000000000000     
 PAO| ======================= Iteration:        23 =============================

     Lanczos converged:  T threshold:   0.100E-02
     Est. extremal eigenvalues:    0.270E+01   0.198E+00
     Est. condition number :    0.137E+02
     NS sqrt iter    1 1.00000000   0.688E+00       0.001       64.512
     NS sqrt iter    2 1.00000000   0.313E+00       0.001      110.592
     NS sqrt iter    3 1.00000000   0.659E-01       0.001      110.592
     NS sqrt iter    4 1.00000000   0.117E-02       0.001      110.592
     NS sqrt iter    5 1.00000000   0.104E-07       0.001       42.624
     Final NS sqrt iter    5 1.00000000   0.428E-08

     Est. extremal eigenvalues     -0.92630     1.54098  converged:  T
     TRS4 it   1 1.00000000   0.839E+00       0.000       16.128   0.100E-07
     TRS4 it   2 1.00000000   0.579E+00       0.001       32.256   0.100E-07
     TRS4 it   3 1.00000000   0.383E+00       0.001       32.256   0.100E-07
     TRS4 it   4 1.00000000   0.186E+00       0.001       32.256   0.100E-07
     TRS4 it   5 1.00000000   0.536E-01       0.001       32.256   0.100E-07
     TRS4 it   6 1.00000000   0.527E-02       0.001       32.256   0.100E-07
     TRS4 it   7 1.00000000   0.618E-04       0.001       32.256   0.100E-07
     TRS4 it   8 1.00000000   0.113E-07       0.001       32.256   0.100E-07
     Final TRS4 iteration    8 1.00000000   0.113E-07
     Chemical potential (mu):       0.00477
 
 PAO| energy:  -7.7370542659289869      penalty:   1.3266895448231099E-005
 PAO|LS| adapt:  T T F
 PAO|LS| adapt: scan_steps:    0.0000000000000000       0.44277876390015458        0.0000000000000000     
 PAO|LS| adapt: energies:   -7.7370172935780994       -7.7370542659289869        0.0000000000000000     
 PAO| ======================= Iteration:        24 =============================

     Lanczos converged:  T threshold:   0.100E-02
     Est. extremal eigenvalues:    0.270E+01   0.198E+00
     Est. condition number :    0.137E+02
     NS sqrt iter    1 1.00000000   0.688E+00       0.001       64.512
     NS sqrt iter    2 1.00000000   0.313E+00       0.001      110.592
     NS sqrt iter    3 1.00000000   0.660E-01       0.001      110.592
     NS sqrt iter    4 1.00000000   0.117E-02       0.001      110.592
     NS sqrt iter    5 1.00000000   0.103E-07       0.001       42.496
     Final NS sqrt iter    5 1.00000000   0.426E-08

     Est. extremal eigenvalues     -0.92629     1.54135  converged:  T
     TRS4 it   1 1.00000000   0.839E+00       0.000       16.128   0.100E-07
     TRS4 it   2 1.00000000   0.579E+00       0.001       32.256   0.100E-07
     TRS4 it   3 1.00000000   0.384E+00       0.001       32.256   0.100E-07
     TRS4 it   4 1.00000000   0.186E+00       0.001       32.256   0.100E-07
     TRS4 it   5 1.00000000   0.538E-01       0.001       32.256   0.100E-07
     TRS4 it   6 1.00000000   0.531E-02       0.001       32.256   0.100E-07
     TRS4 it   7 1.00000000   0.628E-04       0.001       32.256   0.100E-07
     TRS4 it   8 1.00000000   0.116E-07       0.001       32.256   0.100E-07
     Final TRS4 iteration    8 1.00000000   0.116E-07
     Chemical potential (mu):       0.00458
 
 PAO| energy:  -7.7369526565203648      penalty:   1.2657439016722770E-005
 PAO|LS| adapt:  T T T
 PAO|LS| adapt: scan_steps:    0.0000000000000000       0.44277876390015458       0.88555752780030916     
 PAO|LS| adapt: energies:   -7.7370172935780994       -7.7370542659289869       -7.7369526565203648     
 PAO|LS| adapt: suggested step_size:   0.33951872222097051     
 PAO|LS| adapt: predicted energy  -7.7370580344166706     
 PAO| ======================= Iteration:        25 =============================

     Lanczos converged:  T threshold:   0.100E-02
     Est. extremal eigenvalues:    0.270E+01   0.197E+00
     Est. condition number :    0.137E+02
     NS sqrt iter    1 1.00000000   0.688E+00       0.001       64.512
     NS sqrt iter    2 1.00000000   0.313E+00       0.001      110.592
     NS sqrt iter    3 1.00000000   0.659E-01       0.001      110.592
     NS sqrt iter    4 1.00000000   0.117E-02       0.001      110.592
     NS sqrt iter    5 1.00000000   0.104E-07       0.001       42.624
     Final NS sqrt iter    5 1.00000000   0.429E-08

     Est. extremal eigenvalues     -0.92630     1.54090  converged:  T
     TRS4 it   1 1.00000000   0.839E+00       0.000       16.128   0.100E-07
     TRS4 it   2 1.00000000   0.579E+00       0.001       32.256   0.100E-07
     TRS4 it   3 1.00000000   0.383E+00       0.001       32.256   0.100E-07
     TRS4 it   4 1.00000000   0.186E+00       0.001       32.256   0.100E-07
     TRS4 it   5 1.00000000   0.536E-01       0.001       32.256   0.100E-07
     TRS4 it   6 1.00000000   0.527E-02       0.001       32.256   0.100E-07
     TRS4 it   7 1.00000000   0.616E-04       0.001       32.256   0.100E-07
     TRS4 it   8 1.00000000   0.112E-07       0.001       32.256   0.100E-07
     Final TRS4 iteration    8 1.00000000   0.112E-07
     Chemical potential (mu):       0.00481
 
 PAO| energy:  -7.7370579976506866      penalty:   1.3412755390807193E-005
 PAO|CG| trace_G_new    7.8473558719515348E-005
 PAO|CG| trace_G_prev    2.3853345222152558E-004
 PAO|CG| trace_G_mix    2.4342401799836921E-007
 PAO|CG| trace_D    3.3109403125762055E-004
 PAO|CG| trace_D_Gnew  -3.1476753218202092E-007
 PAO|CG| beta:   0.32796295015621035     
 PAO| norm of gradient:   8.8585302798779974E-003
 PAO| energy improvement:  -4.0704072587161022E-005
 PAO| step     25                   -7.737057998  0.554E-03  0.340E+00     0.046
 PAO|LS| adapt:  T F F
 PAO|LS| adapt: scan_steps:    0.0000000000000000        0.0000000000000000        0.0000000000000000     
 PAO|LS| adapt: energies:   -7.7370579976506866        0.0000000000000000        0.0000000000000000     
 PAO| ======================= Iteration:        26 =============================

     Lanczos converged:  T threshold:   0.100E-02
     Est. extremal eigenvalues:    0.270E+01   0.198E+00
     Est. condition number :    0.137E+02
     NS sqrt iter    1 1.00000000   0.688E+00       0.001       64.512
     NS sqrt iter    2 1.00000000   0.313E+00       0.001      110.592
     NS sqrt iter    3 1.00000000   0.658E-01       0.001      110.592
     NS sqrt iter    4 1.00000000   0.116E-02       0.001      110.592
     NS sqrt iter    5 1.00000000   0.103E-07       0.001       42.624
     Final NS sqrt iter    5 1.00000000   0.425E-08

     Est. extremal eigenvalues     -0.92630     1.54080  converged:  T
     TRS4 it   1 1.00000000   0.839E+00       0.000       16.128   0.100E-07
     TRS4 it   2 1.00000000   0.579E+00       0.001       32.256   0.100E-07
     TRS4 it   3 1.00000000   0.383E+00       0.001       32.256   0.100E-07
     TRS4 it   4 1.00000000   0.186E+00       0.001       32.256   0.100E-07
     TRS4 it   5 1.00000000   0.536E-01       0.001       32.256   0.100E-07
     TRS4 it   6 1.00000000   0.526E-02       0.001       32.256   0.100E-07
     TRS4 it   7 1.00000000   0.615E-04       0.001       32.256   0.100E-07
     TRS4 it   8 1.00000000   0.111E-07       0.001       32.256   0.100E-07
     Final TRS4 iteration    8 1.00000000   0.111E-07
     Chemical potential (mu):       0.00484
 
 PAO| energy:  -7.7370657019954443      penalty:   1.2889778504771846E-005
 PAO|LS| adapt:  T T F
 PAO|LS| adapt: scan_steps:    0.0000000000000000       0.33951872222097051        0.0000000000000000     
 PAO|LS| adapt: energies:   -7.7370579976506866       -7.7370657019954443        0.0000000000000000     
 PAO| ======================= Iteration:        27 =============================

     Lanczos converged:  T threshold:   0.100E-02
     Est. extremal eigenvalues:    0.270E+01   0.198E+00
     Est. condition number :    0.136E+02
     NS sqrt iter    1 1.00000000   0.688E+00       0.001       64.512
     NS sqrt iter    2 1.00000000   0.313E+00       0.001      110.592
     NS sqrt iter    3 1.00000000   0.658E-01       0.001      110.592
     NS sqrt iter    4 1.00000000   0.116E-02       0.001      110.592
     NS sqrt iter    5 1.00000000   0.975E-08       0.001       41.216
     Final NS sqrt iter    5 1.00000000   0.376E-08

     Est. extremal eigenvalues     -0.92630     1.54070  converged:  T
     TRS4 it   1 1.00000000   0.839E+00       0.000       16.128   0.100E-07
     TRS4 it   2 1.00000000   0.579E+00       0.001       32.256   0.100E-07
     TRS4 it   3 1.00000000   0.383E+00       0.001       32.256   0.100E-07
     TRS4 it   4 1.00000000   0.186E+00       0.001       32.256   0.100E-07
     TRS4 it   5 1.00000000   0.536E-01       0.001       32.256   0.100E-07
     TRS4 it   6 1.00000000   0.526E-02       0.001       32.256   0.100E-07
     TRS4 it   7 1.00000000   0.614E-04       0.001       32.256   0.100E-07
     TRS4 it   8 1.00000000   0.111E-07       0.001       32.256   0.100E-07
     Final TRS4 iteration    8 1.00000000   0.111E-07
     Chemical potential (mu):       0.00488
 
 PAO| energy:  -7.7370353944975108      penalty:   1.2379270005115906E-005
 PAO|LS| adapt:  T T T
 PAO|LS| adapt: scan_steps:    0.0000000000000000       0.33951872222097051       0.67903744444194103     
 PAO|LS| adapt: energies:   -7.7370579976506866       -7.7370657019954443       -7.7370353944975108     
 PAO|LS| adapt: suggested step_size:   0.23857394894662340     
 PAO|LS| adapt: predicted energy  -7.7370673820722891     
 PAO| ======================= Iteration:        28 =============================

     Lanczos converged:  T threshold:   0.100E-02
     Est. extremal eigenvalues:    0.270E+01   0.198E+00
     Est. condition number :    0.137E+02
     NS sqrt iter    1 1.00000000   0.688E+00       0.001       64.512
     NS sqrt iter    2 1.00000000   0.313E+00       0.001      110.592
     NS sqrt iter    3 1.00000000   0.659E-01       0.001      110.592
     NS sqrt iter    4 1.00000000   0.116E-02       0.001      110.592
     NS sqrt iter    5 1.00000000   0.103E-07       0.001       42.624
     Final NS sqrt iter    5 1.00000000   0.426E-08

     Est. extremal eigenvalues     -0.92630     1.54083  converged:  T
     TRS4 it   1 1.00000000   0.839E+00       0.000       16.128   0.100E-07
     TRS4 it   2 1.00000000   0.579E+00       0.001       32.256   0.100E-07
     TRS4 it   3 1.00000000   0.383E+00       0.001       32.256   0.100E-07
     TRS4 it   4 1.00000000   0.186E+00       0.001       32.256   0.100E-07
     TRS4 it   5 1.00000000   0.536E-01       0.001       32.256   0.100E-07
     TRS4 it   6 1.00000000   0.526E-02       0.001       32.256   0.100E-07
     TRS4 it   7 1.00000000   0.615E-04       0.001       32.256   0.100E-07
     TRS4 it   8 1.00000000   0.111E-07       0.001       32.256   0.100E-07
     Final TRS4 iteration    8 1.00000000   0.111E-07
     Chemical potential (mu):       0.00483
 
 PAO| energy:  -7.7370673776189811      penalty:   1.3043961073195148E-005
 PAO|CG| trace_G_new    1.5513021211187787E-005
 PAO|CG| trace_G_prev    7.8473558719515348E-005
 PAO|CG| trace_G_mix    7.2112565773582342E-008
 PAO|CG| trace_D    1.1429239646947823E-004
 PAO|CG| trace_D_Gnew  -3.4419331377394651E-008
 PAO|CG| beta:   0.19676575011213621     
 PAO| norm of gradient:   3.9386572853179020E-003
 PAO| energy improvement:  -9.3799682945316931E-006
 PAO| step     28                   -7.737067378  0.246E-03  0.239E+00     0.046
 PAO|LS| adapt:  T F F
 PAO|LS| adapt: scan_steps:    0.0000000000000000        0.0000000000000000        0.0000000000000000     
 PAO|LS| adapt: energies:   -7.7370673776189811        0.0000000000000000        0.0000000000000000     
 PAO| ======================= Iteration:        29 =============================

     Lanczos converged:  T threshold:   0.100E-02
     Est. extremal eigenvalues:    0.270E+01   0.198E+00
     Est. condition number :    0.137E+02
     NS sqrt iter    1 1.00000000   0.688E+00       0.001       64.512
     NS sqrt iter    2 1.00000000   0.313E+00       0.001      110.592
     NS sqrt iter    3 1.00000000   0.658E-01       0.001      110.592
     NS sqrt iter    4 1.00000000   0.116E-02       0.001      110.592
     NS sqrt iter    5 1.00000000   0.103E-07       0.001       42.624
     Final NS sqrt iter    5 1.00000000   0.426E-08

     Est. extremal eigenvalues     -0.92630     1.54087  converged:  T
     TRS4 it   1 1.00000000   0.839E+00       0.000       16.128   0.100E-07
     TRS4 it   2 1.00000000   0.579E+00       0.001       32.256   0.100E-07
     TRS4 it   3 1.00000000   0.383E+00       0.001       32.256   0.100E-07
     TRS4 it   4 1.00000000   0.185E+00       0.001       32.256   0.100E-07
     TRS4 it   5 1.00000000   0.536E-01       0.001       32.256   0.100E-07
     TRS4 it   6 1.00000000   0.526E-02       0.001       32.256   0.100E-07
     TRS4 it   7 1.00000000   0.613E-04       0.001       32.256   0.100E-07
     TRS4 it   8 1.00000000   0.111E-07       0.001       32.256   0.100E-07
     Final TRS4 iteration    8 1.00000000   0.111E-07
     Chemical potential (mu):       0.00490
 
 PAO| energy:  -7.7370704367971150      penalty:   1.2720560047529669E-005
 PAO|LS| adapt:  T T F
 PAO|LS| adapt: scan_steps:    0.0000000000000000       0.23857394894662340        0.0000000000000000     
 PAO|LS| adapt: energies:   -7.7370673776189811       -7.7370704367971150        0.0000000000000000     
 PAO| ======================= Iteration:        30 =============================

     Lanczos converged:  T threshold:   0.100E-02
     Est. extremal eigenvalues:    0.270E+01   0.198E+00
     Est. condition number :    0.137E+02
     NS sqrt iter    1 1.00000000   0.688E+00       0.001       64.512
     NS sqrt iter    2 1.00000000   0.313E+00       0.001      110.592
     NS sqrt iter    3 1.00000000   0.658E-01       0.001      110.592
     NS sqrt iter    4 1.00000000   0.116E-02       0.001      110.592
     NS sqrt iter    5 1.00000000   0.103E-07       0.001       42.624
     Final NS sqrt iter    5 1.00000000   0.426E-08

     Est. extremal eigenvalues     -0.92630     1.54091  converged:  T
     TRS4 it   1 1.00000000   0.839E+00       0.000       16.128   0.100E-07
     TRS4 it   2 1.00000000   0.579E+00       0.001       32.256   0.100E-07
     TRS4 it   3 1.00000000   0.383E+00       0.001       32.256   0.100E-07
     TRS4 it   4 1.00000000   0.185E+00       0.001       32.256   0.100E-07
     TRS4 it   5 1.00000000   0.535E-01       0.001       32.256   0.100E-07
     TRS4 it   6 1.00000000   0.525E-02       0.001       32.256   0.100E-07
     TRS4 it   7 1.00000000   0.611E-04       0.001       32.256   0.100E-07
     TRS4 it   8 1.00000000   0.110E-07       0.001       32.256   0.100E-07
     Final TRS4 iteration    8 1.00000000   0.110E-07
     Chemical potential (mu):       0.00497
 
 PAO| energy:  -7.7370722086706056      penalty:   1.2401447493625492E-005
 PAO|LS| adapt:  T T F
 PAO|LS| adapt: scan_steps:    0.0000000000000000       0.47714789789324680        0.0000000000000000     
 PAO|LS| adapt: energies:   -7.7370673776189811       -7.7370722086706056        0.0000000000000000     
 PAO| ======================= Iteration:        31 =============================

     Lanczos converged:  T threshold:   0.100E-02
     Est. extremal eigenvalues:    0.270E+01   0.198E+00
     Est. condition number :    0.136E+02
     NS sqrt iter    1 1.00000000   0.688E+00       0.001       64.512
     NS sqrt iter    2 1.00000000   0.313E+00       0.001      110.592
     NS sqrt iter    3 1.00000000   0.657E-01       0.001      110.592
     NS sqrt iter    4 1.00000000   0.116E-02       0.001      110.592
     NS sqrt iter    5 1.00000000   0.102E-07       0.001       42.624
     Final NS sqrt iter    5 1.00000000   0.425E-08

     Est. extremal eigenvalues     -0.92630     1.54098  converged:  T
     TRS4 it   1 1.00000000   0.839E+00       0.000       16.128   0.100E-07
     TRS4 it   2 1.00000000   0.579E+00       0.001       32.256   0.100E-07
     TRS4 it   3 1.00000000   0.383E+00       0.001       32.256   0.100E-07
     TRS4 it   4 1.00000000   0.185E+00       0.001       32.256   0.100E-07
     TRS4 it   5 1.00000000   0.534E-01       0.001       32.256   0.100E-07
     TRS4 it   6 1.00000000   0.523E-02       0.001       32.256   0.100E-07
     TRS4 it   7 1.00000000   0.607E-04       0.001       32.256   0.100E-07
     TRS4 it   8 1.00000000   0.108E-07       0.001       32.256   0.100E-07
     Final TRS4 iteration    8 1.00000000   0.108E-07
     Chemical potential (mu):       0.00512
 
 PAO| energy:  -7.7370718888056080      penalty:   1.1776052923637829E-005
 PAO|LS| Need extra step
 PAO|LS| adapt:  T T T
 PAO|LS| adapt: scan_steps:    0.0000000000000000       0.47714789789324680       0.95429579578649359     
 PAO|LS| adapt: energies:   -7.7370673776189811       -7.7370722086706056       -7.7370718888056080     
 PAO|LS| adapt: suggested step_size:   0.68609160383438317     
 PAO|LS| adapt: predicted energy  -7.7370727025342774     
 PAO| ======================= Iteration:        32 =============================

     Lanczos converged:  T threshold:   0.100E-02
     Est. extremal eigenvalues:    0.270E+01   0.198E+00
     Est. condition number :    0.137E+02
     NS sqrt iter    1 1.00000000   0.688E+00       0.001       64.512
     NS sqrt iter    2 1.00000000   0.313E+00       0.001      110.592
     NS sqrt iter    3 1.00000000   0.657E-01       0.001      110.592
     NS sqrt iter    4 1.00000000   0.116E-02       0.001      110.592
     NS sqrt iter    5 1.00000000   0.103E-07       0.001       42.624
     Final NS sqrt iter    5 1.00000000   0.425E-08

     Est. extremal eigenvalues     -0.92630     1.54094  converged:  T
     TRS4 it   1 1.00000000   0.839E+00       0.000       16.128   0.100E-07
     TRS4 it   2 1.00000000   0.579E+00       0.001       32.256   0.100E-07
     TRS4 it   3 1.00000000   0.383E+00       0.001       32.256   0.100E-07
     TRS4 it   4 1.00000000   0.185E+00       0.001       32.256   0.100E-07
     TRS4 it   5 1.00000000   0.535E-01       0.001       32.256   0.100E-07
     TRS4 it   6 1.00000000   0.524E-02       0.001       32.256   0.100E-07
     TRS4 it   7 1.00000000   0.609E-04       0.001       32.256   0.100E-07
     TRS4 it   8 1.00000000   0.109E-07       0.001       32.256   0.100E-07
     Final TRS4 iteration    8 1.00000000   0.109E-07
     Chemical potential (mu):       0.00504
 
 PAO| energy:  -7.7370727027347765      penalty:   1.2125483614055074E-005
 PAO|CG| trace_G_new    3.9499799731777474E-005
 PAO|CG| trace_G_prev    1.5513021211187787E-005
 PAO|CG| trace_G_mix    8.3800552972962434E-009
 PAO|CG| trace_D    1.9951597633916912E-005
 PAO|CG| trace_D_Gnew  -1.9634132187482621E-010
 PAO|CG| beta:    2.5456949448376625     
 PAO| norm of gradient:   6.2848866124837503E-003
 PAO| energy improvement:  -5.3251157954292694E-006
 PAO| step     32                   -7.737072703  0.393E-03  0.686E+00     0.060
 PAO|LS| adapt:  T F F
 PAO|LS| adapt: scan_steps:    0.0000000000000000        0.0000000000000000        0.0000000000000000     
 PAO|LS| adapt: energies:   -7.7370727027347765        0.0000000000000000        0.0000000000000000     
 PAO| ======================= Iteration:        33 =============================

     Lanczos converged:  T threshold:   0.100E-02
     Est. extremal eigenvalues:    0.270E+01   0.198E+00
     Est. condition number :    0.136E+02
     NS sqrt iter    1 1.00000000   0.687E+00       0.001       64.512
     NS sqrt iter    2 1.00000000   0.312E+00       0.001      110.592
     NS sqrt iter    3 1.00000000   0.654E-01       0.001      110.592
     NS sqrt iter    4 1.00000000   0.115E-02       0.001      110.592
     NS sqrt iter    5 1.00000000   0.101E-07       0.001       42.496
     Final NS sqrt iter    5 1.00000000   0.481E-08

     Est. extremal eigenvalues     -0.92631     1.54059  converged:  T
     TRS4 it   1 1.00000000   0.839E+00       0.000       16.128   0.100E-07
     TRS4 it   2 1.00000000   0.579E+00       0.001       32.256   0.100E-07
     TRS4 it   3 1.00000000   0.383E+00       0.001       32.256   0.100E-07
     TRS4 it   4 1.00000000   0.185E+00       0.001       32.256   0.100E-07
     TRS4 it   5 1.00000000   0.531E-01       0.001       32.256   0.100E-07
     TRS4 it   6 1.00000000   0.516E-02       0.001       32.256   0.100E-07
     TRS4 it   7 1.00000000   0.589E-04       0.001       32.256   0.100E-07
     TRS4 it   8 1.00000000   0.102E-07       0.001       32.256   0.100E-07
     Final TRS4 iteration    8 1.00000000   0.102E-07
     Chemical potential (mu):       0.00558
 
 PAO| energy:  -7.7370859956645992      penalty:   9.3431676859413655E-006
 PAO|LS| adapt:  T T F
 PAO|LS| adapt: scan_steps:    0.0000000000000000       0.68609160383438317        0.0000000000000000     
 PAO|LS| adapt: energies:   -7.7370727027347765       -7.7370859956645992        0.0000000000000000     
 PAO| ======================= Iteration:        34 =============================

     Lanczos converged:  T threshold:   0.100E-02
     Est. extremal eigenvalues:    0.269E+01   0.198E+00
     Est. condition number :    0.136E+02
     NS sqrt iter    1 1.00000000   0.686E+00       0.001       64.512
     NS sqrt iter    2 1.00000000   0.311E+00       0.001      110.592
     NS sqrt iter    3 1.00000000   0.651E-01       0.001      110.592
     NS sqrt iter    4 1.00000000   0.114E-02       0.001      110.592
     NS sqrt iter    5 1.00000000   0.995E-08       0.001       42.496
     Final NS sqrt iter    5 1.00000000   0.478E-08

     Est. extremal eigenvalues     -0.92632     1.54026  converged:  T
     TRS4 it   1 1.00000000   0.840E+00       0.000       16.128   0.100E-07
     TRS4 it   2 1.00000000   0.579E+00       0.001       32.256   0.100E-07
     TRS4 it   3 1.00000000   0.382E+00       0.001       32.256   0.100E-07
     TRS4 it   4 1.00000000   0.184E+00       0.001       32.256   0.100E-07
     TRS4 it   5 1.00000000   0.528E-01       0.001       32.256   0.100E-07
     TRS4 it   6 1.00000000   0.509E-02       0.001       32.256   0.100E-07
     TRS4 it   7 1.00000000   0.570E-04       0.001       32.256   0.100E-07
     TRS4 it   8 1.00000000   0.950E-08       0.001       32.256   0.100E-07
     Final TRS4 iteration    8 1.00000000   0.950E-08
     Chemical potential (mu):       0.00612
 
 PAO| energy:  -7.7370717803445848      penalty:   6.9339389811589911E-006
 PAO|LS| adapt:  T T T
 PAO|LS| adapt: scan_steps:    0.0000000000000000       0.68609160383438317        1.3721832076687663     
[...]
 PAO|LS| adapt: scan_steps:    0.0000000000000000       0.20000000000000001        0.0000000000000000     
 PAO|LS| adapt: energies:   -7.7364841580446537       -7.7364841580551857        0.0000000000000000     
 PAO| ======================= Iteration:       879 =============================

     Lanczos converged:  T threshold:   0.100E-02
     Est. extremal eigenvalues:    0.250E+01   0.236E+00
     Est. condition number :    0.106E+02
     NS sqrt iter    1 1.00000000   0.630E+00       0.001       64.512
     NS sqrt iter    2 1.00000000   0.263E+00       0.001      110.592
     NS sqrt iter    3 1.00000000   0.406E-01       0.001      110.592
     NS sqrt iter    4 1.00000000   0.282E-03       0.001      110.592
     NS sqrt iter    5 1.00000000   0.108E-09       0.001       36.864
     Final NS sqrt iter    5 1.00000000   0.638E-11

     Est. extremal eigenvalues     -0.92601     1.35868  converged:  T
     TRS4 it   1 1.00000000   0.800E+00       0.000       16.128   0.100E-07
     TRS4 it   2 1.00000000   0.569E+00       0.001       32.256   0.100E-07
     TRS4 it   3 1.00000000   0.400E+00       0.001       32.256   0.100E-07
     TRS4 it   4 1.00000000   0.237E+00       0.001       32.256   0.100E-07
     TRS4 it   5 1.00000000   0.102E+00       0.001       32.256   0.100E-07
     TRS4 it   6 1.00000000   0.233E-01       0.001       32.256   0.100E-07
     TRS4 it   7 1.00000000   0.162E-02       0.001       32.256   0.100E-07
     TRS4 it   8 1.00000000   0.963E-05       0.001       32.256   0.100E-07
     TRS4 it   9 1.00000000   0.396E-09       0.001       32.256   0.100E-07
     Final TRS4 iteration    9 1.00000000   0.396E-09
     Chemical potential (mu):      -0.07680
 
 PAO| energy:  -7.7364841580520931      penalty:   2.9820960421610396E-011
 PAO|LS| Need extra step
 PAO|LS| adapt:  T T T
 PAO|LS| adapt: scan_steps:    0.0000000000000000       0.20000000000000001       0.40000000000000002     
 PAO|LS| adapt: energies:   -7.7364841580446537       -7.7364841580551857       -7.7364841580520931     
 PAO|LS| adapt: suggested step_size:   0.25460234680573668     
 PAO|LS| adapt: predicted energy  -7.7364841580556929     
 PAO| ======================= Iteration:       880 =============================

     Lanczos converged:  T threshold:   0.100E-02
     Est. extremal eigenvalues:    0.250E+01   0.236E+00
     Est. condition number :    0.106E+02
     NS sqrt iter    1 1.00000000   0.630E+00       0.001       64.512
     NS sqrt iter    2 1.00000000   0.263E+00       0.001      110.592
     NS sqrt iter    3 1.00000000   0.406E-01       0.001      110.592
     NS sqrt iter    4 1.00000000   0.282E-03       0.001      110.592
     NS sqrt iter    5 1.00000000   0.108E-09       0.001       36.864
     Final NS sqrt iter    5 1.00000000   0.638E-11

     Est. extremal eigenvalues     -0.92601     1.35868  converged:  T
     TRS4 it   1 1.00000000   0.800E+00       0.000       16.128   0.100E-07
     TRS4 it   2 1.00000000   0.569E+00       0.001       32.256   0.100E-07
     TRS4 it   3 1.00000000   0.400E+00       0.001       32.256   0.100E-07
     TRS4 it   4 1.00000000   0.237E+00       0.001       32.256   0.100E-07
     TRS4 it   5 1.00000000   0.102E+00       0.001       32.256   0.100E-07
     TRS4 it   6 1.00000000   0.233E-01       0.001       32.256   0.100E-07
     TRS4 it   7 1.00000000   0.162E-02       0.001       32.256   0.100E-07
     TRS4 it   8 1.00000000   0.963E-05       0.001       32.256   0.100E-07
     TRS4 it   9 1.00000000   0.396E-09       0.001       32.256   0.100E-07
     Final TRS4 iteration    9 1.00000000   0.396E-09
     Chemical potential (mu):      -0.07680
 
 PAO| energy:  -7.7364841580556991      penalty:   3.0172583897451450E-011
 PAO|CG| warming up with steepest descent
 PAO|CG| beta:    0.0000000000000000     
 PAO| norm of gradient:   7.1637931279790245E-006
 PAO| energy improvement:  -1.1045386827390757E-011
 PAO| step    880                   -7.736484158  0.448E-06  0.255E+00     0.064
 PAO| converged after          880  steps :-)
 PAO| Recalculating energy after mixing.

     Lanczos converged:  T threshold:   0.100E-02
     Est. extremal eigenvalues:    0.250E+01   0.236E+00
     Est. condition number :    0.106E+02
     NS sqrt iter    1 1.00000000   0.630E+00       0.001       64.512
     NS sqrt iter    2 1.00000000   0.263E+00       0.001      110.592
     NS sqrt iter    3 1.00000000   0.406E-01       0.001      110.592
     NS sqrt iter    4 1.00000000   0.282E-03       0.001      110.592
     NS sqrt iter    5 1.00000000   0.108E-09       0.001       36.864
     Final NS sqrt iter    5 1.00000000   0.638E-11

     Est. extremal eigenvalues     -0.92601     1.35868  converged:  T
     TRS4 it   1 1.00000000   0.800E+00       0.000       16.128   0.100E-07
     TRS4 it   2 1.00000000   0.569E+00       0.001       32.256   0.100E-07
     TRS4 it   3 1.00000000   0.400E+00       0.001       32.256   0.100E-07
     TRS4 it   4 1.00000000   0.237E+00       0.001       32.256   0.100E-07
     TRS4 it   5 1.00000000   0.102E+00       0.001       32.256   0.100E-07
     TRS4 it   6 1.00000000   0.233E-01       0.001       32.256   0.100E-07
     TRS4 it   7 1.00000000   0.162E-02       0.001       32.256   0.100E-07
     TRS4 it   8 1.00000000   0.963E-05       0.001       32.256   0.100E-07
     TRS4 it   9 1.00000000   0.396E-09       0.001       32.256   0.100E-07
     Final TRS4 iteration    9 1.00000000   0.396E-09
     Chemical potential (mu):      -0.07680
 
 PAO| energy:  -7.7364841580529404      penalty:   3.0482157946151627E-011
 PAO| Writing restart file.
     Est. extremal eigenvalues     -0.92601     1.35868  converged:  T
     TRS4 it   1 1.00000000   0.800E+00       0.000       16.128   0.100E-07
     TRS4 it   2 1.00000000   0.569E+00       0.001       32.256   0.100E-07
     TRS4 it   3 1.00000000   0.400E+00       0.001       32.256   0.100E-07
     TRS4 it   4 1.00000000   0.237E+00       0.001       32.256   0.100E-07
     TRS4 it   5 1.00000000   0.102E+00       0.001       32.256   0.100E-07
     TRS4 it   6 1.00000000   0.233E-01       0.001       32.256   0.100E-07
     TRS4 it   7 1.00000000   0.162E-02       0.001       32.256   0.100E-07
     TRS4 it   8 1.00000000   0.963E-05       0.001       32.256   0.100E-07
     TRS4 it   9 1.00000000   0.396E-09       0.001       32.256   0.100E-07
     Final TRS4 iteration    9 1.00000000   0.396E-09
     Chemical potential (mu):      -0.07680

 SCF     1       -34.444353174       -34.444353174    1.899664

*********************************************************
 Using MIXING_FRACTION=0.450 to mix KS matrix:  iscf=  2
 KS_nw=0.450*KS + 0.550*KS_old
*********************************************************
     Est. extremal eigenvalues     -0.92601     1.35868  converged:  T
     TRS4 it   1 1.00000000   0.800E+00       0.000       16.128   0.100E-07
     TRS4 it   2 1.00000000   0.569E+00       0.001       32.256   0.100E-07
     TRS4 it   3 1.00000000   0.400E+00       0.001       32.256   0.100E-07
     TRS4 it   4 1.00000000   0.237E+00       0.001       32.256   0.100E-07
     TRS4 it   5 1.00000000   0.102E+00       0.001       32.256   0.100E-07
     TRS4 it   6 1.00000000   0.233E-01       0.001       32.256   0.100E-07
     TRS4 it   7 1.00000000   0.162E-02       0.001       32.256   0.100E-07
     TRS4 it   8 1.00000000   0.963E-05       0.001       32.256   0.100E-07
     TRS4 it   9 1.00000000   0.396E-09       0.001       32.256   0.100E-07
     Final TRS4 iteration    9 1.00000000   0.396E-09
     Chemical potential (mu):      -0.07680

 SCF     2       -34.444353174        -0.000000000    1.876993

 PAO| Storing density matrix for ASPC guess in slot:           1

 ENERGY| Total FORCE_EVAL ( QS ) energy (a.u.):              -34.444353173837726


 -------------------------------------------------------------------------------
 -                                                                             -
 -                                DBCSR STATISTICS                             -
 -                                                                             -
 -------------------------------------------------------------------------------
 COUNTER                                    TOTAL       BLAS       SMM       ACC
 flops     5 x     5 x     4                32000       0.0%    100.0%      0.0%
 flops    13 x     5 x     4                33280       0.0%    100.0%      0.0%
 flops     5 x    13 x     4                33280       0.0%    100.0%      0.0%
 flops    13 x    13 x     4                64896       0.0%    100.0%      0.0%
 flops     4 x     4 x     5              6888960       0.0%    100.0%      0.0%
 flops     5 x     4 x     5              8438400       0.0%    100.0%      0.0%
 flops     4 x     4 x    13              8955648       0.0%    100.0%      0.0%
 flops    13 x     4 x     5             10969920       0.0%    100.0%      0.0%
 flops     5 x     4 x    13             10969920       0.0%    100.0%      0.0%
 flops     5 x     4 x     4             13159840       0.0%    100.0%      0.0%
 flops    13 x     4 x    13             14260896       0.0%    100.0%      0.0%
 flops    13 x     4 x     4             17208256       0.0%    100.0%      0.0%
 flops     4 x     4 x     4            872452736       0.0%    100.0%      0.0%
 flops inhomo. stacks                           0       0.0%      0.0%      0.0%
 flops total                       963.468032E+06       0.0%    100.0%      0.0%
 flops max/rank                    963.468032E+06       0.0%    100.0%      0.0%
 matmuls inhomo. stacks                         0       0.0%      0.0%      0.0%
 matmuls total                            7099504       0.0%    100.0%      0.0%
 number of processed stacks                 56642       0.0%    100.0%      0.0%
 average stack size                                     0.0     125.3       0.0
 marketing flops                     1.574663E+09
 -------------------------------------------------------------------------------
 # multiplications                          47427
 max memory usage/rank             321.105920E+06
 # max total images/rank                        1
 # max 3D layers                                1
 # MPI messages exchanged                       0
 MPI messages size (bytes):
  total size                         0.000000E+00
  min size                           0.000000E+00
  max size                           0.000000E+00
  average size                       0.000000E+00
 MPI breakdown and total messages size (bytes):
             size <=      128                   0                        0
       128 < size <=     8192                   0                        0
      8192 < size <=    32768                   0                        0
     32768 < size <=   131072                   0                        0
    131072 < size <=  4194304                   0                        0
   4194304 < size <= 16777216                   0                        0
  16777216 < size                               0                        0
 -------------------------------------------------------------------------------

 MEMORY| Estimated peak process memory [MiB]                                 307

 -------------------------------------------------------------------------------
 -                                                                             -
 -                           R E F E R E N C E S                               -
 -                                                                             -
 -------------------------------------------------------------------------------
 
 CP2K version 7.0 (Development Version), the CP2K developers group (2018).
 CP2K is freely available from https://www.cp2k.org/ .

 Schuett, O; VandeVondele, J. 
 Journal of Chemical Theory and Computation, 14, (2018). 
 Machine Learning Adaptive Basis Sets for Efficient Large Scale Density Functional Theory Simulation.
 https://dx.doi.org/10.1021/acs.jctc.8b00378


 Schuett, Ole; Messmer, Peter; Hutter, Juerg; VandeVondele, Joost. 
 Electronic Structure Calculations on Graphics Processing Units, John Wiley & Sons, Ltd, 173-190 (2016). 
 GPU-Accelerated Sparse Matrix-Matrix Multiplication for Linear Scaling Density Functional Theory.
 https://dx.doi.org/10.1002/9781118670712.ch8


 Borstnik, U; VandeVondele, J; Weber, V; Hutter, J. 
 PARALLEL COMPUTING, 40 (5-6), 47-58 (2014). 
 Sparse matrix multiplication: The distributed block-compressed sparse
 row library.
 https://dx.doi.org/10.1016/j.parco.2014.03.012


 Hutter, J; Iannuzzi, M; Schiffmann, F; VandeVondele, J. 
 WILEY INTERDISCIPLINARY REVIEWS-COMPUTATIONAL MOLECULAR SCIENCE, 4 (1), 15-25 (2014). 
 CP2K: atomistic simulations of condensed matter systems.
 https://dx.doi.org/10.1002/wcms.1159


 VandeVondele, J; Borstnik, U; Hutter, J. 
 JOURNAL OF CHEMICAL THEORY AND COMPUTATION, 8 (10), 3565-3573 (2012). 
 Linear Scaling Self-Consistent Field Calculations with Millions of Atoms
 in the Condensed Phase.
 https://dx.doi.org/10.1021/ct200897x


 VandeVondele, J; Hutter, J. 
 JOURNAL OF CHEMICAL PHYSICS, 127 (11), 114105 (2007). 
 Gaussian basis sets for accurate calculations on molecular systems in
 gas and condensed phases.
 https://dx.doi.org/10.1063/1.2770708


 Krack, M. 
 THEORETICAL CHEMISTRY ACCOUNTS, 114 (1-3), 145-152 (2005). 
 Pseudopotentials for H to Kr optimized for gradient-corrected
 exchange-correlation functionals.
 https://dx.doi.org/10.1007/s00214-005-0655-y


 VandeVondele, J; Krack, M; Mohamed, F; Parrinello, M; Chassaing, T;
 Hutter, J. COMPUTER PHYSICS COMMUNICATIONS, 167 (2), 103-128 (2005). 
 QUICKSTEP: Fast and accurate density functional calculations using a
 mixed Gaussian and plane waves approach.
 https://dx.doi.org/10.1016/j.cpc.2004.12.014


 Frigo, M; Johnson, SG. 
 PROCEEDINGS OF THE IEEE, 93 (2), 216-231 (2005). 
 The design and implementation of FFTW3.
 https://dx.doi.org/10.1109/JPROC.2004.840301


 Niklasson, AMN; Tymczak, CJ; Challacombe, M. 
 JOURNAL OF CHEMICAL PHYSICS, 118 (19), 8611-8620 (2003). 
 Trace resetting density matrix purification in O(N)
 self-consistent-field theory.
 https://dx.doi.org/10.1063/1.1559913


 Hartwigsen, C; Goedecker, S; Hutter, J. 
 PHYSICAL REVIEW B, 58 (7), 3641-3662 (1998). 
 Relativistic separable dual-space Gaussian pseudopotentials from H to Rn.
 https://dx.doi.org/10.1103/PhysRevB.58.3641


 Lippert, G; Hutter, J; Parrinello, M. 
 MOLECULAR PHYSICS, 92 (3), 477-487 (1997). 
 A hybrid Gaussian and plane wave density functional scheme.
 https://dx.doi.org/10.1080/002689797170220


 Perdew, JP; Burke, K; Ernzerhof, M. 
 PHYSICAL REVIEW LETTERS, 77 (18), 3865-3868 (1996). 
 Generalized gradient approximation made simple.
 https://dx.doi.org/10.1103/PhysRevLett.77.3865


 Goedecker, S; Teter, M; Hutter, J. 
 PHYSICAL REVIEW B, 54 (3), 1703-1710 (1996). 
 Separable dual-space Gaussian pseudopotentials.
 https://dx.doi.org/10.1103/PhysRevB.54.1703


 -------------------------------------------------------------------------------
 -                                                                             -
 -                                T I M I N G                                  -
 -                                                                             -
 -------------------------------------------------------------------------------
 SUBROUTINE                       CALLS  ASD         SELF TIME        TOTAL TIME
                                MAXIMUM       AVERAGE  MAXIMUM  AVERAGE  MAXIMUM
 CP2K                                 1  1.0    0.027    0.027   45.084   45.084
 qs_energies                          1  2.0    0.000    0.000   44.715   44.715
 ls_scf                               1  3.0    0.000    0.000   44.615   44.615
 ls_scf_main                          7  4.0    0.001    0.001   28.336   28.336
 ls_scf_dm_to_ks                     15  5.0    0.000    0.000   28.219   28.219
 qs_ks_update_qs_env                 16  6.0    0.000    0.000   21.276   21.276
 rebuild_ks_matrix                   16  7.0    0.000    0.000   21.276   21.276
 qs_ks_build_kohn_sham_matrix        16  8.0    0.002    0.002   21.276   21.276
 pao_update                           7  4.0    0.018    0.018   14.262   14.262
 pao_calc_energy                    886  5.0    0.007    0.007   12.889   12.889
 qs_vxc_create                       16  9.0    0.000    0.000   11.997   11.997
 xc_vxc_pw_create                    16 10.0    0.196    0.196   11.997   11.997
 dbcsr_multiply_generic           47427  8.4    0.814    0.814   10.494   10.494
 qs_rho_update_rho                   16  6.0    0.000    0.000    8.880    8.880
 calculate_rho_elec                  16  7.0    7.228    7.228    8.880    8.880
 xc_rho_set_and_dset_create          16 11.0    0.074    0.074    8.762    8.762
 sum_up_and_integrate                16  9.0    0.034    0.034    7.987    7.987
 integrate_v_rspace                  16 10.0    7.066    7.066    7.953    7.953
 pw_transfer                        305 10.6    0.020    0.020    7.592    7.592
 fft_wrap_pw1pw2                    273 11.7    0.003    0.003    7.428    7.428
 fft_wrap_pw1pw2_200                177 12.8    0.606    0.606    7.109    7.109
 pao_dm_trs4                        886  6.0    0.004    0.004    6.679    6.679
 density_matrix_trs4                901  7.0    0.349    0.349    6.381    6.381
 ls_scf_init_matrix_S               893  7.0    0.005    0.005    6.186    6.186
 pao_rebuild_S                      886  6.0    0.004    0.004    6.140    6.140
 xc_functional_eval                  16 12.0    0.000    0.000    6.030    6.030
 pbe_lda_eval                        16 13.0    6.030    6.030    6.030    6.030
 matrix_sqrt_Newton_Schulz          893  8.0    0.226    0.226    5.558    5.558
 fft3d_s                            274 13.6    4.148    4.148    4.159    4.159
 multiply_cannon                  47427  9.4    1.823    1.823    4.041    4.041
 make_m2s                         94854  9.4    0.276    0.276    3.878    3.878
 make_images                      94854 10.4    1.025    1.025    3.446    3.446
 pao_guess_initial_P                  1  4.0    0.000    0.000    1.944    1.944
 pao_read_preopt_dm                   1  5.0    0.000    0.000    1.944    1.944
 arnoldi_extremal                  1794  8.5    0.007    0.007    1.711    1.711
 arnoldi_normal_ev                 1794  9.5    0.018    0.018    1.704    1.704
 density_rs2pw                       16  8.0    0.001    0.001    1.625    1.625
 pw_scatter_s                       144 14.2    1.345    1.345    1.345    1.345
 pao_calc_AB                       1168  5.8    0.001    0.001    1.342    1.342
 pao_calc_AB_direct                1168  6.8    0.042    0.042    1.340    1.340
 pw_gather_s                        129 13.1    1.289    1.289    1.289    1.289
 build_subspace                    1794 10.5    0.105    0.105    1.275    1.275
 pao_calc_grad_lnv_wrt_AB           281  7.0    0.013    0.013    1.250    1.250
 dbcsr_matrix_vector_mult         42755 11.5    0.207    0.207    1.124    1.124
 dbcsr_create_new                363022 10.7    0.629    0.629    1.122    1.122
 dbcsr_finalize                  112214  9.6    0.211    0.211    1.092    1.092
 -------------------------------------------------------------------------------

 The number of warnings for this run is : 0
 
 -------------------------------------------------------------------------------
  **** **** ******  **  PROGRAM ENDED AT                 2019-02-14 11:08:40.693
 ***** ** ***  *** **   PROGRAM RAN ON                                      otto
 **    ****   ******    PROGRAM RAN BY                                       ole
 ***** **    ** ** **   PROGRAM PROCESS ID                                  7744
  **** **  *******  **  PROGRAM STOPPED IN /home/ole/git/pao_ml_equivar/2H2O_MD/
                                           frame_1475
