 DBCSR| CPU Multiplication driver                                           XSMM (U)
 DBCSR| Multrec recursion limit                                              512 (U)
 DBCSR| Multiplication stack size                                           1000 (D)
 DBCSR| Maximum elements for images                                    UNLIMITED (U)
 DBCSR| Multiplicative factor virtual images                                   1 (U)
 DBCSR| Use multiplication densification                                       T (D)
 DBCSR| Multiplication size stacks                                             3 (U)
 DBCSR| Use memory pool for CPU allocation                                     F (U)
 DBCSR| OMP: Current number of threads                                         1
 DBCSR| OMP: Max number of threads                                             1
 DBCSR| Split modifier for TAS multiplication algorithm                  1.0E+00 (U)


  **** **** ******  **  PROGRAM STARTED AT               2023-02-01 10:47:55.389
 ***** ** ***  *** **   PROGRAM STARTED ON                                moritz
 **    ****   ******    PROGRAM STARTED BY                                   ole
 ***** **    ** ** **   PROGRAM PROCESS ID                                148786
  **** **  *******  **  PROGRAM STARTED IN /home/ole/git/pao_ml_equivar/2H2O_MD/
                                           frame_1475

 CP2K| version string:                 CP2K version 2023.1 (Development Version)
 CP2K| source code revision number:                                  git:03b4147
 CP2K| cp2kflags: omp libint fftw3 libxc quip xsmm spglib libvori libbqb libtorc
 CP2K|            h
 CP2K| is freely available from                            https://www.cp2k.org/
 CP2K| Program compiled at                           Mi 01 Feb 2023 10:36:52 CET
 CP2K| Program compiled on                                                moritz
 CP2K| Program compiled for                                                local
 CP2K| Data directory path                               /home/ole/git/cp2k/data
 CP2K| Input file name                                            2H2O_pao44.inp

 GLOBAL| Force Environment number                                              1
 GLOBAL| Basis set file name                                        BASIS_MOLOPT
 GLOBAL| Potential file name                                      GTH_POTENTIALS
 GLOBAL| MM Potential file name                                     MM_POTENTIAL
 GLOBAL| Coordinate file name                                         coords.xyz
 GLOBAL| Method name                                                        CP2K
 GLOBAL| Project name                                                 2H2O_pao44
 GLOBAL| Run type                                                         ENERGY
 GLOBAL| FFT library                                                       FFTW3
 GLOBAL| Diagonalization library                                       ScaLAPACK
 GLOBAL| DGEMM library                                                      BLAS
 GLOBAL| Orthonormality check for eigenvectors                          DISABLED
 GLOBAL| Matrix multiplication library                                 ScaLAPACK
 GLOBAL| All-to-all communication in single precision                          F
 GLOBAL| FFTs using library dependent lengths                                  F
 GLOBAL| Grid backend                                                       AUTO
 GLOBAL| Global print level                                                  LOW
 GLOBAL| MPI I/O enabled                                                       T
 GLOBAL| Total number of message passing processes                             1
 GLOBAL| Number of threads for this process                                    1
 GLOBAL| This output is from process                                           0
 GLOBAL| Stack size for threads created by OpenMP (OMP_STACKSIZE)        default
 GLOBAL| CPU model name           AMD Ryzen Threadripper 3970X 32-Core Processor
 GLOBAL| CPUID                                                              1002
 GLOBAL| Compiled for CPUID                                                    0

 *** HINT in environment.F:884 :: The compiler target flags (generic) used ***
 *** to build this binary cannot exploit all extensions of this CPU model  ***
 *** (x86_avx2). Consider compiler target flags as part of FCFLAGS and     ***
 *** CFLAGS (ARCH file).                                                   ***


 MEMORY| system memory details [Kb]
 MEMORY|                        rank 0           min           max       average
 MEMORY| MemTotal            131773860     131773860     131773860     131773860
 MEMORY| MemFree             115273248     115273248     115273248     115273248
 MEMORY| Buffers                302624        302624        302624        302624
 MEMORY| Cached                7056636       7056636       7056636       7056636
 MEMORY| Slab                   780228        780228        780228        780228
 MEMORY| SReclaimable           332704        332704        332704        332704
 MEMORY| MemLikelyFree       122965212     122965212     122965212     122965212


 GENERATE|  Preliminary Number of Bonds generated:                             0
 GENERATE|  Achieved consistency in connectivity generation.

 *******************************************************************************
 *******************************************************************************
 **                                                                           **
 **     #####                         ##              ##                      **
 **    ##   ##            ##          ##              ##                      **
 **   ##     ##                       ##            ######                    **
 **   ##     ##  ##   ##  ##   #####  ##  ##   ####   ##    #####    #####    **
 **   ##     ##  ##   ##  ##  ##      ## ##   ##      ##   ##   ##  ##   ##   **
 **   ##  ## ##  ##   ##  ##  ##      ####     ###    ##   ######   ######    **
 **    ##  ###   ##   ##  ##  ##      ## ##      ##   ##   ##       ##        **
 **     #######   #####   ##   #####  ##  ##  ####    ##    #####   ##        **
 **           ##                                                    ##        **
 **                                                                           **
 **                                                ... make the atoms dance   **
 **                                                                           **
 **            Copyright (C) by CP2K developers group (2000-2023)             **
 **                      J. Chem. Phys. 152, 194103 (2020)                    **
 **                                                                           **
 *******************************************************************************


 TOTAL NUMBERS AND MAXIMUM NUMBERS

  Total number of            - Atomic kinds:                                   2
                             - Atoms:                                          6
                             - Shell sets:                                     6
                             - Shells:                                        22
                             - Primitive Cartesian functions:                 42
                             - Cartesian basis functions:                     48
                             - Spherical basis functions:                     46

  Maximum angular momentum of- Orbital basis functions:                        2
                             - Local part of the GTH pseudopotential:          2
                             - Non-local part of the GTH pseudopotential:      0

 ------------------------------ Linear scaling SCF -----------------------------
 eps_scf:                                                              0.100E-07
 eps_filter:                                                           0.100E-07
 mixing_fraction:                                                      0.450E+00
 max_scf:                                                                     25
 fixed chemical potential (mu)                                                 F
 has unit metric:                                                              F
 Computing inv(S):                                                             T
 Computing sqrt(S):                                                            T
 Computing S preconditioner                                                    F
 S sqrt method:                                                     NEWTONSCHULZ
 S sqrt order:                                                                 3
 Extrapolation order:                                                          1
 Use single precision matrices                                                 F
 S preconditioner type                                                      NONE
 Polarized Atomic Orbitals (PAO)                                               T
 Purification method                                   Trace resetting 4th order
 Cluster type                                                             ATOMIC
 Computing Chebyshev                                                       FALSE
 Using PAO                                                                     T
 -------------------------------------------------------------------------------

 
 PAO|                                  EPS_PAO                           0.5E-06
 PAO|                                  MIXING                            0.5E+00
 PAO|                                  MAX_PAO                              1500
 PAO|                                  MAX_CYCLES                           1000
 PAO|                                  PARAMETERIZATION              EQUIVARIANT
 PAO|                                  PRECONDITION                            F
 PAO|                                  REGULARIZATION                    0.0E+00
 PAO|                                  EPS_PGF                           0.1E-09
 PAO|                                  PENALTY_DISTANCE                  0.1E+00
 PAO|                                  PENALTY_STRENGTH                  0.5E-02
 PAO|                                  LINPOT_PRECONDITION_DELTA         0.0E+00
 PAO|                                  LINPOT_INITGUESS_DELT             0.0E+00
 PAO|                                  LINPOT_REGULARIZATION_DELTA       0.0E+00
 PAO|                                  LINPOT_REGULARIZATION_STRENGTH    0.0E+00
 PAO|                                  OPTIMIZER                              CG
 PAO|                                  CG_INIT_STEPS                           2
 PAO|                                  CG_RESET_LIMIT                    0.1E+00
 PAO|                                  CHECK_UNITARY_TOL                -0.1E+01
 PAO|                                  CHECK_GRADIENT_TOL               -0.1E+01
 PAO|                                  NUM_GRADIENT_ORDER                      2
 PAO|                                  NUM_GRADIENT_EPS                  0.1E-07
 PAO|                                  PRINT%RESTART%WRITE_CYCLES            100
 PAO|                                  RESTART_FILE 
 PAO|                                  PREOPT_DM_FILE 2H2O_ref_LS_DM_SPIN_1_RESTART.dm
 PAO|                                  MACHINE_LEARNING%METHOD       GAUSSIAN_PR
 PAO|                                  MACHINE_LEARNING%PRIOR               ZERO
 PAO|                                  MACHINE_LEARNING%DESCRIPTOR     POTENTIAL
 PAO|                                  MACHINE_LEARNING%TOLERANCE        0.1E-01
 PAO|                                  MACHINE_LEARNING%GP_NOISE_VAR     0.1E+00
 PAO|                                  MACHINE_LEARNING%GP_SCALE         0.5E-01
 

 Calculating atomic Fock matrix for atomic kind: O

 Electronic structure
    Total number of core electrons                                          2.00
    Total number of valence electrons                                       6.00
    Total number of electrons                                               8.00
    Multiplicity                                                   not specified
    S   [  2.00] 2.00
    P      4.00


 *******************************************************************************
                  Iteration          Convergence                     Energy [au]
 *******************************************************************************
                          1        0.708315                     -15.576645311500
                          2        0.608879                     -15.587933561584
                          3        0.102828E-01                 -15.656849565404
                          4        0.113889E-02                 -15.656866888140
                          5        0.434197E-03                 -15.656867072159
                          6        0.263771E-03                 -15.656867091904
                          7        0.478536E-06                 -15.656867103452

 Energy components [Hartree]           Total Energy ::          -15.656867103452
                                        Band Energy ::           -3.000198112285
                                     Kinetic Energy ::           11.759971203220
                                   Potential Energy ::          -27.416838306672
                                      Virial (-V/T) ::            2.331369510426
                                        Core Energy ::          -26.140716385623
                                          XC Energy ::           -3.154051012914
                                     Coulomb Energy ::           13.637900295084
                       Total Pseudopotential Energy ::          -37.935781716540
                       Local Pseudopotential Energy ::          -39.218907440693
                    Nonlocal Pseudopotential Energy ::            1.283125724153
                                        Confinement ::            0.350941276976

 Orbital energies  State     L     Occupation   Energy[a.u.]          Energy[eV]

                       1     0          2.000      -0.864471          -23.523463

                       1     1          4.000      -0.317814           -8.648154


 Total Electron Density at R=0:                                         0.000068

 Calculating atomic Fock matrix for atomic kind: H

 Electronic structure
    Total number of core electrons                                          0.00
    Total number of valence electrons                                       1.00
    Total number of electrons                                               1.00
    Multiplicity                                                   not specified
    S      1.00


 *******************************************************************************
                  Iteration          Convergence                     Energy [au]
 *******************************************************************************
                          1        0.437545E-02                  -0.424159432110
                          2        0.531356E-03                  -0.424178438213
                          3        0.259176E-06                  -0.424178722480

 Energy components [Hartree]           Total Energy ::           -0.424178722480
                                        Band Energy ::           -0.199015229016
                                     Kinetic Energy ::            0.464007633961
                                   Potential Energy ::           -0.888186356441
                                      Virial (-V/T) ::            1.914163240935
                                        Core Energy ::           -0.479160803564
                                          XC Energy ::           -0.244352904054
                                     Coulomb Energy ::            0.299334985138
                       Total Pseudopotential Energy ::           -0.962295316385
                       Local Pseudopotential Energy ::           -0.962295316385
                    Nonlocal Pseudopotential Energy ::            0.000000000000
                                        Confinement ::            0.191268788606

 Orbital energies  State     L     Occupation   Energy[a.u.]          Energy[eV]

                       1     0          1.000      -0.199015           -5.415480


 Total Electron Density at R=0:                                         0.242907
 PAO| Made initial guess for matrix_X with norm:   4.8989794855663558     

     Lanczos converged:  T threshold:   0.100E-02
     Est. extremal eigenvalues:    0.323E+01   0.118E+00
     Est. condition number :    0.273E+02

 Order=           3
     NS sqrt iter    1 1.00000000   0.788E+00       0.001       63.573
     NS sqrt iter    2 1.00000000   0.418E+00       0.001      110.592
     NS sqrt iter    3 1.00000000   0.156E+00       0.001      110.592
     NS sqrt iter    4 1.00000000   0.166E-01       0.001      110.592
     NS sqrt iter    5 1.00000000   0.294E-04       0.001       83.840
     Symmetrizing Results
     Final NS sqrt iter    5 1.00000000   0.140E-08

 PAO| Read restart DM 2H2O_ref_LS_DM_SPIN_1_RESTART.dm with checksum:    67.252459335883700     
 PAO| Quickstep energy from restart density:  -34.444511316170029     
 PAO| ======================= Iteration:         1 =============================

     Lanczos converged:  T threshold:   0.100E-02
     Est. extremal eigenvalues:    0.323E+01   0.118E+00
     Est. condition number :    0.273E+02

 Order=           3
     NS sqrt iter    1 1.00000000   0.788E+00       0.001       58.063
     NS sqrt iter    2 1.00000000   0.418E+00       0.017        6.451
     NS sqrt iter    3 1.00000000   0.156E+00       0.001      102.877
     NS sqrt iter    4 1.00000000   0.166E-01       0.001      100.225
     NS sqrt iter    5 1.00000000   0.294E-04       0.001       77.247
     Symmetrizing Results
     Final NS sqrt iter    5 1.00000000   0.140E-08

     Est. extremal eigenvalues     -0.90897     1.68747  converged:  T
     TRS4 it   1 1.00000000   0.850E+00       0.000       16.128   0.100E-07
     TRS4 it   2 1.00000000   0.650E+00       0.001       32.256   0.100E-07
     TRS4 it   3 1.00000000   0.478E+00       0.001       32.256   0.100E-07
     TRS4 it   4 1.00000000   0.299E+00       0.001       32.256   0.100E-07
     TRS4 it   5 1.00000000   0.144E+00       0.001       32.256   0.100E-07
     TRS4 it   6 1.00000000   0.403E-01       0.001       32.256   0.100E-07
     TRS4 it   7 1.00000000   0.410E-02       0.001       32.256   0.100E-07
     TRS4 it   8 1.00000000   0.550E-04       0.001       32.256   0.100E-07
     TRS4 it   9 1.00000000   0.122E-07       0.001       32.256   0.100E-07
     Final TRS4 iteration    9 1.00000000   0.122E-07
     Chemical potential (mu):      -0.06660
 
 PAO| energy:  -7.5616217844080458      penalty:   1.9105225048321380E-033
 PAO|CG| warming up with steepest descent
 PAO|CG| beta:    0.0000000000000000     
 PAO| norm of gradient:  0.78621492715898134     
 PAO|LS| adapt:  T F F
 PAO|LS| adapt: scan_steps:    0.0000000000000000        0.0000000000000000        0.0000000000000000     
 PAO|LS| adapt: energies:   -7.5616217844080458        0.0000000000000000        0.0000000000000000     
 PAO| ======================= Iteration:         2 =============================

     Lanczos converged:  T threshold:   0.100E-02
     Est. extremal eigenvalues:    0.316E+01   0.135E+00
     Est. condition number :    0.235E+02

 Order=           3
     NS sqrt iter    1 1.00000000   0.776E+00       0.001       57.601
     NS sqrt iter    2 1.00000000   0.404E+00       0.001       97.931
     NS sqrt iter    3 1.00000000   0.139E+00       0.001       99.903
     NS sqrt iter    4 1.00000000   0.110E-01       0.001       97.583
     NS sqrt iter    5 1.00000000   0.790E-05       0.001       75.833
     Symmetrizing Results
     Final NS sqrt iter    5 1.00000000   0.170E-09

     Est. extremal eigenvalues     -0.91272     1.63566  converged:  T
     TRS4 it   1 1.00000000   0.843E+00       0.000       16.128   0.100E-07
     TRS4 it   2 1.00000000   0.630E+00       0.001       32.256   0.100E-07
     TRS4 it   3 1.00000000   0.457E+00       0.017        1.929   0.100E-07
     TRS4 it   4 1.00000000   0.273E+00       0.001       32.256   0.100E-07
     TRS4 it   5 1.00000000   0.121E+00       0.001       32.256   0.100E-07
     TRS4 it   6 1.00000000   0.288E-01       0.001       32.256   0.100E-07
     TRS4 it   7 1.00000000   0.212E-02       0.001       32.256   0.100E-07
     TRS4 it   8 1.00000000   0.148E-04       0.001       32.256   0.100E-07
     TRS4 it   9 1.00000000   0.898E-09       0.001       32.256   0.100E-07
     Final TRS4 iteration    9 1.00000000   0.898E-09
     Chemical potential (mu):      -0.05476
 
 PAO| energy:  -7.6172695973834053      penalty:   2.2819395188347670E-008
 PAO|LS| adapt:  T T F
 PAO|LS| adapt: scan_steps:    0.0000000000000000       0.10000000000000001        0.0000000000000000     
 PAO|LS| adapt: energies:   -7.5616217844080458       -7.6172695973834053        0.0000000000000000     
 PAO| ======================= Iteration:         3 =============================

     Lanczos converged:  T threshold:   0.100E-02
     Est. extremal eigenvalues:    0.308E+01   0.150E+00
     Est. condition number :    0.206E+02

 Order=           3
     NS sqrt iter    1 1.00000000   0.762E+00       0.001       57.909
     NS sqrt iter    2 1.00000000   0.389E+00       0.001       98.467
     NS sqrt iter    3 1.00000000   0.123E+00       0.001       99.873
     NS sqrt iter    4 1.00000000   0.733E-02       0.001       96.714
     NS sqrt iter    5 1.00000000   0.213E-05       0.001       75.529
     Symmetrizing Results
     Final NS sqrt iter    5 1.00000000   0.653E-10

     Est. extremal eigenvalues     -0.91619     1.59835  converged:  T
     TRS4 it   1 1.00000000   0.839E+00       0.000       16.128   0.100E-07
     TRS4 it   2 1.00000000   0.614E+00       0.001       32.256   0.100E-07
     TRS4 it   3 1.00000000   0.437E+00       0.001       32.256   0.100E-07
     TRS4 it   4 1.00000000   0.250E+00       0.001       32.256   0.100E-07
     TRS4 it   5 1.00000000   0.101E+00       0.001       32.256   0.100E-07
     TRS4 it   6 1.00000000   0.200E-01       0.001       32.256   0.100E-07
     TRS4 it   7 1.00000000   0.101E-02       0.001       32.256   0.100E-07
     TRS4 it   8 1.00000000   0.340E-05       0.001       32.256   0.100E-07
     TRS4 it   9 1.00000000   0.479E-10       0.001       32.256   0.100E-07
     Final TRS4 iteration    9 1.00000000   0.479E-10
     Chemical potential (mu):      -0.04197
 
 PAO| energy:  -7.6599858776729572      penalty:   3.6511032458898407E-007
 PAO|LS| adapt:  T T F
 PAO|LS| adapt: scan_steps:    0.0000000000000000       0.20000000000000001        0.0000000000000000     
 PAO|LS| adapt: energies:   -7.5616217844080458       -7.6599858776729572        0.0000000000000000     
 PAO| ======================= Iteration:         4 =============================

     Lanczos converged:  T threshold:   0.100E-02
     Est. extremal eigenvalues:    0.291E+01   0.170E+00
     Est. condition number :    0.171E+02

 Order=           3
     NS sqrt iter    1 1.00000000   0.731E+00       0.001       57.644
     NS sqrt iter    2 1.00000000   0.357E+00       0.001       97.784
     NS sqrt iter    3 1.00000000   0.951E-01       0.001       96.462
     NS sqrt iter    4 1.00000000   0.338E-02       0.001       98.072
     NS sqrt iter    5 1.00000000   0.239E-06       0.001       71.613
     Symmetrizing Results
     Final NS sqrt iter    5 1.00000000   0.639E-09

     Est. extremal eigenvalues     -0.92146     1.55352  converged:  T
     TRS4 it   1 1.00000000   0.836E+00       0.000       16.128   0.100E-07
     TRS4 it   2 1.00000000   0.590E+00       0.001       32.256   0.100E-07
     TRS4 it   3 1.00000000   0.402E+00       0.001       32.256   0.100E-07
     TRS4 it   4 1.00000000   0.209E+00       0.001       32.256   0.100E-07
     TRS4 it   5 1.00000000   0.692E-01       0.001       32.256   0.100E-07
     TRS4 it   6 1.00000000   0.905E-02       0.001       32.256   0.100E-07
     TRS4 it   7 1.00000000   0.198E-03       0.001       32.256   0.100E-07
     TRS4 it   8 1.00000000   0.130E-06       0.001       32.256   0.100E-07
     TRS4 it   9 1.00000000   0.716E-13       0.001       32.256   0.100E-07
     Final TRS4 iteration    9 1.00000000   0.716E-13
     Chemical potential (mu):      -0.01497
 
 PAO| energy:  -7.7053028154289462      penalty:   5.8417652060282459E-006
 PAO|LS| Need extra step
 PAO|LS| adapt:  T T F
 PAO|LS| adapt: scan_steps:    0.0000000000000000       0.40000000000000002        0.0000000000000000     
 PAO|LS| adapt: energies:   -7.5616217844080458       -7.7053028154289462        0.0000000000000000     
 PAO| ======================= Iteration:         5 =============================

     Lanczos converged:  T threshold:   0.100E-02
     Est. extremal eigenvalues:    0.258E+01   0.196E+00
     Est. condition number :    0.132E+02

 Order=           3
     NS sqrt iter    1 1.00000000   0.671E+00       0.001       64.512
     NS sqrt iter    2 1.00000000   0.296E+00       0.001      109.645
     NS sqrt iter    3 1.00000000   0.574E-01       0.001      109.092
     NS sqrt iter    4 1.00000000   0.882E-03       0.001      110.592
     NS sqrt iter    5 1.00000000   0.494E-08       0.001       37.888
     Symmetrizing Results
     Final NS sqrt iter    5 1.00000000   0.969E-09

     Est. extremal eigenvalues     -0.92218     1.51929  converged:  T
     TRS4 it   1 1.00000000   0.840E+00       0.000       16.128   0.100E-07
     TRS4 it   2 1.00000000   0.561E+00       0.001       32.256   0.100E-07
     TRS4 it   3 1.00000000   0.352E+00       0.001       32.256   0.100E-07
     TRS4 it   4 1.00000000   0.152E+00       0.001       32.256   0.100E-07
     TRS4 it   5 1.00000000   0.344E-01       0.001       32.256   0.100E-07
     TRS4 it   6 1.00000000   0.206E-02       0.001       32.256   0.100E-07
     TRS4 it   7 1.00000000   0.932E-05       0.001       32.256   0.100E-07
     TRS4 it   8 1.00000000   0.271E-09       0.001       32.256   0.100E-07
     Final TRS4 iteration    8 1.00000000   0.271E-09
     Chemical potential (mu):       0.02847
 
 PAO| energy:  -7.6431881959289045      penalty:   9.3468243397286423E-005
 PAO|LS| Need extra step
 PAO|LS| adapt:  T T T
 PAO|LS| adapt: scan_steps:    0.0000000000000000       0.40000000000000002       0.80000000000000004     
 PAO|LS| adapt: energies:   -7.5616217844080458       -7.7053028154289462       -7.6431881959289045     
 PAO|LS| adapt: suggested step_size:   0.47926932499728259     
 PAO|LS| adapt: predicted energy  -7.7093438869187647     
 PAO| ======================= Iteration:         6 =============================

     Lanczos converged:  T threshold:   0.100E-02
     Est. extremal eigenvalues:    0.284E+01   0.176E+00
     Est. condition number :    0.162E+02

 Order=           3
     NS sqrt iter    1 1.00000000   0.718E+00       0.001       58.216
     NS sqrt iter    2 1.00000000   0.344E+00       0.001       96.369
     NS sqrt iter    3 1.00000000   0.858E-01       0.001       97.823
     NS sqrt iter    4 1.00000000   0.255E-02       0.001       97.108
     NS sqrt iter    5 1.00000000   0.115E-06       0.001       66.148
     Symmetrizing Results
     Final NS sqrt iter    5 1.00000000   0.335E-09

     Est. extremal eigenvalues     -0.92273     1.54281  converged:  T
     TRS4 it   1 1.00000000   0.836E+00       0.000       16.128   0.100E-07
     TRS4 it   2 1.00000000   0.582E+00       0.001       32.256   0.100E-07
     TRS4 it   3 1.00000000   0.390E+00       0.001       32.256   0.100E-07
     TRS4 it   4 1.00000000   0.195E+00       0.001       32.256   0.100E-07
     TRS4 it   5 1.00000000   0.596E-01       0.001       32.256   0.100E-07
     TRS4 it   6 1.00000000   0.658E-02       0.001       32.256   0.100E-07
     TRS4 it   7 1.00000000   0.101E-03       0.001       32.256   0.100E-07
     TRS4 it   8 1.00000000   0.338E-07       0.001       32.256   0.100E-07
     Final TRS4 iteration    8 1.00000000   0.338E-07
     Chemical potential (mu):      -0.00442
 
 PAO| energy:  -7.7086207550181616      penalty:   1.2039894080195731E-005
 PAO|CG| warming up with steepest descent
 PAO|CG| beta:    0.0000000000000000     
 PAO| norm of gradient:  0.41421922673465422     
 PAO| energy improvement: -0.14699897061011580     
 PAO| step      6                   -7.708620755  0.259E-01  0.479E+00     0.123
 PAO|LS| adapt:  T F F
 PAO|LS| adapt: scan_steps:    0.0000000000000000        0.0000000000000000        0.0000000000000000     
 PAO|LS| adapt: energies:   -7.7086207550181616        0.0000000000000000        0.0000000000000000     
 PAO| ======================= Iteration:         7 =============================

     Lanczos converged:  T threshold:   0.100E-02
     Est. extremal eigenvalues:    0.276E+01   0.193E+00
     Est. condition number :    0.143E+02

 Order=           3
     NS sqrt iter    1 1.00000000   0.701E+00       0.001       58.152
     NS sqrt iter    2 1.00000000   0.323E+00       0.001       96.936
     NS sqrt iter    3 1.00000000   0.708E-01       0.001       98.530
     NS sqrt iter    4 1.00000000   0.145E-02       0.001       96.610
     NS sqrt iter    5 1.00000000   0.219E-07       0.001       48.907
     Symmetrizing Results
     Final NS sqrt iter    5 1.00000000   0.412E-08

     Est. extremal eigenvalues     -0.92459     1.53050  converged:  T
     TRS4 it   1 1.00000000   0.835E+00       0.000       16.128   0.100E-07
     TRS4 it   2 1.00000000   0.580E+00       0.001       32.256   0.100E-07
     TRS4 it   3 1.00000000   0.389E+00       0.001       32.256   0.100E-07
     TRS4 it   4 1.00000000   0.194E+00       0.001       32.256   0.100E-07
     TRS4 it   5 1.00000000   0.593E-01       0.001       32.256   0.100E-07
     TRS4 it   6 1.00000000   0.639E-02       0.001       32.256   0.100E-07
     TRS4 it   7 1.00000000   0.909E-04       0.001       32.256   0.100E-07
     TRS4 it   8 1.00000000   0.246E-07       0.001       32.256   0.100E-07
     Final TRS4 iteration    8 1.00000000   0.246E-07
     Chemical potential (mu):      -0.00331
 
 PAO| energy:  -7.7061348859469465      penalty:   1.8009947768413257E-005
 PAO|LS| adapt:  T F T
 PAO|LS| adapt: scan_steps:    0.0000000000000000        0.0000000000000000       0.47926932499728259     
 PAO|LS| adapt: energies:   -7.7086207550181616        0.0000000000000000       -7.7061348859469465     
 PAO| ======================= Iteration:         8 =============================

     Lanczos converged:  T threshold:   0.100E-02
     Est. extremal eigenvalues:    0.280E+01   0.184E+00
     Est. condition number :    0.152E+02

 Order=           3
     NS sqrt iter    1 1.00000000   0.710E+00       0.001       57.628
     NS sqrt iter    2 1.00000000   0.334E+00       0.001       98.798
     NS sqrt iter    3 1.00000000   0.781E-01       0.001       96.646
     NS sqrt iter    4 1.00000000   0.193E-02       0.001       96.676
     NS sqrt iter    5 1.00000000   0.520E-07       0.001       59.358
     Symmetrizing Results
     Final NS sqrt iter    5 1.00000000   0.612E-09

     Est. extremal eigenvalues     -0.92455     1.53595  converged:  T
     TRS4 it   1 1.00000000   0.835E+00       0.000       16.128   0.100E-07
     TRS4 it   2 1.00000000   0.581E+00       0.001       32.256   0.100E-07
     TRS4 it   3 1.00000000   0.389E+00       0.001       32.256   0.100E-07
     TRS4 it   4 1.00000000   0.194E+00       0.001       32.256   0.100E-07
     TRS4 it   5 1.00000000   0.594E-01       0.001       32.256   0.100E-07
     TRS4 it   6 1.00000000   0.657E-02       0.001       32.256   0.100E-07
     TRS4 it   7 1.00000000   0.994E-04       0.001       32.256   0.100E-07
     TRS4 it   8 1.00000000   0.309E-07       0.001       32.256   0.100E-07
     Final TRS4 iteration    8 1.00000000   0.309E-07
     Chemical potential (mu):      -0.00425
 
 PAO| energy:  -7.7283288448554899      penalty:   1.3038489936783024E-005
 PAO|LS| adapt:  T T T
 PAO|LS| adapt: scan_steps:    0.0000000000000000       0.23963466249864129       0.47926932499728259     
 PAO|LS| adapt: energies:   -7.7086207550181616       -7.7283288448554899       -7.7061348859469465     
 PAO|LS| adapt: suggested step_size:   0.23252641345443290     
 PAO|LS| adapt: predicted energy  -7.7283472793510102     
 PAO| ======================= Iteration:         9 =============================

     Lanczos converged:  T threshold:   0.100E-02
     Est. extremal eigenvalues:    0.280E+01   0.184E+00
     Est. condition number :    0.152E+02

 Order=           3
     NS sqrt iter    1 1.00000000   0.710E+00       0.001       57.859
     NS sqrt iter    2 1.00000000   0.334E+00       0.001       97.155
     NS sqrt iter    3 1.00000000   0.784E-01       0.001       98.266
     NS sqrt iter    4 1.00000000   0.195E-02       0.001      100.565
     NS sqrt iter    5 1.00000000   0.533E-07       0.001       58.133
     Symmetrizing Results
     Final NS sqrt iter    5 1.00000000   0.636E-09

     Est. extremal eigenvalues     -0.92453     1.53614  converged:  T
     TRS4 it   1 1.00000000   0.835E+00       0.000       16.128   0.100E-07
     TRS4 it   2 1.00000000   0.581E+00       0.001       32.256   0.100E-07
     TRS4 it   3 1.00000000   0.389E+00       0.001       32.256   0.100E-07
     TRS4 it   4 1.00000000   0.194E+00       0.001       32.256   0.100E-07
     TRS4 it   5 1.00000000   0.594E-01       0.001       32.256   0.100E-07
     TRS4 it   6 1.00000000   0.657E-02       0.001       32.256   0.100E-07
     TRS4 it   7 1.00000000   0.995E-04       0.001       32.256   0.100E-07
     TRS4 it   8 1.00000000   0.310E-07       0.001       32.256   0.100E-07
     Final TRS4 iteration    8 1.00000000   0.310E-07
     Chemical potential (mu):      -0.00427
 
 PAO| energy:  -7.7283574843106555      penalty:   1.2966554687610086E-005
 PAO|CG| trace_G_new    4.0385816080810231E-002
 PAO|CG| trace_G_prev   0.17157756779665490     
 PAO|CG| trace_G_mix   -1.4189774998606360E-003
 PAO|CG| trace_D   0.17157756779665490     
 PAO|CG| trace_D_Gnew   1.4189774998606360E-003
 PAO|CG| beta:   0.24364952900029335     
 PAO| norm of gradient:  0.20096222550720877     
 PAO| energy improvement:  -1.9736729292493926E-002
 PAO| step      9                   -7.728357484  0.126E-01  0.233E+00     0.057
 PAO|LS| adapt:  T F F
 PAO|LS| adapt: scan_steps:    0.0000000000000000        0.0000000000000000        0.0000000000000000     
 PAO|LS| adapt: energies:   -7.7283574843106555        0.0000000000000000        0.0000000000000000     
 PAO| ======================= Iteration:        10 =============================

     Lanczos converged:  T threshold:   0.100E-02
     Est. extremal eigenvalues:    0.276E+01   0.190E+00
     Est. condition number :    0.145E+02

 Order=           3
     NS sqrt iter    1 1.00000000   0.702E+00       0.001       58.517
     NS sqrt iter    2 1.00000000   0.325E+00       0.001       97.266
     NS sqrt iter    3 1.00000000   0.727E-01       0.001       97.038
     NS sqrt iter    4 1.00000000   0.157E-02       0.001       99.009
     NS sqrt iter    5 1.00000000   0.280E-07       0.001       50.612
     Symmetrizing Results
     Final NS sqrt iter    5 1.00000000   0.392E-08

     Est. extremal eigenvalues     -0.92556     1.53774  converged:  T
     TRS4 it   1 1.00000000   0.836E+00       0.000       16.128   0.100E-07
     TRS4 it   2 1.00000000   0.581E+00       0.001       32.256   0.100E-07
     TRS4 it   3 1.00000000   0.388E+00       0.001       32.256   0.100E-07
     TRS4 it   4 1.00000000   0.192E+00       0.001       32.256   0.100E-07
     TRS4 it   5 1.00000000   0.580E-01       0.001       32.256   0.100E-07
     TRS4 it   6 1.00000000   0.620E-02       0.001       32.256   0.100E-07
     TRS4 it   7 1.00000000   0.869E-04       0.001       32.256   0.100E-07
     TRS4 it   8 1.00000000   0.230E-07       0.001       32.256   0.100E-07
     Final TRS4 iteration    8 1.00000000   0.230E-07
     Chemical potential (mu):      -0.00139
 
 PAO| energy:  -7.7337969691720954      penalty:   1.3605986797945895E-005
 PAO|LS| adapt:  T T F
 PAO|LS| adapt: scan_steps:    0.0000000000000000       0.23252641345443290        0.0000000000000000     
 PAO|LS| adapt: energies:   -7.7283574843106555       -7.7337969691720954        0.0000000000000000     
 PAO| ======================= Iteration:        11 =============================

     Lanczos converged:  T threshold:   0.100E-02
     Est. extremal eigenvalues:    0.272E+01   0.196E+00
     Est. condition number :    0.139E+02

 Order=           3
     NS sqrt iter    1 1.00000000   0.693E+00       0.001       58.215
     NS sqrt iter    2 1.00000000   0.316E+00       0.001       96.835
     NS sqrt iter    3 1.00000000   0.673E-01       0.001       97.729
     NS sqrt iter    4 1.00000000   0.125E-02       0.001       97.302
     NS sqrt iter    5 1.00000000   0.133E-07       0.001       40.908
     Symmetrizing Results
     Final NS sqrt iter    5 1.00000000   0.571E-08

     Est. extremal eigenvalues     -0.92525     1.54130  converged:  T
     TRS4 it   1 1.00000000   0.837E+00       0.000       16.128   0.100E-07
     TRS4 it   2 1.00000000   0.581E+00       0.001       32.256   0.100E-07
     TRS4 it   3 1.00000000   0.388E+00       0.001       32.256   0.100E-07
     TRS4 it   4 1.00000000   0.191E+00       0.001       32.256   0.100E-07
     TRS4 it   5 1.00000000   0.567E-01       0.001       32.256   0.100E-07
     TRS4 it   6 1.00000000   0.589E-02       0.001       32.256   0.100E-07
     TRS4 it   7 1.00000000   0.766E-04       0.001       32.256   0.100E-07
     TRS4 it   8 1.00000000   0.172E-07       0.001       32.256   0.100E-07
     Final TRS4 iteration    8 1.00000000   0.172E-07
     Chemical potential (mu):       0.00155
 
 PAO| energy:  -7.7317994793627891      penalty:   1.5017936576112203E-005
 PAO|LS| adapt:  T T T
 PAO|LS| adapt: scan_steps:    0.0000000000000000       0.23252641345443290       0.46505282690886579     
 PAO|LS| adapt: energies:   -7.7283574843106555       -7.7337969691720954       -7.7317994793627891     
 PAO|LS| adapt: suggested step_size:   0.28633557645647906     
 PAO|LS| adapt: predicted energy  -7.7339960980259548     
 PAO| ======================= Iteration:        12 =============================

     Lanczos converged:  T threshold:   0.100E-02
     Est. extremal eigenvalues:    0.275E+01   0.191E+00
     Est. condition number :    0.144E+02

 Order=           3
     NS sqrt iter    1 1.00000000   0.700E+00       0.001       57.466
     NS sqrt iter    2 1.00000000   0.323E+00       0.001       98.509
     NS sqrt iter    3 1.00000000   0.714E-01       0.001       98.327
     NS sqrt iter    4 1.00000000   0.149E-02       0.001       97.650
     NS sqrt iter    5 1.00000000   0.238E-07       0.001       48.426
     Symmetrizing Results
     Final NS sqrt iter    5 1.00000000   0.424E-08

     Est. extremal eigenvalues     -0.92560     1.53840  converged:  T
     TRS4 it   1 1.00000000   0.836E+00       0.000       16.128   0.100E-07
     TRS4 it   2 1.00000000   0.581E+00       0.001       32.256   0.100E-07
     TRS4 it   3 1.00000000   0.388E+00       0.001       32.256   0.100E-07
     TRS4 it   4 1.00000000   0.192E+00       0.001       32.256   0.100E-07
     TRS4 it   5 1.00000000   0.577E-01       0.001       32.256   0.100E-07
     TRS4 it   6 1.00000000   0.613E-02       0.001       32.256   0.100E-07
     TRS4 it   7 1.00000000   0.843E-04       0.001       32.256   0.100E-07
     TRS4 it   8 1.00000000   0.214E-07       0.001       32.256   0.100E-07
     Final TRS4 iteration    8 1.00000000   0.214E-07
     Chemical potential (mu):      -0.00071
 
 PAO| energy:  -7.7339790516052496      penalty:   1.3855518762618390E-005
 PAO|CG| trace_G_new    1.3838349732683029E-002
 PAO|CG| trace_G_prev    4.0385816080810231E-002
 PAO|CG| trace_G_mix   -6.1055457751291382E-004
 PAO|CG| trace_D    4.9880067947689045E-002
 PAO|CG| trace_D_Gnew   2.8229054465960099E-004
 PAO|CG| beta:   0.35777175534312156     
 PAO| norm of gradient:  0.11763651530321284     
 PAO| energy improvement:  -5.6215672945940653E-003
 PAO| step     12                   -7.733979052  0.735E-02  0.286E+00     0.073
 PAO|LS| adapt:  T F F
 PAO|LS| adapt: scan_steps:    0.0000000000000000        0.0000000000000000        0.0000000000000000     
 PAO|LS| adapt: energies:   -7.7339790516052496        0.0000000000000000        0.0000000000000000     
 PAO| ======================= Iteration:        13 =============================

     Lanczos converged:  T threshold:   0.100E-02
     Est. extremal eigenvalues:    0.272E+01   0.195E+00
     Est. condition number :    0.139E+02

 Order=           3
     NS sqrt iter    1 1.00000000   0.692E+00       0.001       58.947
     NS sqrt iter    2 1.00000000   0.315E+00       0.017        6.442
     NS sqrt iter    3 1.00000000   0.671E-01       0.001       95.039
     NS sqrt iter    4 1.00000000   0.124E-02       0.001       97.726
     NS sqrt iter    5 1.00000000   0.136E-07       0.001       41.618
     Symmetrizing Results
     Final NS sqrt iter    5 1.00000000   0.374E-08

     Est. extremal eigenvalues     -0.92620     1.53961  converged:  T
     TRS4 it   1 1.00000000   0.838E+00       0.000       16.128   0.100E-07
     TRS4 it   2 1.00000000   0.580E+00       0.001       32.256   0.100E-07
     TRS4 it   3 1.00000000   0.385E+00       0.001       32.256   0.100E-07
     TRS4 it   4 1.00000000   0.188E+00       0.001       32.256   0.100E-07
     TRS4 it   5 1.00000000   0.550E-01       0.001       32.256   0.100E-07
     TRS4 it   6 1.00000000   0.553E-02       0.001       32.256   0.100E-07
     TRS4 it   7 1.00000000   0.675E-04       0.001       32.256   0.100E-07
     TRS4 it   8 1.00000000   0.134E-07       0.001       32.256   0.100E-07
     Final TRS4 iteration    8 1.00000000   0.134E-07
     Chemical potential (mu):       0.00333
 
 PAO| energy:  -7.7363847711298401      penalty:   1.4294324847517074E-005
 PAO|LS| adapt:  T T F
 PAO|LS| adapt: scan_steps:    0.0000000000000000       0.28633557645647906        0.0000000000000000     
 PAO|LS| adapt: energies:   -7.7339790516052496       -7.7363847711298401        0.0000000000000000     
 PAO| ======================= Iteration:        14 =============================

     Lanczos converged:  T threshold:   0.100E-02
     Est. extremal eigenvalues:    0.268E+01   0.200E+00
     Est. condition number :    0.134E+02

 Order=           3
     NS sqrt iter    1 1.00000000   0.684E+00       0.001       58.306
     NS sqrt iter    2 1.00000000   0.308E+00       0.017        6.423
     NS sqrt iter    3 1.00000000   0.630E-01       0.001       97.351
     NS sqrt iter    4 1.00000000   0.104E-02       0.001       99.165
     NS sqrt iter    5 1.00000000   0.663E-08       0.001       37.593
     Symmetrizing Results
     Final NS sqrt iter    5 1.00000000   0.226E-08

     Est. extremal eigenvalues     -0.92619     1.54101  converged:  T
     TRS4 it   1 1.00000000   0.840E+00       0.000       16.128   0.100E-07
     TRS4 it   2 1.00000000   0.579E+00       0.001       32.256   0.100E-07
     TRS4 it   3 1.00000000   0.382E+00       0.001       32.256   0.100E-07
     TRS4 it   4 1.00000000   0.184E+00       0.001       32.256   0.100E-07
     TRS4 it   5 1.00000000   0.525E-01       0.001       32.256   0.100E-07
     TRS4 it   6 1.00000000   0.500E-02       0.001       32.256   0.100E-07
     TRS4 it   7 1.00000000   0.543E-04       0.001       32.256   0.100E-07
     TRS4 it   8 1.00000000   0.852E-08       0.001       32.256   0.100E-07
     Final TRS4 iteration    8 1.00000000   0.852E-08
     Chemical potential (mu):       0.00723
 
 PAO| energy:  -7.7357935615665232      penalty:   1.5283418796493330E-005
 PAO|LS| adapt:  T T T
 PAO|LS| adapt: scan_steps:    0.0000000000000000       0.28633557645647906       0.57267115291295811     
 PAO|LS| adapt: energies:   -7.7339790516052496       -7.7363847711298401       -7.7357935615665232     
 PAO|LS| adapt: suggested step_size:   0.37301743320172398     
 PAO|LS| adapt: predicted energy  -7.7365220969683479     
 PAO| ======================= Iteration:        15 =============================

     Lanczos converged:  T threshold:   0.100E-02
     Est. extremal eigenvalues:    0.270E+01   0.197E+00
     Est. condition number :    0.137E+02

 Order=           3
     NS sqrt iter    1 1.00000000   0.690E+00       0.001       57.813
     NS sqrt iter    2 1.00000000   0.313E+00       0.001       99.195
     NS sqrt iter    3 1.00000000   0.658E-01       0.001       97.490
     NS sqrt iter    4 1.00000000   0.118E-02       0.001       98.728
     NS sqrt iter    5 1.00000000   0.114E-07       0.001       41.710
     Symmetrizing Results
     Final NS sqrt iter    5 1.00000000   0.505E-08

     Est. extremal eigenvalues     -0.92626     1.54002  converged:  T
     TRS4 it   1 1.00000000   0.838E+00       0.000       16.128   0.100E-07
     TRS4 it   2 1.00000000   0.579E+00       0.001       32.256   0.100E-07
     TRS4 it   3 1.00000000   0.384E+00       0.001       32.256   0.100E-07
     TRS4 it   4 1.00000000   0.187E+00       0.001       32.256   0.100E-07
     TRS4 it   5 1.00000000   0.542E-01       0.001       32.256   0.100E-07
     TRS4 it   6 1.00000000   0.536E-02       0.001       32.256   0.100E-07
     TRS4 it   7 1.00000000   0.632E-04       0.001       32.256   0.100E-07
     TRS4 it   8 1.00000000   0.117E-07       0.001       32.256   0.100E-07
     Final TRS4 iteration    8 1.00000000   0.117E-07
     Chemical potential (mu):       0.00453
 
 PAO| energy:  -7.7365180413504060      penalty:   1.4531017916083776E-005
 PAO|CG| trace_G_new    3.0119609949983660E-003
 PAO|CG| trace_G_prev    1.3838349732683029E-002
 PAO|CG| trace_G_mix    1.0166314850102340E-004
 PAO|CG| trace_D    2.0021038633265063E-002
 PAO|CG| trace_D_Gnew   3.7425621975466927E-005
 PAO|CG| beta:   0.21030671306303833     
 PAO| norm of gradient:   5.4881335579579020E-002
 PAO| energy improvement:  -2.5389897451564281E-003
 PAO| step     15                   -7.736518041  0.343E-02  0.373E+00     0.089
 PAO|LS| adapt:  T F F
 PAO|LS| adapt: scan_steps:    0.0000000000000000        0.0000000000000000        0.0000000000000000     
 PAO|LS| adapt: energies:   -7.7365180413504060        0.0000000000000000        0.0000000000000000     
 PAO| ======================= Iteration:        16 =============================

     Lanczos converged:  T threshold:   0.100E-02
     Est. extremal eigenvalues:    0.269E+01   0.198E+00
     Est. condition number :    0.136E+02

 Order=           3
     NS sqrt iter    1 1.00000000   0.688E+00       0.001       58.361
     NS sqrt iter    2 1.00000000   0.312E+00       0.001       98.115
     NS sqrt iter    3 1.00000000   0.652E-01       0.001       98.405
     NS sqrt iter    4 1.00000000   0.114E-02       0.001       98.139
     NS sqrt iter    5 1.00000000   0.947E-08       0.001       38.897
     Symmetrizing Results
     Final NS sqrt iter    5 1.00000000   0.367E-08

     Est. extremal eigenvalues     -0.92629     1.53978  converged:  T
     TRS4 it   1 1.00000000   0.839E+00       0.000       16.128   0.100E-07
     TRS4 it   2 1.00000000   0.579E+00       0.001       32.256   0.100E-07
     TRS4 it   3 1.00000000   0.382E+00       0.001       32.256   0.100E-07
     TRS4 it   4 1.00000000   0.185E+00       0.001       32.256   0.100E-07
     TRS4 it   5 1.00000000   0.531E-01       0.001       32.256   0.100E-07
     TRS4 it   6 1.00000000   0.515E-02       0.001       32.256   0.100E-07
     TRS4 it   7 1.00000000   0.586E-04       0.001       32.256   0.100E-07
     TRS4 it   8 1.00000000   0.101E-07       0.001       32.256   0.100E-07
     Final TRS4 iteration    8 1.00000000   0.101E-07
     Chemical potential (mu):       0.00557
 
 PAO| energy:  -7.7366530986313480      penalty:   1.4395282997337870E-005
 PAO|LS| adapt:  T T F
 PAO|LS| adapt: scan_steps:    0.0000000000000000       0.37301743320172398        0.0000000000000000     
 PAO|LS| adapt: energies:   -7.7365180413504060       -7.7366530986313480        0.0000000000000000     
 PAO| ======================= Iteration:        17 =============================

     Lanczos converged:  T threshold:   0.100E-02
     Est. extremal eigenvalues:    0.268E+01   0.199E+00
     Est. condition number :    0.135E+02

 Order=           3
     NS sqrt iter    1 1.00000000   0.686E+00       0.001       57.644
     NS sqrt iter    2 1.00000000   0.310E+00       0.001       98.505
     NS sqrt iter    3 1.00000000   0.645E-01       0.001       99.521
     NS sqrt iter    4 1.00000000   0.109E-02       0.001       99.550
     NS sqrt iter    5 1.00000000   0.776E-08       0.001       38.718
     Symmetrizing Results
     Final NS sqrt iter    5 1.00000000   0.419E-08

     Est. extremal eigenvalues     -0.92614     1.53969  converged:  T
     TRS4 it   1 1.00000000   0.839E+00       0.000       16.128   0.100E-07
     TRS4 it   2 1.00000000   0.578E+00       0.001       32.256   0.100E-07
     TRS4 it   3 1.00000000   0.381E+00       0.001       32.256   0.100E-07
     TRS4 it   4 1.00000000   0.183E+00       0.001       32.256   0.100E-07
     TRS4 it   5 1.00000000   0.520E-01       0.001       32.256   0.100E-07
     TRS4 it   6 1.00000000   0.496E-02       0.001       32.256   0.100E-07
     TRS4 it   7 1.00000000   0.544E-04       0.001       32.256   0.100E-07
     TRS4 it   8 1.00000000   0.869E-08       0.001       32.256   0.100E-07
     Final TRS4 iteration    8 1.00000000   0.869E-08
     Chemical potential (mu):       0.00661
 
 PAO| energy:  -7.7348095551939364      penalty:   1.4401259367842623E-005
 PAO|LS| adapt:  T T T
 PAO|LS| adapt: scan_steps:    0.0000000000000000       0.37301743320172398       0.74603486640344796     
 PAO|LS| adapt: energies:   -7.7365180413504060       -7.7366530986313480       -7.7348095551939364     
 PAO|LS| adapt: suggested step_size:   0.21197050876785636     
 PAO|LS| adapt: predicted energy  -7.7368375045172710     
 PAO| ======================= Iteration:        18 =============================

     Lanczos converged:  T threshold:   0.100E-02
     Est. extremal eigenvalues:    0.270E+01   0.197E+00
     Est. condition number :    0.137E+02

 Order=           3
     NS sqrt iter    1 1.00000000   0.689E+00       0.001       58.153
     NS sqrt iter    2 1.00000000   0.312E+00       0.001       98.546
     NS sqrt iter    3 1.00000000   0.655E-01       0.001       98.162
     NS sqrt iter    4 1.00000000   0.115E-02       0.001       98.879
     NS sqrt iter    5 1.00000000   0.105E-07       0.001       41.628
     Symmetrizing Results
     Final NS sqrt iter    5 1.00000000   0.429E-08

     Est. extremal eigenvalues     -0.92630     1.53987  converged:  T
     TRS4 it   1 1.00000000   0.839E+00       0.000       16.128   0.100E-07
     TRS4 it   2 1.00000000   0.579E+00       0.001       32.256   0.100E-07
     TRS4 it   3 1.00000000   0.383E+00       0.001       32.256   0.100E-07
     TRS4 it   4 1.00000000   0.186E+00       0.001       32.256   0.100E-07
     TRS4 it   5 1.00000000   0.536E-01       0.001       32.256   0.100E-07
     TRS4 it   6 1.00000000   0.524E-02       0.001       32.256   0.100E-07
     TRS4 it   7 1.00000000   0.605E-04       0.001       32.256   0.100E-07
     TRS4 it   8 1.00000000   0.107E-07       0.001       32.256   0.100E-07
     Final TRS4 iteration    8 1.00000000   0.107E-07
     Chemical potential (mu):       0.00512
 
 PAO| energy:  -7.7368368698863774      penalty:   1.4436915242877424E-005
 PAO|CG| trace_G_new    8.0921164332088918E-004
 PAO|CG| trace_G_prev    3.0119609949983660E-003
 PAO|CG| trace_G_mix    1.1439237265501497E-006
 PAO|CG| trace_D    3.8817280629940363E-003
 PAO|CG| trace_D_Gnew  -2.2948739694333333E-006
 PAO|CG| beta:   0.26828624970117765     
 PAO| norm of gradient:   2.8446645554808202E-002
 PAO| energy improvement:  -3.1882853597142713E-004
 PAO| step     18                   -7.736836870  0.178E-02  0.212E+00     0.056
 PAO|LS| adapt:  T F F
 PAO|LS| adapt: scan_steps:    0.0000000000000000        0.0000000000000000        0.0000000000000000     
 PAO|LS| adapt: energies:   -7.7368368698863774        0.0000000000000000        0.0000000000000000     
 PAO| ======================= Iteration:        19 =============================

     Lanczos converged:  T threshold:   0.100E-02
     Est. extremal eigenvalues:    0.270E+01   0.197E+00
     Est. condition number :    0.137E+02

 Order=           3
     NS sqrt iter    1 1.00000000   0.689E+00       0.001       57.830
     NS sqrt iter    2 1.00000000   0.313E+00       0.001       95.676
     NS sqrt iter    3 1.00000000   0.657E-01       0.001       98.393
     NS sqrt iter    4 1.00000000   0.116E-02       0.001       98.248
     NS sqrt iter    5 1.00000000   0.105E-07       0.001       39.785
     Symmetrizing Results
     Final NS sqrt iter    5 1.00000000   0.430E-08

     Est. extremal eigenvalues     -0.92630     1.54023  converged:  T
     TRS4 it   1 1.00000000   0.839E+00       0.000       16.128   0.100E-07
     TRS4 it   2 1.00000000   0.579E+00       0.001       32.256   0.100E-07
     TRS4 it   3 1.00000000   0.383E+00       0.001       32.256   0.100E-07
     TRS4 it   4 1.00000000   0.185E+00       0.001       32.256   0.100E-07
     TRS4 it   5 1.00000000   0.535E-01       0.001       32.256   0.100E-07
     TRS4 it   6 1.00000000   0.524E-02       0.001       32.256   0.100E-07
     TRS4 it   7 1.00000000   0.607E-04       0.001       32.256   0.100E-07
     TRS4 it   8 1.00000000   0.108E-07       0.001       32.256   0.100E-07
     Final TRS4 iteration    8 1.00000000   0.108E-07
     Chemical potential (mu):       0.00504
 
 PAO| energy:  -7.7369678424514960      penalty:   1.4174268180638873E-005
 PAO|LS| adapt:  T T F
 PAO|LS| adapt: scan_steps:    0.0000000000000000       0.21197050876785636        0.0000000000000000     
 PAO|LS| adapt: energies:   -7.7368368698863774       -7.7369678424514960        0.0000000000000000     
 PAO| ======================= Iteration:        20 =============================

     Lanczos converged:  T threshold:   0.100E-02
     Est. extremal eigenvalues:    0.270E+01   0.197E+00
     Est. condition number :    0.137E+02

 Order=           3
     NS sqrt iter    1 1.00000000   0.688E+00       0.001       57.971
     NS sqrt iter    2 1.00000000   0.313E+00       0.001       97.587
     NS sqrt iter    3 1.00000000   0.659E-01       0.001       97.136
     NS sqrt iter    4 1.00000000   0.117E-02       0.001       99.234
     NS sqrt iter    5 1.00000000   0.105E-07       0.001       41.295
     Symmetrizing Results
     Final NS sqrt iter    5 1.00000000   0.432E-08

     Est. extremal eigenvalues     -0.92630     1.54059  converged:  T
     TRS4 it   1 1.00000000   0.839E+00       0.000       16.128   0.100E-07
     TRS4 it   2 1.00000000   0.579E+00       0.001       32.256   0.100E-07
     TRS4 it   3 1.00000000   0.383E+00       0.001       32.256   0.100E-07
     TRS4 it   4 1.00000000   0.185E+00       0.001       32.256   0.100E-07
     TRS4 it   5 1.00000000   0.534E-01       0.001       32.256   0.100E-07
     TRS4 it   6 1.00000000   0.524E-02       0.001       32.256   0.100E-07
     TRS4 it   7 1.00000000   0.609E-04       0.001       32.256   0.100E-07
     TRS4 it   8 1.00000000   0.109E-07       0.001       32.256   0.100E-07
     Final TRS4 iteration    8 1.00000000   0.109E-07
     Chemical potential (mu):       0.00496
 
 PAO| energy:  -7.7370169199655940      penalty:   1.3924008397386642E-005
 PAO|LS| adapt:  T T F
 PAO|LS| adapt: scan_steps:    0.0000000000000000       0.42394101753571273        0.0000000000000000     
 PAO|LS| adapt: energies:   -7.7368368698863774       -7.7370169199655940        0.0000000000000000     
 PAO| ======================= Iteration:        21 =============================

     Lanczos converged:  T threshold:   0.100E-02
     Est. extremal eigenvalues:    0.270E+01   0.197E+00
     Est. condition number :    0.137E+02

 Order=           3
     NS sqrt iter    1 1.00000000   0.688E+00       0.001       58.248
     NS sqrt iter    2 1.00000000   0.313E+00       0.001       98.797
     NS sqrt iter    3 1.00000000   0.663E-01       0.001       97.310
     NS sqrt iter    4 1.00000000   0.118E-02       0.001       99.935
     NS sqrt iter    5 1.00000000   0.105E-07       0.001       40.705
     Symmetrizing Results
     Final NS sqrt iter    5 1.00000000   0.435E-08

     Est. extremal eigenvalues     -0.92629     1.54133  converged:  T
     TRS4 it   1 1.00000000   0.839E+00       0.000       16.128   0.100E-07
     TRS4 it   2 1.00000000   0.579E+00       0.001       32.256   0.100E-07
     TRS4 it   3 1.00000000   0.383E+00       0.001       32.256   0.100E-07
     TRS4 it   4 1.00000000   0.185E+00       0.001       32.256   0.100E-07
     TRS4 it   5 1.00000000   0.533E-01       0.001       32.256   0.100E-07
     TRS4 it   6 1.00000000   0.523E-02       0.001       32.256   0.100E-07
     TRS4 it   7 1.00000000   0.613E-04       0.001       32.256   0.100E-07
     TRS4 it   8 1.00000000   0.111E-07       0.001       32.256   0.100E-07
     Final TRS4 iteration    8 1.00000000   0.111E-07
     Chemical potential (mu):       0.00478
 
 PAO| energy:  -7.7368662630041625      penalty:   1.3460264670800321E-005
 PAO|LS| Need extra step
 PAO|LS| adapt:  T T T
 PAO|LS| adapt: scan_steps:    0.0000000000000000       0.42394101753571273       0.84788203507142546     
 PAO|LS| adapt: energies:   -7.7368368698863774       -7.7370169199655940       -7.7368662630041625     
 PAO|LS| adapt: suggested step_size:   0.44278087688360668     
 PAO|LS| adapt: predicted energy  -7.7370172465217548     
 PAO| ======================= Iteration:        22 =============================

     Lanczos converged:  T threshold:   0.100E-02
     Est. extremal eigenvalues:    0.270E+01   0.197E+00
     Est. condition number :    0.137E+02

 Order=           3
     NS sqrt iter    1 1.00000000   0.688E+00       0.001       58.296
     NS sqrt iter    2 1.00000000   0.313E+00       0.001       97.542
     NS sqrt iter    3 1.00000000   0.659E-01       0.001       98.101
     NS sqrt iter    4 1.00000000   0.117E-02       0.001      100.802
     NS sqrt iter    5 1.00000000   0.105E-07       0.001       40.675
     Symmetrizing Results
     Final NS sqrt iter    5 1.00000000   0.432E-08

     Est. extremal eigenvalues     -0.92630     1.54062  converged:  T
     TRS4 it   1 1.00000000   0.839E+00       0.000       16.128   0.100E-07
     TRS4 it   2 1.00000000   0.579E+00       0.001       32.256   0.100E-07
     TRS4 it   3 1.00000000   0.383E+00       0.001       32.256   0.100E-07
     TRS4 it   4 1.00000000   0.185E+00       0.001       32.256   0.100E-07
     TRS4 it   5 1.00000000   0.534E-01       0.001       32.256   0.100E-07
     TRS4 it   6 1.00000000   0.524E-02       0.001       32.256   0.100E-07
     TRS4 it   7 1.00000000   0.609E-04       0.001       32.256   0.100E-07
     TRS4 it   8 1.00000000   0.109E-07       0.001       32.256   0.100E-07
     Final TRS4 iteration    8 1.00000000   0.109E-07
     Chemical potential (mu):       0.00495
 
 PAO| energy:  -7.7370172927533405      penalty:   1.3902360090333035E-005
 PAO|CG| trace_G_new    2.3853864864248621E-004
 PAO|CG| trace_G_prev    8.0921164332088918E-004
 PAO|CG| trace_G_mix    4.5132134696160893E-006
 PAO|CG| trace_D    1.0898401369584330E-003
 PAO|CG| trace_D_Gnew  -2.4433062516514809E-006
 PAO|CG| beta:   0.28920176458715191     
 PAO| norm of gradient:   1.5444696456793387E-002
 PAO| energy improvement:  -1.8042286696307031E-004
 PAO| step     22                   -7.737017293  0.965E-03  0.443E+00     0.074
 PAO|LS| adapt:  T F F
 PAO|LS| adapt: scan_steps:    0.0000000000000000        0.0000000000000000        0.0000000000000000     
 PAO|LS| adapt: energies:   -7.7370172927533405        0.0000000000000000        0.0000000000000000     
 PAO| ======================= Iteration:        23 =============================

     Lanczos converged:  T threshold:   0.100E-02
     Est. extremal eigenvalues:    0.270E+01   0.198E+00
     Est. condition number :    0.137E+02

 Order=           3
     NS sqrt iter    1 1.00000000   0.688E+00       0.001       57.712
     NS sqrt iter    2 1.00000000   0.313E+00       0.001       96.616
     NS sqrt iter    3 1.00000000   0.659E-01       0.001       97.373
     NS sqrt iter    4 1.00000000   0.117E-02       0.001       96.438
     NS sqrt iter    5 1.00000000   0.104E-07       0.001       40.885
     Symmetrizing Results
     Final NS sqrt iter    5 1.00000000   0.428E-08

     Est. extremal eigenvalues     -0.92630     1.54098  converged:  T
     TRS4 it   1 1.00000000   0.839E+00       0.000       16.128   0.100E-07
     TRS4 it   2 1.00000000   0.579E+00       0.001       32.256   0.100E-07
     TRS4 it   3 1.00000000   0.383E+00       0.001       32.256   0.100E-07
     TRS4 it   4 1.00000000   0.186E+00       0.001       32.256   0.100E-07
     TRS4 it   5 1.00000000   0.536E-01       0.001       32.256   0.100E-07
     TRS4 it   6 1.00000000   0.527E-02       0.001       32.256   0.100E-07
     TRS4 it   7 1.00000000   0.618E-04       0.001       32.256   0.100E-07
     TRS4 it   8 1.00000000   0.113E-07       0.001       32.256   0.100E-07
     Final TRS4 iteration    8 1.00000000   0.113E-07
     Chemical potential (mu):       0.00477
 
 PAO| energy:  -7.7370542656837848      penalty:   1.3266859862776491E-005
 PAO|LS| adapt:  T T F
 PAO|LS| adapt: scan_steps:    0.0000000000000000       0.44278087688360668        0.0000000000000000     
 PAO|LS| adapt: energies:   -7.7370172927533405       -7.7370542656837848        0.0000000000000000     
 PAO| ======================= Iteration:        24 =============================

     Lanczos converged:  T threshold:   0.100E-02
     Est. extremal eigenvalues:    0.270E+01   0.198E+00
     Est. condition number :    0.137E+02

 Order=           3
     NS sqrt iter    1 1.00000000   0.688E+00       0.001       58.131
     NS sqrt iter    2 1.00000000   0.313E+00       0.001       97.616
     NS sqrt iter    3 1.00000000   0.660E-01       0.001       97.154
     NS sqrt iter    4 1.00000000   0.117E-02       0.001       96.991
     NS sqrt iter    5 1.00000000   0.103E-07       0.001       40.348
     Symmetrizing Results
     Final NS sqrt iter    5 1.00000000   0.427E-08

     Est. extremal eigenvalues     -0.92629     1.54135  converged:  T
     TRS4 it   1 1.00000000   0.839E+00       0.000       16.128   0.100E-07
     TRS4 it   2 1.00000000   0.579E+00       0.001       32.256   0.100E-07
     TRS4 it   3 1.00000000   0.384E+00       0.001       32.256   0.100E-07
     TRS4 it   4 1.00000000   0.186E+00       0.001       32.256   0.100E-07
     TRS4 it   5 1.00000000   0.538E-01       0.001       32.256   0.100E-07
     TRS4 it   6 1.00000000   0.531E-02       0.001       32.256   0.100E-07
     TRS4 it   7 1.00000000   0.628E-04       0.001       32.256   0.100E-07
     TRS4 it   8 1.00000000   0.116E-07       0.001       32.256   0.100E-07
     Final TRS4 iteration    8 1.00000000   0.116E-07
     Chemical potential (mu):       0.00458
 
 PAO| energy:  -7.7369526527753889      penalty:   1.2657425033895541E-005
 PAO|LS| adapt:  T T T
 PAO|LS| adapt: scan_steps:    0.0000000000000000       0.44278087688360668       0.88556175376721336     
 PAO|LS| adapt: energies:   -7.7370172927533405       -7.7370542656837848       -7.7369526527753889     
 PAO|LS| adapt: suggested step_size:   0.33951871691601315     
 PAO|LS| adapt: predicted energy  -7.7370580344010511     
 PAO| ======================= Iteration:        25 =============================

     Lanczos converged:  T threshold:   0.100E-02
     Est. extremal eigenvalues:    0.270E+01   0.197E+00
     Est. condition number :    0.137E+02

 Order=           3
     NS sqrt iter    1 1.00000000   0.688E+00       0.001       58.289
     NS sqrt iter    2 1.00000000   0.313E+00       0.001       97.107
     NS sqrt iter    3 1.00000000   0.659E-01       0.001       99.644
     NS sqrt iter    4 1.00000000   0.117E-02       0.001       99.502
     NS sqrt iter    5 1.00000000   0.104E-07       0.001       40.784
     Symmetrizing Results
     Final NS sqrt iter    5 1.00000000   0.429E-08

     Est. extremal eigenvalues     -0.92630     1.54090  converged:  T
     TRS4 it   1 1.00000000   0.839E+00       0.000       16.128   0.100E-07
     TRS4 it   2 1.00000000   0.579E+00       0.001       32.256   0.100E-07
     TRS4 it   3 1.00000000   0.383E+00       0.001       32.256   0.100E-07
     TRS4 it   4 1.00000000   0.186E+00       0.001       32.256   0.100E-07
     TRS4 it   5 1.00000000   0.536E-01       0.001       32.256   0.100E-07
     TRS4 it   6 1.00000000   0.527E-02       0.001       32.256   0.100E-07
     TRS4 it   7 1.00000000   0.616E-04       0.001       32.256   0.100E-07
     TRS4 it   8 1.00000000   0.112E-07       0.001       32.256   0.100E-07
     Final TRS4 iteration    8 1.00000000   0.112E-07
     Chemical potential (mu):       0.00481
 
 PAO| energy:  -7.7370579976324585      penalty:   1.3412717168674779E-005
 PAO|CG| trace_G_new    7.8474338030647481E-005
 PAO|CG| trace_G_prev    2.3853864864248621E-004
 PAO|CG| trace_G_mix    2.4431167240742234E-007
 PAO|CG| trace_D    3.3110354512842695E-004
 PAO|CG| trace_D_Gnew  -3.1543934704150809E-007
 PAO|CG| beta:   0.32795535148473409     
 PAO| norm of gradient:   8.8585742662489145E-003
 PAO| energy improvement:  -4.0704879118003134E-005
 PAO| step     25                   -7.737057998  0.554E-03  0.340E+00     0.057
 PAO|LS| adapt:  T F F
 PAO|LS| adapt: scan_steps:    0.0000000000000000        0.0000000000000000        0.0000000000000000     
 PAO|LS| adapt: energies:   -7.7370579976324585        0.0000000000000000        0.0000000000000000     
 PAO| ======================= Iteration:        26 =============================

     Lanczos converged:  T threshold:   0.100E-02
     Est. extremal eigenvalues:    0.270E+01   0.198E+00
     Est. condition number :    0.137E+02

 Order=           3
     NS sqrt iter    1 1.00000000   0.688E+00       0.001       58.756
     NS sqrt iter    2 1.00000000   0.313E+00       0.001       99.086
     NS sqrt iter    3 1.00000000   0.658E-01       0.001       98.410
     NS sqrt iter    4 1.00000000   0.116E-02       0.001       99.279
     NS sqrt iter    5 1.00000000   0.103E-07       0.001       40.213
     Symmetrizing Results
     Final NS sqrt iter    5 1.00000000   0.425E-08

     Est. extremal eigenvalues     -0.92630     1.54080  converged:  T
     TRS4 it   1 1.00000000   0.839E+00       0.000       16.128   0.100E-07
     TRS4 it   2 1.00000000   0.579E+00       0.001       32.256   0.100E-07
     TRS4 it   3 1.00000000   0.383E+00       0.001       32.256   0.100E-07
     TRS4 it   4 1.00000000   0.186E+00       0.001       32.256   0.100E-07
     TRS4 it   5 1.00000000   0.536E-01       0.001       32.256   0.100E-07
     TRS4 it   6 1.00000000   0.526E-02       0.001       32.256   0.100E-07
     TRS4 it   7 1.00000000   0.615E-04       0.001       32.256   0.100E-07
     TRS4 it   8 1.00000000   0.111E-07       0.001       32.256   0.100E-07
     Final TRS4 iteration    8 1.00000000   0.111E-07
     Chemical potential (mu):       0.00484
 
 PAO| energy:  -7.7370657019637354      penalty:   1.2889779998458177E-005
 PAO|LS| adapt:  T T F
 PAO|LS| adapt: scan_steps:    0.0000000000000000       0.33951871691601315        0.0000000000000000     
 PAO|LS| adapt: energies:   -7.7370579976324585       -7.7370657019637354        0.0000000000000000     
 PAO| ======================= Iteration:        27 =============================

     Lanczos converged:  T threshold:   0.100E-02
     Est. extremal eigenvalues:    0.270E+01   0.198E+00
     Est. condition number :    0.136E+02

 Order=           3
     NS sqrt iter    1 1.00000000   0.688E+00       0.001       57.774
     NS sqrt iter    2 1.00000000   0.313E+00       0.001       97.262
     NS sqrt iter    3 1.00000000   0.658E-01       0.001       97.907
     NS sqrt iter    4 1.00000000   0.116E-02       0.001       98.199
     NS sqrt iter    5 1.00000000   0.975E-08       0.001       39.088
     Symmetrizing Results
     Final NS sqrt iter    5 1.00000000   0.376E-08

     Est. extremal eigenvalues     -0.92630     1.54070  converged:  T
     TRS4 it   1 1.00000000   0.839E+00       0.000       16.128   0.100E-07
     TRS4 it   2 1.00000000   0.579E+00       0.001       32.256   0.100E-07
     TRS4 it   3 1.00000000   0.383E+00       0.001       32.256   0.100E-07
     TRS4 it   4 1.00000000   0.186E+00       0.001       32.256   0.100E-07
     TRS4 it   5 1.00000000   0.536E-01       0.001       32.256   0.100E-07
     TRS4 it   6 1.00000000   0.526E-02       0.001       32.256   0.100E-07
     TRS4 it   7 1.00000000   0.614E-04       0.001       32.256   0.100E-07
     TRS4 it   8 1.00000000   0.111E-07       0.001       32.256   0.100E-07
     Final TRS4 iteration    8 1.00000000   0.111E-07
     Chemical potential (mu):       0.00488
 
 PAO| energy:  -7.7370353938376146      penalty:   1.2379309676927776E-005
 PAO|LS| adapt:  T T T
 PAO|LS| adapt: scan_steps:    0.0000000000000000       0.33951871691601315       0.67903743383202630     
 PAO|LS| adapt: energies:   -7.7370579976324585       -7.7370657019637354       -7.7370353938376146     
 PAO|LS| adapt: suggested step_size:   0.23857271199823640     
 PAO|LS| adapt: predicted energy  -7.7370673821087994     
 PAO| ======================= Iteration:        28 =============================

     Lanczos converged:  T threshold:   0.100E-02
     Est. extremal eigenvalues:    0.270E+01   0.198E+00
     Est. condition number :    0.137E+02

 Order=           3
     NS sqrt iter    1 1.00000000   0.688E+00       0.001       57.319
     NS sqrt iter    2 1.00000000   0.313E+00       0.001       97.134
     NS sqrt iter    3 1.00000000   0.659E-01       0.001       99.990
     NS sqrt iter    4 1.00000000   0.116E-02       0.001       99.455
     NS sqrt iter    5 1.00000000   0.103E-07       0.001       39.865
     Symmetrizing Results
     Final NS sqrt iter    5 1.00000000   0.426E-08

     Est. extremal eigenvalues     -0.92630     1.54083  converged:  T
     TRS4 it   1 1.00000000   0.839E+00       0.000       16.128   0.100E-07
     TRS4 it   2 1.00000000   0.579E+00       0.001       32.256   0.100E-07
     TRS4 it   3 1.00000000   0.383E+00       0.001       32.256   0.100E-07
     TRS4 it   4 1.00000000   0.186E+00       0.001       32.256   0.100E-07
     TRS4 it   5 1.00000000   0.536E-01       0.001       32.256   0.100E-07
     TRS4 it   6 1.00000000   0.526E-02       0.001       32.256   0.100E-07
     TRS4 it   7 1.00000000   0.615E-04       0.001       32.256   0.100E-07
     TRS4 it   8 1.00000000   0.111E-07       0.001       32.256   0.100E-07
     Final TRS4 iteration    8 1.00000000   0.111E-07
     Chemical potential (mu):       0.00483
 
 PAO| energy:  -7.7370673776554764      penalty:   1.3043952809250256E-005
 PAO|CG| trace_G_new    1.5512878776875087E-005
 PAO|CG| trace_G_prev    7.8474338030647481E-005
 PAO|CG| trace_G_mix    7.1985114931385897E-008
 PAO|CG| trace_D    1.1429298470086983E-004
 PAO|CG| trace_D_Gnew  -3.4526503835425577E-008
 PAO|CG| beta:   0.19676360514074542     
 PAO| norm of gradient:   3.9386392036939721E-003
 PAO| energy improvement:  -9.3800230178686661E-006
 PAO| step     28                   -7.737067378  0.246E-03  0.239E+00     0.057
 PAO|LS| adapt:  T F F
 PAO|LS| adapt: scan_steps:    0.0000000000000000        0.0000000000000000        0.0000000000000000     
 PAO|LS| adapt: energies:   -7.7370673776554764        0.0000000000000000        0.0000000000000000     
 PAO| ======================= Iteration:        29 =============================

     Lanczos converged:  T threshold:   0.100E-02
     Est. extremal eigenvalues:    0.270E+01   0.198E+00
     Est. condition number :    0.137E+02

 Order=           3
     NS sqrt iter    1 1.00000000   0.688E+00       0.001       58.262
     NS sqrt iter    2 1.00000000   0.313E+00       0.001       99.618
     NS sqrt iter    3 1.00000000   0.658E-01       0.001       98.767
     NS sqrt iter    4 1.00000000   0.116E-02       0.001       99.262
     NS sqrt iter    5 1.00000000   0.103E-07       0.001       40.649
     Symmetrizing Results
     Final NS sqrt iter    5 1.00000000   0.426E-08

     Est. extremal eigenvalues     -0.92630     1.54087  converged:  T
     TRS4 it   1 1.00000000   0.839E+00       0.000       16.128   0.100E-07
     TRS4 it   2 1.00000000   0.579E+00       0.001       32.256   0.100E-07
     TRS4 it   3 1.00000000   0.383E+00       0.001       32.256   0.100E-07
     TRS4 it   4 1.00000000   0.185E+00       0.001       32.256   0.100E-07
     TRS4 it   5 1.00000000   0.536E-01       0.001       32.256   0.100E-07
     TRS4 it   6 1.00000000   0.526E-02       0.001       32.256   0.100E-07
     TRS4 it   7 1.00000000   0.613E-04       0.001       32.256   0.100E-07
     TRS4 it   8 1.00000000   0.111E-07       0.001       32.256   0.100E-07
     Final TRS4 iteration    8 1.00000000   0.111E-07
     Chemical potential (mu):       0.00490
 
 PAO| energy:  -7.7370704368068424      penalty:   1.2720576198729277E-005
 PAO|LS| adapt:  T T F
 PAO|LS| adapt: scan_steps:    0.0000000000000000       0.23857271199823640        0.0000000000000000     
 PAO|LS| adapt: energies:   -7.7370673776554764       -7.7370704368068424        0.0000000000000000     
 PAO| ======================= Iteration:        30 =============================

     Lanczos converged:  T threshold:   0.100E-02
     Est. extremal eigenvalues:    0.270E+01   0.198E+00
     Est. condition number :    0.137E+02

 Order=           3
     NS sqrt iter    1 1.00000000   0.688E+00       0.001       58.810
     NS sqrt iter    2 1.00000000   0.313E+00       0.001       96.787
     NS sqrt iter    3 1.00000000   0.658E-01       0.001       97.930
     NS sqrt iter    4 1.00000000   0.116E-02       0.001       98.306
     NS sqrt iter    5 1.00000000   0.103E-07       0.001       40.552
     Symmetrizing Results
     Final NS sqrt iter    5 1.00000000   0.426E-08

     Est. extremal eigenvalues     -0.92630     1.54091  converged:  T
     TRS4 it   1 1.00000000   0.839E+00       0.000       16.128   0.100E-07
     TRS4 it   2 1.00000000   0.579E+00       0.001       32.256   0.100E-07
     TRS4 it   3 1.00000000   0.383E+00       0.001       32.256   0.100E-07
     TRS4 it   4 1.00000000   0.185E+00       0.001       32.256   0.100E-07
     TRS4 it   5 1.00000000   0.535E-01       0.001       32.256   0.100E-07
     TRS4 it   6 1.00000000   0.525E-02       0.001       32.256   0.100E-07
     TRS4 it   7 1.00000000   0.611E-04       0.001       32.256   0.100E-07
     TRS4 it   8 1.00000000   0.110E-07       0.001       32.256   0.100E-07
     Final TRS4 iteration    8 1.00000000   0.110E-07
     Chemical potential (mu):       0.00497
 
 PAO| energy:  -7.7370722086538528      penalty:   1.2401487430731677E-005
 PAO|LS| adapt:  T T F
 PAO|LS| adapt: scan_steps:    0.0000000000000000       0.47714542399647281        0.0000000000000000     
 PAO|LS| adapt: energies:   -7.7370673776554764       -7.7370722086538528        0.0000000000000000     
 PAO| ======================= Iteration:        31 =============================

     Lanczos converged:  T threshold:   0.100E-02
     Est. extremal eigenvalues:    0.270E+01   0.198E+00
     Est. condition number :    0.136E+02

 Order=           3
     NS sqrt iter    1 1.00000000   0.688E+00       0.001       57.610
     NS sqrt iter    2 1.00000000   0.313E+00       0.001       96.874
     NS sqrt iter    3 1.00000000   0.657E-01       0.001       97.809
     NS sqrt iter    4 1.00000000   0.116E-02       0.001       98.248
     NS sqrt iter    5 1.00000000   0.102E-07       0.001       40.759
     Symmetrizing Results
     Final NS sqrt iter    5 1.00000000   0.425E-08

     Est. extremal eigenvalues     -0.92630     1.54098  converged:  T
     TRS4 it   1 1.00000000   0.839E+00       0.000       16.128   0.100E-07
     TRS4 it   2 1.00000000   0.579E+00       0.001       32.256   0.100E-07
     TRS4 it   3 1.00000000   0.383E+00       0.001       32.256   0.100E-07
     TRS4 it   4 1.00000000   0.185E+00       0.001       32.256   0.100E-07
     TRS4 it   5 1.00000000   0.534E-01       0.001       32.256   0.100E-07
     TRS4 it   6 1.00000000   0.523E-02       0.001       32.256   0.100E-07
     TRS4 it   7 1.00000000   0.607E-04       0.001       32.256   0.100E-07
     TRS4 it   8 1.00000000   0.108E-07       0.001       32.256   0.100E-07
     Final TRS4 iteration    8 1.00000000   0.108E-07
     Chemical potential (mu):       0.00512
 
 PAO| energy:  -7.7370718887376944      penalty:   1.1776138549083565E-005
 PAO|LS| Need extra step
 PAO|LS| adapt:  T T T
 PAO|LS| adapt: scan_steps:    0.0000000000000000       0.47714542399647281       0.95429084799294561     
 PAO|LS| adapt: energies:   -7.7370673776554764       -7.7370722086538528       -7.7370718887376944     
 PAO|LS| adapt: suggested step_size:   0.68608329541752411     
 PAO|LS| adapt: predicted energy  -7.7370727024948653     
 PAO| ======================= Iteration:        32 =============================

     Lanczos converged:  T threshold:   0.100E-02
     Est. extremal eigenvalues:    0.270E+01   0.198E+00
     Est. condition number :    0.137E+02

 Order=           3
     NS sqrt iter    1 1.00000000   0.688E+00       0.001       58.316
     NS sqrt iter    2 1.00000000   0.313E+00       0.001       97.373
     NS sqrt iter    3 1.00000000   0.657E-01       0.001       99.818
     NS sqrt iter    4 1.00000000   0.116E-02       0.001       95.924
     NS sqrt iter    5 1.00000000   0.103E-07       0.001       41.835
     Symmetrizing Results
     Final NS sqrt iter    5 1.00000000   0.425E-08

     Est. extremal eigenvalues     -0.92630     1.54094  converged:  T
     TRS4 it   1 1.00000000   0.839E+00       0.000       16.128   0.100E-07
     TRS4 it   2 1.00000000   0.579E+00       0.001       32.256   0.100E-07
     TRS4 it   3 1.00000000   0.383E+00       0.001       32.256   0.100E-07
     TRS4 it   4 1.00000000   0.185E+00       0.001       32.256   0.100E-07
     TRS4 it   5 1.00000000   0.535E-01       0.001       32.256   0.100E-07
     TRS4 it   6 1.00000000   0.524E-02       0.001       32.256   0.100E-07
     TRS4 it   7 1.00000000   0.609E-04       0.001       32.256   0.100E-07
     TRS4 it   8 1.00000000   0.109E-07       0.001       32.256   0.100E-07
     Final TRS4 iteration    8 1.00000000   0.109E-07
     Chemical potential (mu):       0.00504
 
 PAO| energy:  -7.7370727026952482      penalty:   1.2125550104366395E-005
 PAO|CG| trace_G_new    3.9498961631789071E-005
 PAO|CG| trace_G_prev    1.5512878776875087E-005
 PAO|CG| trace_G_mix    8.2714385043347813E-009
 PAO|CG| trace_D    1.9951423525878694E-005
 PAO|CG| trace_D_Gnew  -1.1197355925681473E-010
 PAO|CG| beta:    2.5456712942379958     
 PAO| norm of gradient:   6.2848199363059777E-003
 PAO| energy improvement:  -5.3250397717974352E-006
 PAO| step     32                   -7.737072703  0.393E-03  0.686E+00     0.090
 PAO|LS| adapt:  T F F
 PAO|LS| adapt: scan_steps:    0.0000000000000000        0.0000000000000000        0.0000000000000000     
[...]
     NS sqrt iter    4 1.00000000   0.282E-03       0.001      110.592
     NS sqrt iter    5 1.00000000   0.109E-09       0.001       36.864
     Symmetrizing Results
     Final NS sqrt iter    5 1.00000000   0.640E-11

     Est. extremal eigenvalues     -0.92601     1.35868  converged:  T
     TRS4 it   1 1.00000000   0.800E+00       0.000       16.128   0.100E-07
     TRS4 it   2 1.00000000   0.569E+00       0.000       32.256   0.100E-07
     TRS4 it   3 1.00000000   0.400E+00       0.000       32.256   0.100E-07
     TRS4 it   4 1.00000000   0.237E+00       0.000       32.256   0.100E-07
     TRS4 it   5 1.00000000   0.102E+00       0.000       32.256   0.100E-07
     TRS4 it   6 1.00000000   0.233E-01       0.000       32.256   0.100E-07
     TRS4 it   7 1.00000000   0.162E-02       0.000       32.256   0.100E-07
     TRS4 it   8 1.00000000   0.963E-05       0.000       32.256   0.100E-07
     TRS4 it   9 1.00000000   0.396E-09       0.000       32.256   0.100E-07
     Final TRS4 iteration    9 1.00000000   0.396E-09
     Chemical potential (mu):      -0.07680
 
 PAO| energy:  -7.7364841589994624      penalty:   2.8466453700435718E-011
 PAO|CG| warming up with steepest descent
 PAO|CG| beta:    0.0000000000000000     
 PAO| norm of gradient:   7.1125860440271975E-006
 PAO| energy improvement:  -1.0997425192726951E-011
 PAO| step    882                   -7.736484159  0.445E-06  0.254E+00     0.053
 PAO| converged after          882  steps :-)
 PAO| Recalculating energy after mixing.

     Lanczos converged:  T threshold:   0.100E-02
     Est. extremal eigenvalues:    0.250E+01   0.236E+00
     Est. condition number :    0.106E+02

 Order=           3
     NS sqrt iter    1 1.00000000   0.630E+00       0.001       64.512
     NS sqrt iter    2 1.00000000   0.263E+00       0.001      110.592
     NS sqrt iter    3 1.00000000   0.406E-01       0.001      110.592
     NS sqrt iter    4 1.00000000   0.282E-03       0.001      110.592
     NS sqrt iter    5 1.00000000   0.109E-09       0.001       36.864
     Symmetrizing Results
     Final NS sqrt iter    5 1.00000000   0.640E-11

     Est. extremal eigenvalues     -0.92601     1.35868  converged:  T
     TRS4 it   1 1.00000000   0.800E+00       0.000       16.128   0.100E-07
     TRS4 it   2 1.00000000   0.569E+00       0.000       32.256   0.100E-07
     TRS4 it   3 1.00000000   0.400E+00       0.000       32.256   0.100E-07
     TRS4 it   4 1.00000000   0.237E+00       0.000       32.256   0.100E-07
     TRS4 it   5 1.00000000   0.102E+00       0.000       32.256   0.100E-07
     TRS4 it   6 1.00000000   0.233E-01       0.000       32.256   0.100E-07
     TRS4 it   7 1.00000000   0.162E-02       0.000       32.256   0.100E-07
     TRS4 it   8 1.00000000   0.964E-05       0.000       32.256   0.100E-07
     TRS4 it   9 1.00000000   0.396E-09       0.000       32.256   0.100E-07
     Final TRS4 iteration    9 1.00000000   0.396E-09
     Chemical potential (mu):      -0.07680
 
 PAO| energy:  -7.7364841589967126      penalty:   2.8759690125247027E-011
 PAO| Writing restart file.
     Est. extremal eigenvalues     -0.92601     1.35868  converged:  T
     TRS4 it   1 1.00000000   0.800E+00       0.000       16.128   0.100E-07
     TRS4 it   2 1.00000000   0.569E+00       0.000       32.256   0.100E-07
     TRS4 it   3 1.00000000   0.400E+00       0.000       32.256   0.100E-07
     TRS4 it   4 1.00000000   0.237E+00       0.000       32.256   0.100E-07
     TRS4 it   5 1.00000000   0.102E+00       0.000       32.256   0.100E-07
     TRS4 it   6 1.00000000   0.233E-01       0.000       32.256   0.100E-07
     TRS4 it   7 1.00000000   0.162E-02       0.000       32.256   0.100E-07
     TRS4 it   8 1.00000000   0.964E-05       0.000       32.256   0.100E-07
     TRS4 it   9 1.00000000   0.396E-09       0.000       32.256   0.100E-07
     Final TRS4 iteration    9 1.00000000   0.396E-09
     Chemical potential (mu):      -0.07680

 SCF     1       -34.444353174       -34.444353174    1.757572

*********************************************************
 Using MIXING_FRACTION=0.450 to mix KS matrix:  iscf=  2
 KS_nw=0.450*KS + 0.550*KS_old
*********************************************************
     Est. extremal eigenvalues     -0.92601     1.35868  converged:  T
     TRS4 it   1 1.00000000   0.800E+00       0.000       16.128   0.100E-07
     TRS4 it   2 1.00000000   0.569E+00       0.000       32.256   0.100E-07
     TRS4 it   3 1.00000000   0.400E+00       0.000       32.256   0.100E-07
     TRS4 it   4 1.00000000   0.237E+00       0.000       32.256   0.100E-07
     TRS4 it   5 1.00000000   0.102E+00       0.000       32.256   0.100E-07
     TRS4 it   6 1.00000000   0.233E-01       0.000       32.256   0.100E-07
     TRS4 it   7 1.00000000   0.162E-02       0.000       32.256   0.100E-07
     TRS4 it   8 1.00000000   0.964E-05       0.000       32.256   0.100E-07
     TRS4 it   9 1.00000000   0.396E-09       0.000       32.256   0.100E-07
     Final TRS4 iteration    9 1.00000000   0.396E-09
     Chemical potential (mu):      -0.07680

 SCF     2       -34.444353174        -0.000000000    1.631395


 SCF run converged in     2 steps.

 PAO| Storing density matrix for ASPC guess in slot:           1

 ENERGY| Total FORCE_EVAL ( QS ) energy [a.u.]:              -34.444353173777984

 -------------------------------------------------------------------------------
 -                                                                             -
 -                                DBCSR STATISTICS                             -
 -                                                                             -
 -------------------------------------------------------------------------------
 COUNTER                                    TOTAL       BLAS       SMM       ACC
 flops     5 x     5 x     4                32000       0.0%    100.0%      0.0%
 flops    13 x     5 x     4                33280       0.0%    100.0%      0.0%
 flops     5 x    13 x     4                33280       0.0%    100.0%      0.0%
 flops    13 x    13 x     4                64896       0.0%    100.0%      0.0%
 flops     4 x     4 x     5              6904320       0.0%    100.0%      0.0%
 flops     5 x     4 x     5              8451200       0.0%    100.0%      0.0%
 flops     4 x     4 x    13              8975616       0.0%    100.0%      0.0%
 flops    13 x     4 x     5             10986560       0.0%    100.0%      0.0%
 flops     5 x     4 x    13             10986560       0.0%    100.0%      0.0%
 flops     5 x     4 x     4             13159840       0.0%    100.0%      0.0%
 flops    13 x     4 x    13             14282528       0.0%    100.0%      0.0%
 flops    13 x     4 x     4             17208256       0.0%    100.0%      0.0%
 flops     4 x     4 x     4            874176384       0.0%    100.0%      0.0%
 flops inhomo. stacks                           0       0.0%      0.0%      0.0%
 flops total                       965.294720E+06       0.0%    100.0%      0.0%
 flops max/rank                    965.294720E+06       0.0%    100.0%      0.0%
 matmuls inhomo. stacks                         0       0.0%      0.0%      0.0%
 matmuls total                            7113258       0.0%    100.0%      0.0%
 number of processed stacks                 56750       0.0%    100.0%      0.0%
 average stack size                                     0.0     125.3       0.0
 marketing flops                     1.577660E+09
 -------------------------------------------------------------------------------
 # multiplications                          47521
 max memory usage/rank             506.818560E+06
 # max total images/rank                        1
 # max 3D layers                                1
 # MPI messages exchanged                       0
 -------------------------------------------------------------------------------

 -------------------------------------------------------------------------------
 -                                                                             -
 -                                DBM STATISTICS                               -
 -                                                                             -
 -------------------------------------------------------------------------------
    M  x    N  x    K                                          COUNT     PERCENT
 -------------------------------------------------------------------------------

 -------------------------------------------------------------------------------
 -                                                                             -
 -                                GRID STATISTICS                              -
 -                                                                             -
 -------------------------------------------------------------------------------
 LP    KERNEL             BACKEND                              COUNT     PERCENT
 2     collocate ortho    REF                                  60864      30.72%
 2     integrate ortho    REF                                  60864      30.72%
 3     collocate ortho    REF                                  31264      15.78%
 3     integrate ortho    REF                                  31264      15.78%
 4     collocate ortho    REF                                   6944       3.50%
 4     integrate ortho    REF                                   6944       3.50%
 0     collocate general  REF                                      6       0.00%
 -------------------------------------------------------------------------------

 MEMORY| Estimated peak process memory [MiB]                                 484

 -------------------------------------------------------------------------------
 -                                                                             -
 -                           R E F E R E N C E S                               -
 -                                                                             -
 -------------------------------------------------------------------------------
 
 CP2K version 2023.1 (Development Version), the CP2K developers group (2023).
 CP2K is freely available from https://www.cp2k.org/ .

 Kuehne,Thomas D.; Iannuzzi,Marcella; Del Ben,Mauro;
 Rybkin,Vladimir V.; Seewald,Patrick; Stein,Frederick; Laino,Teodoro;
 Khaliullin,Rustam Z.; Schuett,Ole; Schiffmann,Florian; Golze,Dorothea;
 Wilhelm,Jan; Chulkov,Sergey; Bani-Hashemian,Mohammad Hossein;
 Weber,Valery; Borstnik,Urban; Taillefumier,Mathieu;
 Jakobovits,Alice Shoshana; Lazzaro,Alfio; Pabst,Hans; Mueller,Tiziano;
 Schade,Robert; Guidon,Manuel; Andermatt,Samuel; Holmberg,Nico;
 Schenter,Gregory K.; Hehn,Anna; Bussy,Augustin; Belleflamme,Fabian;
 Tabacchi,Gloria; Gloess,Andreas; Lass,Michael; Bethune,Iain;
 Mundy,Christopher J.; Plessl,Christian; Watkins,Matt;
 VandeVondele,Joost; Krack,Matthias; Hutter,Juerg. 
 The Journal of Chemical Physics, 152 (19), (2020). 
 CP2K: An electronic structure and molecular dynamics software package -
 Quickstep: Efficient and accurate electronic structure calculations.
 https://doi.org/10.1063/5.0007045

 Schuett, O; VandeVondele, J. 
 Journal of Chemical Theory and Computation, 14, (2018). 
 Machine Learning Adaptive Basis Sets for Efficient Large Scale
 Density Functional Theory Simulation.
 https://doi.org/10.1021/acs.jctc.8b00378

 Schuett, Ole; Messmer, Peter; Hutter, Juerg; VandeVondele, Joost. 
 Electronic Structure Calculations on Graphics Processing Units, John
 Wiley & Sons, Ltd, 173-190 (2016). 
 GPU-Accelerated Sparse Matrix-Matrix Multiplication for
 Linear Scaling Density Functional Theory.
 https://doi.org/10.1002/9781118670712.ch8

 Heinecke, A; Henry, G; Hutchinson, M; Pabst, H. 
 Proceedings of Intl. Supercomputing Conference, 981-991 (2016). 
 LIBXSMM: Accelerating Small Matrix Multiplications
 by Runtime Code Generation.
 https://doi.org/10.1109/SC.2016.83

 Borstnik, U; VandeVondele, J; Weber, V; Hutter, J. 
 PARALLEL COMPUTING, 40 (5-6), 47-58 (2014). 
 Sparse matrix multiplication: The distributed block-compressed sparse
 row library.
 https://doi.org/10.1016/j.parco.2014.03.012

 Hutter, J; Iannuzzi, M; Schiffmann, F; VandeVondele, J. 
 WIREs Comput Mol Sci., 4 (1), 15-25 (2014). 
 CP2K: atomistic simulations of condensed matter systems.
 https://doi.org/10.1002/wcms.1159

 VandeVondele, J; Borstnik, U; Hutter, J. 
 JOURNAL OF CHEMICAL THEORY AND COMPUTATION, 8 (10), 3565-3573 (2012). 
 Linear Scaling Self-Consistent Field Calculations with Millions of Atoms
 in the Condensed Phase.
 https://doi.org/10.1021/ct200897x

 VandeVondele, J; Hutter, J. 
 JOURNAL OF CHEMICAL PHYSICS, 127 (11), 114105 (2007). 
 Gaussian basis sets for accurate calculations on molecular systems in
 gas and condensed phases.
 https://doi.org/10.1063/1.2770708

 Krack, M. 
 THEORETICAL CHEMISTRY ACCOUNTS, 114 (1-3), 145-152 (2005). 
 Pseudopotentials for H to Kr optimized for gradient-corrected
 exchange-correlation functionals.
 https://doi.org/10.1007/s00214-005-0655-y

 VandeVondele, J; Krack, M; Mohamed, F; Parrinello, M; Chassaing, T;
 Hutter, J. COMPUTER PHYSICS COMMUNICATIONS, 167 (2), 103-128 (2005). 
 QUICKSTEP: Fast and accurate density functional calculations using a
 mixed Gaussian and plane waves approach.
 https://doi.org/10.1016/j.cpc.2004.12.014

 Frigo, M; Johnson, SG. 
 PROCEEDINGS OF THE IEEE, 93 (2), 216-231 (2005). 
 The design and implementation of FFTW3.
 https://doi.org/10.1109/JPROC.2004.840301

 Niklasson, AMN; Tymczak, CJ; Challacombe, M. 
 JOURNAL OF CHEMICAL PHYSICS, 118 (19), 8611-8620 (2003). 
 Trace resetting density matrix purification in O(N)
 self-consistent-field theory.
 https://doi.org/10.1063/1.1559913

 Hartwigsen, C; Goedecker, S; Hutter, J. 
 PHYSICAL REVIEW B, 58 (7), 3641-3662 (1998). 
 Relativistic separable dual-space Gaussian pseudopotentials from H to Rn.
 https://doi.org/10.1103/PhysRevB.58.3641

 Lippert, G; Hutter, J; Parrinello, M. 
 MOLECULAR PHYSICS, 92 (3), 477-487 (1997). 
 A hybrid Gaussian and plane wave density functional scheme.
 https://doi.org/10.1080/002689797170220

 Perdew, JP; Burke, K; Ernzerhof, M. 
 PHYSICAL REVIEW LETTERS, 77 (18), 3865-3868 (1996). 
 Generalized gradient approximation made simple.
 https://doi.org/10.1103/PhysRevLett.77.3865

 Goedecker, S; Teter, M; Hutter, J. 
 PHYSICAL REVIEW B, 54 (3), 1703-1710 (1996). 
 Separable dual-space Gaussian pseudopotentials.
 https://doi.org/10.1103/PhysRevB.54.1703


 -------------------------------------------------------------------------------
 -                                                                             -
 -                                T I M I N G                                  -
 -                                                                             -
 -------------------------------------------------------------------------------
 SUBROUTINE                       CALLS  ASD         SELF TIME        TOTAL TIME
                                MAXIMUM       AVERAGE  MAXIMUM  AVERAGE  MAXIMUM
 CP2K                                 1  1.0    0.009    0.009   87.213   87.213
 qs_energies                          1  2.0    0.000    0.000   86.402   86.402
 ls_scf                               1  3.0    0.000    0.000   86.137   86.137
 ls_scf_main                          7  4.0    0.002    0.002   58.279   58.279
 ls_scf_dm_to_ks                     15  5.0    0.001    0.001   58.001   58.001
 qs_ks_update_qs_env                 16  6.0    0.000    0.000   47.282   47.282
 rebuild_ks_matrix                   16  7.0    0.000    0.000   47.281   47.281
 qs_ks_build_kohn_sham_matrix        16  8.0    0.006    0.006   47.281   47.281
 qs_vxc_create                       16  9.0    0.001    0.001   28.656   28.656
 xc_vxc_pw_create                    16 10.0    0.520    0.520   28.655   28.655
 pw_transfer                        305 11.1    0.045    0.045   24.466   24.466
 fft_wrap_pw1pw2                    273 12.3    0.007    0.007   23.777   23.777
 fft_wrap_pw1pw2_200                177 13.7    2.562    2.562   23.027   23.027
 pao_update                           7  4.0    0.019    0.019   22.051   22.051
 pao_calc_energy                    888  5.0    0.007    0.007   19.910   19.910
 xc_pw_derive                        96 12.0    0.003    0.003   17.302   17.302
 xc_rho_set_and_dset_create          16 11.0    0.825    0.825   17.020   17.020
 qs_rho_update_rho_low               16  6.0    0.000    0.000   16.397   16.397
 calculate_rho_elec                  16  7.0    0.133    0.133   16.397   16.397
 dbcsr_multiply_generic           47521  8.4    0.952    0.952   15.646   15.646
 sum_up_and_integrate                16  9.0    0.359    0.359   13.922   13.922
 integrate_v_rspace                  16 10.0    0.002    0.002   13.563   13.563
 grid_integrate_task_list            16 11.0   11.121   11.121   11.121   11.121
 xc_pw_divergence                    16 11.0    0.001    0.001   10.742   10.742
 grid_collocate_task_list            16  8.0   10.723   10.723   10.723   10.723
 pao_dm_trs4                        888  6.0    0.006    0.006   10.519   10.519
 fft3d_s                            274 14.2   10.208   10.208   10.229   10.229
 density_matrix_trs4                903  7.0    0.336    0.336   10.180   10.180
 ls_scf_init_matrix_S               895  7.0    0.006    0.006    9.367    9.367
 pao_rebuild_S                      888  6.0    0.003    0.003    9.267    9.267
 matrix_sqrt_Newton_Schulz          895  8.0    0.245    0.245    8.416    8.416
 make_m2s                         95042  9.4    0.413    0.413    6.065    6.065
 xc_functional_eval                  16 12.0    0.001    0.001    6.036    6.036
 pbe_lda_eval                        16 13.0    6.036    6.036    6.036    6.036
 pw_scatter_s                       144 14.7    5.990    5.990    5.990    5.990
 multiply_cannon                  47521  9.4    2.421    2.421    5.792    5.792
 pao_guess_initial_P                  1  4.0    0.000    0.000    5.689    5.689
 pao_read_preopt_dm                   1  5.0    0.000    0.000    5.689    5.689
 density_rs2pw                       16  8.0    0.002    0.002    5.541    5.541
 make_images                      95042 10.4    1.447    1.447    5.389    5.389
 pw_gather_s                        129 13.8    4.901    4.901    4.901    4.901
 pw_derive                           96 13.0    3.587    3.587    3.587    3.587
 arnoldi_extremal                  1798  8.5    0.008    0.008    3.457    3.457
 arnoldi_normal_ev                 1798  9.5    0.022    0.022    3.449    3.449
 build_subspace                    1798 10.5    0.141    0.141    2.696    2.696
 dbcsr_matrix_vector_mult         43147 11.5    0.315    0.315    2.515    2.515
 pw_copy                            192 11.8    2.513    2.513    2.513    2.513
 potential_pw2rs                     16 11.0    0.006    0.006    2.440    2.440
 pao_calc_AB                       1170  5.8    0.002    0.002    2.112    2.112
 pao_calc_AB_equi                  1170  6.8    0.055    0.055    2.110    2.110
 pao_calc_grad_lnv_wrt_AB           281  7.0    0.013    0.013    1.932    1.932
 pw_axpy                            144 10.3    1.790    1.790    1.790    1.790
 -------------------------------------------------------------------------------

 The number of warnings for this run is : 0
 
 -------------------------------------------------------------------------------
  **** **** ******  **  PROGRAM ENDED AT                 2023-02-01 10:49:22.857
 ***** ** ***  *** **   PROGRAM RAN ON                                    moritz
 **    ****   ******    PROGRAM RAN BY                                       ole
 ***** **    ** ** **   PROGRAM PROCESS ID                                148786
  **** **  *******  **  PROGRAM STOPPED IN /home/ole/git/pao_ml_equivar/2H2O_MD/
                                           frame_1475
