 DBCSR| CPU Multiplication driver                                           BLAS
 DBCSR| Multrec recursion limit                                              512
 DBCSR| Multiplication stack size                                           1000
 DBCSR| Maximum elements for images                                    UNLIMITED
 DBCSR| Multiplicative factor virtual images                                   1
 DBCSR| Use multiplication densification                                       T
 DBCSR| Multiplication size stacks                                             3


  **** **** ******  **  PROGRAM STARTED AT               2019-03-28 17:32:18.644
 ***** ** ***  *** **   PROGRAM STARTED ON        oleschuett.zrh.corp.google.com
 **    ****   ******    PROGRAM STARTED BY                            oleschuett
 ***** **    ** ** **   PROGRAM PROCESS ID                                 30732
  **** **  *******  **  PROGRAM STARTED IN /usr/local/google/home/oleschuett/git
                                           /pao_ml_equivar/2H2O_rotations/phi_13

 CP2K| version string:                    CP2K version 7.0 (Development Version)
 CP2K| source code revision number:                                git:d9814d431
 CP2K| cp2kflags: libint fftw3 libxc libderiv_max_am1=5 libint_max_am=6         
 CP2K| is freely available from                            https://www.cp2k.org/
 CP2K| Program compiled at                          Mon Mar 25 16:50:07 CET 2019
 CP2K| Program compiled on                        oleschuett.zrh.corp.google.com
 CP2K| Program compiled for                                                local
 CP2K| Data directory path       /usr/local/google/home/oleschuett/git/cp2k/data
 CP2K| Input file name                                            2H2O_pao44.inp

 GLOBAL| Force Environment number                                              1
 GLOBAL| Basis set file name                                        BASIS_MOLOPT
 GLOBAL| Potential file name                                      GTH_POTENTIALS
 GLOBAL| MM Potential file name                                     MM_POTENTIAL
 GLOBAL| Coordinate file name                                         coords.xyz
 GLOBAL| Method name                                                        CP2K
 GLOBAL| Project name                                                 2H2O_pao44
 GLOBAL| Preferred FFT library                                             FFTW3
 GLOBAL| Preferred diagonalization lib.                                       SL
 GLOBAL| Run type                                                         ENERGY
 GLOBAL| All-to-all communication in single precision                          F
 GLOBAL| FFTs using library dependent lengths                                  F
 GLOBAL| Global print level                                                  LOW
 GLOBAL| MPI I/O enabled                                                       T
 GLOBAL| Total number of message passing processes                             1
 GLOBAL| Number of threads for this process                                    1
 GLOBAL| This output is from process                                           0
 GLOBAL| CPU model name :  Intel(R) Xeon(R) CPU E5-1650 v4 @ 3.60GHz

 MEMORY| system memory details [Kb]
 MEMORY|                        rank 0           min           max       average
 MEMORY| MemTotal             65953612      65953612      65953612      65953612
 MEMORY| MemFree               4819628       4819628       4819628       4819628
 MEMORY| Buffers               2548000       2548000       2548000       2548000
 MEMORY| Cached               25390988      25390988      25390988      25390988
 MEMORY| Slab                  3623568       3623568       3623568       3623568
 MEMORY| SReclaimable          2422904       2422904       2422904       2422904
 MEMORY| MemLikelyFree        35181520      35181520      35181520      35181520


 GENERATE|  Preliminary Number of Bonds generated:                             0
 GENERATE|  Achieved consistency in connectivity generation.

 *******************************************************************************
 *******************************************************************************
 **                                                                           **
 **     #####                         ##              ##                      **
 **    ##   ##            ##          ##              ##                      **
 **   ##     ##                       ##            ######                    **
 **   ##     ##  ##   ##  ##   #####  ##  ##   ####   ##    #####    #####    **
 **   ##     ##  ##   ##  ##  ##      ## ##   ##      ##   ##   ##  ##   ##   **
 **   ##  ## ##  ##   ##  ##  ##      ####     ###    ##   ######   ######    **
 **    ##  ###   ##   ##  ##  ##      ## ##      ##   ##   ##       ##        **
 **     #######   #####   ##   #####  ##  ##  ####    ##    #####   ##        **
 **           ##                                                    ##        **
 **                                                                           **
 **                                                ... make the atoms dance   **
 **                                                                           **
 **            Copyright (C) by CP2K developers group (2000 - 2018)           **
 **                                                                           **
 *******************************************************************************


 TOTAL NUMBERS AND MAXIMUM NUMBERS

  Total number of            - Atomic kinds:                                   2
                             - Atoms:                                          6
                             - Shell sets:                                     6
                             - Shells:                                        22
                             - Primitive Cartesian functions:                 42
                             - Cartesian basis functions:                     48
                             - Spherical basis functions:                     46

  Maximum angular momentum of- Orbital basis functions:                        2
                             - Local part of the GTH pseudopotential:          2
                             - Non-local part of the GTH pseudopotential:      0

 ------------------------------ Linear scaling SCF -----------------------------
 eps_scf:                                                              0.100E-07
 eps_filter:                                                           0.100E-07
 mixing_fraction:                                                      0.450E+00
 max_scf:                                                                     25
 fixed chemical potential (mu)                                                 F
 has unit metric:                                                              F
 Computing inv(S):                                                             T
 Computing sqrt(S):                                                            T
 Computing s preconditioner                                                    F
 sign sqrt order:                                                              3
 Extrapolation order:                                                          1
 Use single precision matrices                                                 F
 S preconditioner type                                                      NONE
 Polarized Atomic Orbitals (PAO)                                               T
 Purification method                                   Trace resetting 4th order
 Cluster type                                                             ATOMIC
 Computing Chebyshev                                                       FALSE
 Using PAO                                                                     T
 -------------------------------------------------------------------------------

 
 PAO|                                  EPS_PAO                           0.1E-04
 PAO|                                  MIXING                            0.5E+00
 PAO|                                  MAX_PAO                              1000
 PAO|                                  MAX_CYCLES                           1000
 PAO|                                  PARAMETERIZATION                   DIRECT
 PAO|                                  PRECONDITION                            F
 PAO|                                  REGULARIZATION                    0.0E+00
 PAO|                                  EPS_PGF                           0.1E-09
 PAO|                                  PENALTY_DISTANCE                  0.1E+00
 PAO|                                  PENALTY_STRENGTH                  0.5E-02
 PAO|                                  LINPOT_PRECONDITION_DELTA         0.0E+00
 PAO|                                  LINPOT_INITGUESS_DELT             0.0E+00
 PAO|                                  LINPOT_REGULARIZATION_DELTA       0.0E+00
 PAO|                                  LINPOT_REGULARIZATION_STRENGTH    0.0E+00
 PAO|                                  OPTIMIZER                              CG
 PAO|                                  CG_INIT_STEPS                           2
 PAO|                                  CG_RESET_LIMIT                    0.1E+00
 PAO|                                  CHECK_UNITARY_TOL                -0.1E+01
 PAO|                                  CHECK_GRADIENT_TOL               -0.1E+01
 PAO|                                  NUM_GRADIENT_ORDER                      2
 PAO|                                  NUM_GRADIENT_EPS                  0.1E-07
 PAO|                                  PRINT%RESTART%WRITE_CYCLES            100
 PAO|                                  RESTART_FILE 
 PAO|                                  PREOPT_DM_FILE 2H2O_ref_LS_DM_SPIN_1_RESTART.dm
 PAO|                                  MACHINE_LEARNING%METHOD        GAUSSIAN_P
 PAO|                                  MACHINE_LEARNING%PRIOR               ZERO
 PAO|                                  MACHINE_LEARNING%DESCRIPTOR     POTENTIAL
 PAO|                                  MACHINE_LEARNING%TOLERANCE        0.1E-01
 PAO|                                  MACHINE_LEARNING%GP_NOISE_VAR     0.1E+00
 PAO|                                  MACHINE_LEARNING%GP_SCALE         0.5E-01
 

 Calculating atomic Fock matrix for atomic kind: O

 Electronic structure
    Total number of core electrons                                          2.00
    Total number of valence electrons                                       6.00
    Total number of electrons                                               8.00
    Multiplicity                                                   not specified
    S   [  2.00] 2.00
    P      4.00


 *******************************************************************************
                  Iteration          Convergence                     Energy [au]
 *******************************************************************************
                          1        0.708315                     -15.576645311500
                          2        0.608879                     -15.587933561584
                          3        0.102828E-01                 -15.656849565404
                          4        0.113889E-02                 -15.656866888140
                          5        0.434197E-03                 -15.656867072159
                          6        0.263771E-03                 -15.656867091904
                          7        0.478536E-06                 -15.656867103452

 Energy components [Hartree]           Total Energy ::          -15.656867103452
                                        Band Energy ::           -3.000198112285
                                     Kinetic Energy ::           11.759971203220
                                   Potential Energy ::          -27.416838306672
                                      Virial (-V/T) ::            2.331369510426
                                        Core Energy ::          -26.140716385623
                                          XC Energy ::           -3.154051012914
                                     Coulomb Energy ::           13.637900295084
                       Total Pseudopotential Energy ::          -37.935781716540
                       Local Pseudopotential Energy ::          -39.218907440693
                    Nonlocal Pseudopotential Energy ::            1.283125724153
                                        Confinement ::            0.350941276976

 Orbital energies  State     L     Occupation   Energy[a.u.]          Energy[eV]

                       1     0          2.000      -0.864471          -23.523463

                       1     1          4.000      -0.317814           -8.648154


 Total Electron Density at R=0:                                         0.000068

 Calculating atomic Fock matrix for atomic kind: H

 Electronic structure
    Total number of core electrons                                          0.00
    Total number of valence electrons                                       1.00
    Total number of electrons                                               1.00
    Multiplicity                                                   not specified
    S      1.00


 *******************************************************************************
                  Iteration          Convergence                     Energy [au]
 *******************************************************************************
                          1        0.437545E-02                  -0.424159432110
                          2        0.531356E-03                  -0.424178438213
                          3        0.259176E-06                  -0.424178722480

 Energy components [Hartree]           Total Energy ::           -0.424178722480
                                        Band Energy ::           -0.199015229016
                                     Kinetic Energy ::            0.464007633961
                                   Potential Energy ::           -0.888186356441
                                      Virial (-V/T) ::            1.914163240935
                                        Core Energy ::           -0.479160803564
                                          XC Energy ::           -0.244352904054
                                     Coulomb Energy ::            0.299334985138
                       Total Pseudopotential Energy ::           -0.962295316385
                       Local Pseudopotential Energy ::           -0.962295316385
                    Nonlocal Pseudopotential Energy ::            0.000000000000
                                        Confinement ::            0.191268788606

 Orbital energies  State     L     Occupation   Energy[a.u.]          Energy[eV]

                       1     0          1.000      -0.199015           -5.415480


 Total Electron Density at R=0:                                         0.242907
 PAO| Made initial guess for matrix_X with norm:   4.8989794855663558     

     Lanczos converged:  T threshold:   0.100E-02
     Est. extremal eigenvalues:    0.337E+01   0.111E+00
     Est. condition number :    0.302E+02
     NS sqrt iter    1 1.00000000   0.821E+00       0.002       38.875
     NS sqrt iter    2 1.00000000   0.440E+00       0.002       67.255
     NS sqrt iter    3 1.00000000   0.171E+00       0.002       68.122
     NS sqrt iter    4 1.00000000   0.211E-01       0.002       68.457
     NS sqrt iter    5 1.00000000   0.605E-04       0.002       60.231
     Final NS sqrt iter    5 1.00000000   0.612E-08

 PAO| Read restart DM 2H2O_ref_LS_DM_SPIN_1_RESTART.dm with checksum:    71.992787719741699     
 PAO| Quickstep energy from restart density:  -34.450732582304170     
 PAO| ======================= Iteration:         1 =============================

     Lanczos converged:  T threshold:   0.100E-02
     Est. extremal eigenvalues:    0.337E+01   0.111E+00
     Est. condition number :    0.302E+02
     NS sqrt iter    1 1.00000000   0.821E+00       0.002       38.498
     NS sqrt iter    2 1.00000000   0.440E+00       0.003       32.361
     NS sqrt iter    3 1.00000000   0.171E+00       0.002       56.736
     NS sqrt iter    4 1.00000000   0.211E-01       0.002       59.580
     NS sqrt iter    5 1.00000000   0.605E-04       0.002       54.869
     Final NS sqrt iter    5 1.00000000   0.612E-08

     Est. extremal eigenvalues     -0.91985     1.93810  converged:  T
     TRS4 it   1 1.00000000   0.898E+00       0.001       16.128   0.100E-07
     TRS4 it   2 1.00000000   0.706E+00       0.001       29.316   0.100E-07
     TRS4 it   3 1.00000000   0.504E+00       0.001       32.166   0.100E-07
     TRS4 it   4 1.00000000   0.317E+00       0.001       32.256   0.100E-07
     TRS4 it   5 1.00000000   0.158E+00       0.001       32.256   0.100E-07
     TRS4 it   6 1.00000000   0.500E-01       0.001       32.256   0.100E-07
     TRS4 it   7 1.00000000   0.694E-02       0.001       32.256   0.100E-07
     TRS4 it   8 1.00000000   0.189E-03       0.001       32.256   0.100E-07
     TRS4 it   9 1.00000000   0.159E-06       0.001       32.256   0.100E-07
     TRS4 it  10 1.00000000   0.114E-12       0.001       32.256   0.100E-07
     Final TRS4 iteration   10 1.00000000   0.114E-12
     Chemical potential (mu):      -0.06462
 
 PAO| energy:  -7.6230943219982779      penalty:   6.7176436460226791E-033
 PAO|CG| warming up with steepest descent
 PAO|CG| beta:    0.0000000000000000     
 PAO| norm of gradient:  0.78381604964274243     
 PAO|LS| adapt:  T F F
 PAO|LS| adapt: scan_steps:    0.0000000000000000        0.0000000000000000        0.0000000000000000     
 PAO|LS| adapt: energies:   -7.6230943219982779        0.0000000000000000        0.0000000000000000     
 PAO| ======================= Iteration:         2 =============================

     Lanczos converged:  T threshold:   0.100E-02
     Est. extremal eigenvalues:    0.328E+01   0.124E+00
     Est. condition number :    0.265E+02
     NS sqrt iter    1 1.00000000   0.805E+00       0.002       38.264
     NS sqrt iter    2 1.00000000   0.425E+00       0.002       65.619
     NS sqrt iter    3 1.00000000   0.153E+00       0.002       61.290
     NS sqrt iter    4 1.00000000   0.147E-01       0.002       51.190
     NS sqrt iter    5 1.00000000   0.206E-04       0.002       51.903
     Final NS sqrt iter    5 1.00000000   0.653E-09

     Est. extremal eigenvalues     -0.92352     1.88384  converged:  T
     TRS4 it   1 1.00000000   0.897E+00       0.001       16.128   0.100E-07
     TRS4 it   2 1.00000000   0.688E+00       0.001       32.256   0.100E-07
     TRS4 it   3 1.00000000   0.490E+00       0.001       32.256   0.100E-07
     TRS4 it   4 1.00000000   0.298E+00       0.001       32.256   0.100E-07
     TRS4 it   5 1.00000000   0.139E+00       0.001       32.256   0.100E-07
     TRS4 it   6 1.00000000   0.391E-01       0.001       32.256   0.100E-07
     TRS4 it   7 1.00000000   0.428E-02       0.001       32.256   0.100E-07
     TRS4 it   8 1.00000000   0.724E-04       0.001       32.256   0.100E-07
     TRS4 it   9 1.00000000   0.233E-07       0.001       32.256   0.100E-07
     Final TRS4 iteration    9 1.00000000   0.233E-07
     Chemical potential (mu):      -0.05271
 
 PAO| energy:  -7.6786388873656479      penalty:   2.2542112927867641E-008
 PAO|LS| adapt:  T T F
 PAO|LS| adapt: scan_steps:    0.0000000000000000       0.10000000000000001        0.0000000000000000     
 PAO|LS| adapt: energies:   -7.6230943219982779       -7.6786388873656479        0.0000000000000000     
 PAO| ======================= Iteration:         3 =============================

     Lanczos converged:  T threshold:   0.100E-02
     Est. extremal eigenvalues:    0.319E+01   0.135E+00
     Est. condition number :    0.237E+02
     NS sqrt iter    1 1.00000000   0.787E+00       0.002       34.653
     NS sqrt iter    2 1.00000000   0.408E+00       0.002       61.860
     NS sqrt iter    3 1.00000000   0.136E+00       0.002       62.645
     NS sqrt iter    4 1.00000000   0.102E-01       0.002       63.536
     NS sqrt iter    5 1.00000000   0.732E-05       0.002       52.692
     Final NS sqrt iter    5 1.00000000   0.839E-10

     Est. extremal eigenvalues     -0.92695     1.83954  converged:  T
     TRS4 it   1 1.00000000   0.895E+00       0.003        6.400   0.100E-07
     TRS4 it   2 1.00000000   0.672E+00       0.001       32.256   0.100E-07
     TRS4 it   3 1.00000000   0.475E+00       0.001       32.256   0.100E-07
     TRS4 it   4 1.00000000   0.279E+00       0.001       32.256   0.100E-07
     TRS4 it   5 1.00000000   0.122E+00       0.001       30.847   0.100E-07
     TRS4 it   6 1.00000000   0.296E-01       0.001       32.256   0.100E-07
     TRS4 it   7 1.00000000   0.245E-02       0.001       32.256   0.100E-07
     TRS4 it   8 1.00000000   0.238E-04       0.001       32.256   0.100E-07
     TRS4 it   9 1.00000000   0.253E-08       0.001       32.256   0.100E-07
     Final TRS4 iteration    9 1.00000000   0.253E-08
     Chemical potential (mu):      -0.03984
 
 PAO| energy:  -7.7217374704401918      penalty:   3.6067402318321910E-007
 PAO|LS| adapt:  T T F
 PAO|LS| adapt: scan_steps:    0.0000000000000000       0.20000000000000001        0.0000000000000000     
 PAO|LS| adapt: energies:   -7.6230943219982779       -7.7217374704401918        0.0000000000000000     
 PAO| ======================= Iteration:         4 =============================

     Lanczos converged:  T threshold:   0.100E-02
     Est. extremal eigenvalues:    0.299E+01   0.153E+00
     Est. condition number :    0.196E+02
     NS sqrt iter    1 1.00000000   0.750E+00       0.002       41.624
     NS sqrt iter    2 1.00000000   0.374E+00       0.002       51.758
     NS sqrt iter    3 1.00000000   0.107E+00       0.002       64.932
     NS sqrt iter    4 1.00000000   0.511E-02       0.002       60.059
     NS sqrt iter    5 1.00000000   0.110E-05       0.002       52.235
     Final NS sqrt iter    5 1.00000000   0.204E-11

     Est. extremal eigenvalues     -0.93228     1.77357  converged:  T
     TRS4 it   1 1.00000000   0.892E+00       0.001       16.128   0.100E-07
     TRS4 it   2 1.00000000   0.645E+00       0.001       32.256   0.100E-07
     TRS4 it   3 1.00000000   0.448E+00       0.001       29.651   0.100E-07
     TRS4 it   4 1.00000000   0.244E+00       0.001       32.256   0.100E-07
     TRS4 it   5 1.00000000   0.906E-01       0.001       32.256   0.100E-07
     TRS4 it   6 1.00000000   0.159E-01       0.001       32.256   0.100E-07
     TRS4 it   7 1.00000000   0.671E-03       0.001       32.256   0.100E-07
     TRS4 it   8 1.00000000   0.172E-05       0.001       32.256   0.100E-07
     TRS4 it   9 1.00000000   0.132E-10       0.001       27.165   0.100E-07
     Final TRS4 iteration    9 1.00000000   0.132E-10
     Chemical potential (mu):      -0.01146
 
 PAO| energy:  -7.7689854161225940      penalty:   5.7707861016409729E-006
 PAO|LS| Need extra step
 PAO|LS| adapt:  T T F
 PAO|LS| adapt: scan_steps:    0.0000000000000000       0.40000000000000002        0.0000000000000000     
 PAO|LS| adapt: energies:   -7.6230943219982779       -7.7689854161225940        0.0000000000000000     
 PAO| ======================= Iteration:         5 =============================

     Lanczos converged:  T threshold:   0.100E-02
     Est. extremal eigenvalues:    0.263E+01   0.181E+00
     Est. condition number :    0.146E+02
     NS sqrt iter    1 1.00000000   0.685E+00       0.002       39.702
     NS sqrt iter    2 1.00000000   0.311E+00       0.002       58.931
     NS sqrt iter    3 1.00000000   0.662E-01       0.002       65.140
     NS sqrt iter    4 1.00000000   0.142E-02       0.002       65.523
     NS sqrt iter    5 1.00000000   0.292E-07       0.002       37.298
     Final NS sqrt iter    5 1.00000000   0.423E-08

     Est. extremal eigenvalues     -0.93351     1.69598  converged:  T
     TRS4 it   1 1.00000000   0.888E+00       0.001       16.128   0.100E-07
     TRS4 it   2 1.00000000   0.607E+00       0.001       32.162   0.100E-07
     TRS4 it   3 1.00000000   0.402E+00       0.001       25.789   0.100E-07
     TRS4 it   4 1.00000000   0.188E+00       0.001       31.943   0.100E-07
     TRS4 it   5 1.00000000   0.502E-01       0.001       31.576   0.100E-07
     TRS4 it   6 1.00000000   0.443E-02       0.001       32.256   0.100E-07
     TRS4 it   7 1.00000000   0.445E-04       0.001       32.256   0.100E-07
     TRS4 it   8 1.00000000   0.574E-08       0.001       32.256   0.100E-07
     Final TRS4 iteration    8 1.00000000   0.574E-08
     Chemical potential (mu):       0.03690
 
 PAO| energy:  -7.7141477822494169      penalty:   9.2332591471967456E-005
 PAO|LS| Need extra step
 PAO|LS| adapt:  T T T
 PAO|LS| adapt: scan_steps:    0.0000000000000000       0.40000000000000002       0.80000000000000004     
 PAO|LS| adapt: energies:   -7.6230943219982779       -7.7689854161225940       -7.7141477822494169     
 PAO|LS| adapt: suggested step_size:   0.49072289866976715     
 PAO|LS| adapt: predicted energy  -7.7741483122775286     
 PAO| ======================= Iteration:         6 =============================

     Lanczos converged:  T threshold:   0.100E-02
     Est. extremal eigenvalues:    0.290E+01   0.160E+00
     Est. condition number :    0.182E+02
     NS sqrt iter    1 1.00000000   0.733E+00       0.002       33.987
     NS sqrt iter    2 1.00000000   0.358E+00       0.002       64.273
     NS sqrt iter    3 1.00000000   0.956E-01       0.002       62.681
     NS sqrt iter    4 1.00000000   0.378E-02       0.003       41.683
     NS sqrt iter    5 1.00000000   0.480E-06       0.002       48.609
     Final NS sqrt iter    5 1.00000000   0.110E-10

     Est. extremal eigenvalues     -0.93376     1.75096  converged:  T
     TRS4 it   1 1.00000000   0.891E+00       0.001       16.128   0.100E-07
     TRS4 it   2 1.00000000   0.635E+00       0.001       28.442   0.100E-07
     TRS4 it   3 1.00000000   0.436E+00       0.001       32.256   0.100E-07
     TRS4 it   4 1.00000000   0.229E+00       0.001       32.256   0.100E-07
     TRS4 it   5 1.00000000   0.788E-01       0.001       32.256   0.100E-07
     TRS4 it   6 1.00000000   0.118E-01       0.001       32.256   0.100E-07
     TRS4 it   7 1.00000000   0.352E-03       0.001       32.256   0.100E-07
     TRS4 it   8 1.00000000   0.451E-06       0.001       32.154   0.100E-07
     TRS4 it   9 1.00000000   0.893E-12       0.001       32.256   0.100E-07
     Final TRS4 iteration    9 1.00000000   0.893E-12
     Chemical potential (mu):       0.00228
 
 PAO| energy:  -7.7734127082406212      penalty:   1.3071948612435244E-005
 PAO|CG| warming up with steepest descent
 PAO|CG| beta:    0.0000000000000000     
 PAO| norm of gradient:  0.41724945630367311     
 PAO| energy improvement: -0.15031838624234339     
 PAO| step      6                   -7.773412708  0.261E-01  0.491E+00     0.141
 PAO|LS| adapt:  T F F
 PAO|LS| adapt: scan_steps:    0.0000000000000000        0.0000000000000000        0.0000000000000000     
 PAO|LS| adapt: energies:   -7.7734127082406212        0.0000000000000000        0.0000000000000000     
 PAO| ======================= Iteration:         7 =============================

     Lanczos converged:  T threshold:   0.100E-02
     Est. extremal eigenvalues:    0.282E+01   0.173E+00
     Est. condition number :    0.162E+02
     NS sqrt iter    1 1.00000000   0.716E+00       0.002       38.822
     NS sqrt iter    2 1.00000000   0.338E+00       0.002       61.232
     NS sqrt iter    3 1.00000000   0.800E-01       0.002       49.330
     NS sqrt iter    4 1.00000000   0.231E-02       0.002       61.216
     NS sqrt iter    5 1.00000000   0.120E-06       0.003       22.554
     Final NS sqrt iter    5 1.00000000   0.120E-08

     Est. extremal eigenvalues     -0.93547     1.73606  converged:  T
     TRS4 it   1 1.00000000   0.890E+00       0.001       16.128   0.100E-07
     TRS4 it   2 1.00000000   0.632E+00       0.001       32.256   0.100E-07
     TRS4 it   3 1.00000000   0.436E+00       0.001       32.256   0.100E-07
     TRS4 it   4 1.00000000   0.230E+00       0.001       32.256   0.100E-07
     TRS4 it   5 1.00000000   0.795E-01       0.001       32.256   0.100E-07
     TRS4 it   6 1.00000000   0.117E-01       0.001       32.256   0.100E-07
     TRS4 it   7 1.00000000   0.330E-03       0.001       32.256   0.100E-07
     TRS4 it   8 1.00000000   0.376E-06       0.001       32.256   0.100E-07
     TRS4 it   9 1.00000000   0.606E-12       0.001       32.256   0.100E-07
     Final TRS4 iteration    9 1.00000000   0.606E-12
     Chemical potential (mu):       0.00422
 
 PAO| energy:  -7.7673699194306653      penalty:   1.9777629508330179E-005
 PAO|LS| adapt:  T F T
 PAO|LS| adapt: scan_steps:    0.0000000000000000        0.0000000000000000       0.49072289866976715     
 PAO|LS| adapt: energies:   -7.7734127082406212        0.0000000000000000       -7.7673699194306653     
 PAO| ======================= Iteration:         8 =============================

     Lanczos converged:  T threshold:   0.100E-02
     Est. extremal eigenvalues:    0.286E+01   0.166E+00
     Est. condition number :    0.172E+02
     NS sqrt iter    1 1.00000000   0.724E+00       0.002       38.635
     NS sqrt iter    2 1.00000000   0.348E+00       0.002       63.947
     NS sqrt iter    3 1.00000000   0.876E-01       0.002       62.881
     NS sqrt iter    4 1.00000000   0.297E-02       0.002       61.499
     NS sqrt iter    5 1.00000000   0.245E-06       0.002       46.481
     Final NS sqrt iter    5 1.00000000   0.702E-09

     Est. extremal eigenvalues     -0.93558     1.74294  converged:  T
     TRS4 it   1 1.00000000   0.890E+00       0.001       16.128   0.100E-07
     TRS4 it   2 1.00000000   0.633E+00       0.001       32.256   0.100E-07
     TRS4 it   3 1.00000000   0.435E+00       0.001       30.176   0.100E-07
     TRS4 it   4 1.00000000   0.229E+00       0.001       32.256   0.100E-07
     TRS4 it   5 1.00000000   0.789E-01       0.001       32.256   0.100E-07
     TRS4 it   6 1.00000000   0.118E-01       0.001       30.956   0.100E-07
     TRS4 it   7 1.00000000   0.349E-03       0.001       32.256   0.100E-07
     TRS4 it   8 1.00000000   0.437E-06       0.001       32.256   0.100E-07
     TRS4 it   9 1.00000000   0.831E-12       0.001       32.256   0.100E-07
     Final TRS4 iteration    9 1.00000000   0.831E-12
     Chemical potential (mu):       0.00278
 
 PAO| energy:  -7.7930215187261780      penalty:   1.4172212876505026E-005
 PAO|LS| adapt:  T T T
 PAO|LS| adapt: scan_steps:    0.0000000000000000       0.24536144933488357       0.49072289866976715     
 PAO|LS| adapt: energies:   -7.7734127082406212       -7.7930215187261780       -7.7673699194306653     
 PAO|LS| adapt: suggested step_size:   0.22898215197978605     
 PAO|LS| adapt: predicted energy  -7.7931223665111915     
 PAO| ======================= Iteration:         9 =============================

     Lanczos converged:  T threshold:   0.100E-02
     Est. extremal eigenvalues:    0.286E+01   0.166E+00
     Est. condition number :    0.173E+02
     NS sqrt iter    1 1.00000000   0.725E+00       0.002       35.415
     NS sqrt iter    2 1.00000000   0.349E+00       0.002       62.893
     NS sqrt iter    3 1.00000000   0.881E-01       0.002       64.948
     NS sqrt iter    4 1.00000000   0.302E-02       0.002       62.511
     NS sqrt iter    5 1.00000000   0.257E-06       0.002       51.441
     Final NS sqrt iter    5 1.00000000   0.274E-09

     Est. extremal eigenvalues     -0.93552     1.74344  converged:  T
     TRS4 it   1 1.00000000   0.890E+00       0.001       16.128   0.100E-07
     TRS4 it   2 1.00000000   0.633E+00       0.001       32.256   0.100E-07
     TRS4 it   3 1.00000000   0.435E+00       0.001       32.256   0.100E-07
     TRS4 it   4 1.00000000   0.229E+00       0.001       32.256   0.100E-07
     TRS4 it   5 1.00000000   0.789E-01       0.001       32.256   0.100E-07
     TRS4 it   6 1.00000000   0.118E-01       0.001       32.256   0.100E-07
     TRS4 it   7 1.00000000   0.350E-03       0.001       32.256   0.100E-07
     TRS4 it   8 1.00000000   0.440E-06       0.001       26.883   0.100E-07
     TRS4 it   9 1.00000000   0.842E-12       0.001       32.256   0.100E-07
     Final TRS4 iteration    9 1.00000000   0.842E-12
     Chemical potential (mu):       0.00271
 
 PAO| energy:  -7.7931467653502997      penalty:   1.3997475307454716E-005
 PAO|CG| trace_G_new    3.6829160056761311E-002
 PAO|CG| trace_G_prev   0.17409710878571083     
 PAO|CG| trace_G_mix   -1.4408335196561864E-003
 PAO|CG| trace_D   0.17409710878571083     
 PAO|CG| trace_D_Gnew   1.4408335196561864E-003
 PAO|CG| beta:   0.21981981115793545     
 PAO| norm of gradient:  0.19190924953415173     
 PAO| energy improvement:  -1.9734057109678460E-002
 PAO| step      9                   -7.793146765  0.120E-01  0.229E+00     0.088
 PAO|LS| adapt:  T F F
 PAO|LS| adapt: scan_steps:    0.0000000000000000        0.0000000000000000        0.0000000000000000     
 PAO|LS| adapt: energies:   -7.7931467653502997        0.0000000000000000        0.0000000000000000     
 PAO| ======================= Iteration:        10 =============================

     Lanczos converged:  T threshold:   0.100E-02
     Est. extremal eigenvalues:    0.283E+01   0.172E+00
     Est. condition number :    0.164E+02
     NS sqrt iter    1 1.00000000   0.717E+00       0.002       40.518
     NS sqrt iter    2 1.00000000   0.340E+00       0.002       65.860
     NS sqrt iter    3 1.00000000   0.825E-01       0.002       64.778
     NS sqrt iter    4 1.00000000   0.248E-02       0.002       64.568
     NS sqrt iter    5 1.00000000   0.143E-06       0.002       49.389
     Final NS sqrt iter    5 1.00000000   0.132E-08

     Est. extremal eigenvalues     -0.93641     1.73763  converged:  T
     TRS4 it   1 1.00000000   0.888E+00       0.001       16.128   0.100E-07
     TRS4 it   2 1.00000000   0.631E+00       0.001       32.256   0.100E-07
     TRS4 it   3 1.00000000   0.433E+00       0.001       29.647   0.100E-07
     TRS4 it   4 1.00000000   0.226E+00       0.001       32.256   0.100E-07
     TRS4 it   5 1.00000000   0.768E-01       0.001       32.256   0.100E-07
     TRS4 it   6 1.00000000   0.111E-01       0.001       24.593   0.100E-07
     TRS4 it   7 1.00000000   0.306E-03       0.001       32.256   0.100E-07
     TRS4 it   8 1.00000000   0.327E-06       0.001       32.256   0.100E-07
     TRS4 it   9 1.00000000   0.461E-12       0.001       32.256   0.100E-07
     Final TRS4 iteration    9 1.00000000   0.461E-12
     Chemical potential (mu):       0.00581
 
 PAO| energy:  -7.7981739292558778      penalty:   1.4532127711439064E-005
 PAO|LS| adapt:  T T F
 PAO|LS| adapt: scan_steps:    0.0000000000000000       0.22898215197978605        0.0000000000000000     
 PAO|LS| adapt: energies:   -7.7931467653502997       -7.7981739292558778        0.0000000000000000     
 PAO| ======================= Iteration:        11 =============================

     Lanczos converged:  T threshold:   0.100E-02
     Est. extremal eigenvalues:    0.279E+01   0.178E+00
     Est. condition number :    0.157E+02
     NS sqrt iter    1 1.00000000   0.709E+00       0.002       42.142
     NS sqrt iter    2 1.00000000   0.332E+00       0.002       64.439
     NS sqrt iter    3 1.00000000   0.771E-01       0.002       66.179
     NS sqrt iter    4 1.00000000   0.204E-02       0.002       65.437
     NS sqrt iter    5 1.00000000   0.780E-07       0.002       47.228
     Final NS sqrt iter    5 1.00000000   0.953E-09

     Est. extremal eigenvalues     -0.93633     1.73293  converged:  T
     TRS4 it   1 1.00000000   0.886E+00       0.001       16.128   0.100E-07
     TRS4 it   2 1.00000000   0.630E+00       0.001       32.256   0.100E-07
     TRS4 it   3 1.00000000   0.431E+00       0.001       32.256   0.100E-07
     TRS4 it   4 1.00000000   0.223E+00       0.001       32.256   0.100E-07
     TRS4 it   5 1.00000000   0.747E-01       0.001       32.256   0.100E-07
     TRS4 it   6 1.00000000   0.104E-01       0.001       32.256   0.100E-07
     TRS4 it   7 1.00000000   0.266E-03       0.001       32.256   0.100E-07
     TRS4 it   8 1.00000000   0.241E-06       0.001       32.256   0.100E-07
     TRS4 it   9 1.00000000   0.245E-12       0.001       32.256   0.100E-07
     Final TRS4 iteration    9 1.00000000   0.245E-12
     Chemical potential (mu):       0.00903
 
 PAO| energy:  -7.7967768658537970      penalty:   1.5732389394492688E-005
 PAO|LS| adapt:  T T T
 PAO|LS| adapt: scan_steps:    0.0000000000000000       0.22898215197978605       0.45796430395957211     
 PAO|LS| adapt: energies:   -7.7931467653502997       -7.7981739292558778       -7.7967768658537970     
 PAO|LS| adapt: suggested step_size:   0.29367695381243136     
 PAO|LS| adapt: predicted energy  -7.7984303342100150     
 PAO| ======================= Iteration:        12 =============================

     Lanczos converged:  T threshold:   0.100E-02
     Est. extremal eigenvalues:    0.281E+01   0.173E+00
     Est. condition number :    0.162E+02
     NS sqrt iter    1 1.00000000   0.715E+00       0.002       38.132
     NS sqrt iter    2 1.00000000   0.338E+00       0.002       66.155
     NS sqrt iter    3 1.00000000   0.810E-01       0.002       64.312
     NS sqrt iter    4 1.00000000   0.235E-02       0.002       65.270
     NS sqrt iter    5 1.00000000   0.120E-06       0.002       48.435
     Final NS sqrt iter    5 1.00000000   0.117E-08

     Est. extremal eigenvalues     -0.93648     1.73619  converged:  T
     TRS4 it   1 1.00000000   0.887E+00       0.001       16.128   0.100E-07
     TRS4 it   2 1.00000000   0.631E+00       0.001       28.739   0.100E-07
     TRS4 it   3 1.00000000   0.433E+00       0.001       32.256   0.100E-07
     TRS4 it   4 1.00000000   0.225E+00       0.001       32.256   0.100E-07
     TRS4 it   5 1.00000000   0.762E-01       0.001       32.256   0.100E-07
     TRS4 it   6 1.00000000   0.109E-01       0.001       32.256   0.100E-07
     TRS4 it   7 1.00000000   0.294E-03       0.001       32.256   0.100E-07
     TRS4 it   8 1.00000000   0.300E-06       0.001       32.256   0.100E-07
     TRS4 it   9 1.00000000   0.386E-12       0.001       32.256   0.100E-07
     Final TRS4 iteration    9 1.00000000   0.386E-12
     Chemical potential (mu):       0.00671
 
 PAO| energy:  -7.7984141267730225      penalty:   1.4796141647546362E-005
 PAO|CG| trace_G_new    1.1786059167431497E-002
 PAO|CG| trace_G_prev    3.6829160056761311E-002
 PAO|CG| trace_G_mix   -4.5724422571579403E-004
 PAO|CG| trace_D    4.4608215313343101E-002
 PAO|CG| trace_D_Gnew   2.0825608045024193E-004
 PAO|CG| beta:   0.33243504262051710     
 PAO| norm of gradient:  0.10856361806531457     
 PAO| energy improvement:  -5.2673614227227716E-003
 PAO| step     12                   -7.798414127  0.679E-02  0.294E+00     0.084
 PAO|LS| adapt:  T F F
 PAO|LS| adapt: scan_steps:    0.0000000000000000        0.0000000000000000        0.0000000000000000     
 PAO|LS| adapt: energies:   -7.7984141267730225        0.0000000000000000        0.0000000000000000     
 PAO| ======================= Iteration:        13 =============================

     Lanczos converged:  T threshold:   0.100E-02
     Est. extremal eigenvalues:    0.278E+01   0.178E+00
     Est. condition number :    0.156E+02
     NS sqrt iter    1 1.00000000   0.708E+00       0.002       39.952
     NS sqrt iter    2 1.00000000   0.331E+00       0.002       62.485
     NS sqrt iter    3 1.00000000   0.766E-01       0.002       64.915
     NS sqrt iter    4 1.00000000   0.200E-02       0.002       66.444
     NS sqrt iter    5 1.00000000   0.753E-07       0.002       46.956
     Final NS sqrt iter    5 1.00000000   0.956E-09

     Est. extremal eigenvalues     -0.93696     1.72899  converged:  T
     TRS4 it   1 1.00000000   0.887E+00       0.001       16.128   0.100E-07
     TRS4 it   2 1.00000000   0.628E+00       0.001       28.824   0.100E-07
     TRS4 it   3 1.00000000   0.429E+00       0.001       32.256   0.100E-07
     TRS4 it   4 1.00000000   0.220E+00       0.001       32.256   0.100E-07
     TRS4 it   5 1.00000000   0.726E-01       0.001       32.256   0.100E-07
     TRS4 it   6 1.00000000   0.983E-02       0.001       32.256   0.100E-07
     TRS4 it   7 1.00000000   0.237E-03       0.001       32.256   0.100E-07
     TRS4 it   8 1.00000000   0.189E-06       0.001       32.256   0.100E-07
     TRS4 it   9 1.00000000   0.151E-12       0.001       32.256   0.100E-07
     Final TRS4 iteration    9 1.00000000   0.151E-12
     Chemical potential (mu):       0.01120
 
 PAO| energy:  -7.8004790468955276      penalty:   1.5099614550842829E-005
 PAO|LS| adapt:  T T F
 PAO|LS| adapt: scan_steps:    0.0000000000000000       0.29367695381243136        0.0000000000000000     
 PAO|LS| adapt: energies:   -7.7984141267730225       -7.8004790468955276        0.0000000000000000     
 PAO| ======================= Iteration:        14 =============================

     Lanczos converged:  T threshold:   0.100E-02
     Est. extremal eigenvalues:    0.275E+01   0.182E+00
     Est. condition number :    0.151E+02
     NS sqrt iter    1 1.00000000   0.700E+00       0.002       35.843
     NS sqrt iter    2 1.00000000   0.324E+00       0.002       64.474
     NS sqrt iter    3 1.00000000   0.725E-01       0.002       65.428
     NS sqrt iter    4 1.00000000   0.171E-02       0.002       50.222
     NS sqrt iter    5 1.00000000   0.470E-07       0.002       46.301
     Final NS sqrt iter    5 1.00000000   0.389E-09

     Est. extremal eigenvalues     -0.93694     1.72208  converged:  T
     TRS4 it   1 1.00000000   0.886E+00       0.001       16.128   0.100E-07
     TRS4 it   2 1.00000000   0.625E+00       0.001       32.256   0.100E-07
     TRS4 it   3 1.00000000   0.425E+00       0.001       32.256   0.100E-07
     TRS4 it   4 1.00000000   0.216E+00       0.001       32.256   0.100E-07
     TRS4 it   5 1.00000000   0.691E-01       0.001       32.256   0.100E-07
     TRS4 it   6 1.00000000   0.887E-02       0.001       32.256   0.100E-07
     TRS4 it   7 1.00000000   0.190E-03       0.001       32.256   0.100E-07
     TRS4 it   8 1.00000000   0.119E-06       0.001       30.065   0.100E-07
     TRS4 it   9 1.00000000   0.588E-13       0.001       32.256   0.100E-07
     Final TRS4 iteration    9 1.00000000   0.588E-13
     Chemical potential (mu):       0.01560
 
 PAO| energy:  -7.7998417219742553      penalty:   1.5881095997275991E-005
 PAO|LS| adapt:  T T T
 PAO|LS| adapt: scan_steps:    0.0000000000000000       0.29367695381243136       0.58735390762486273     
 PAO|LS| adapt: energies:   -7.7984141267730225       -7.8004790468955276       -7.7998417219742553     
 PAO|LS| adapt: suggested step_size:   0.37125167468031089     
 PAO|LS| adapt: predicted energy  -7.8005733216571409     
 PAO| ======================= Iteration:        15 =============================

     Lanczos converged:  T threshold:   0.100E-02
     Est. extremal eigenvalues:    0.277E+01   0.179E+00
     Est. condition number :    0.155E+02
     NS sqrt iter    1 1.00000000   0.706E+00       0.002       41.224
     NS sqrt iter    2 1.00000000   0.329E+00       0.002       65.387
     NS sqrt iter    3 1.00000000   0.755E-01       0.002       49.528
     NS sqrt iter    4 1.00000000   0.192E-02       0.002       65.915
     NS sqrt iter    5 1.00000000   0.665E-07       0.002       45.220
     Final NS sqrt iter    5 1.00000000   0.798E-09

     Est. extremal eigenvalues     -0.93701     1.72713  converged:  T
     TRS4 it   1 1.00000000   0.886E+00       0.001       16.128   0.100E-07
     TRS4 it   2 1.00000000   0.627E+00       0.001       32.256   0.100E-07
     TRS4 it   3 1.00000000   0.428E+00       0.001       32.256   0.100E-07
     TRS4 it   4 1.00000000   0.219E+00       0.001       32.256   0.100E-07
     TRS4 it   5 1.00000000   0.717E-01       0.001       32.256   0.100E-07
     TRS4 it   6 1.00000000   0.957E-02       0.001       32.256   0.100E-07
     TRS4 it   7 1.00000000   0.223E-03       0.001       32.256   0.100E-07
     TRS4 it   8 1.00000000   0.167E-06       0.001       32.256   0.100E-07
     TRS4 it   9 1.00000000   0.117E-12       0.001       32.256   0.100E-07
     Final TRS4 iteration    9 1.00000000   0.117E-12
     Chemical potential (mu):       0.01238
 
 PAO| energy:  -7.8005702307819806      penalty:   1.5256526093099194E-005
 PAO|CG| trace_G_new    2.6269531233881586E-003
 PAO|CG| trace_G_prev    1.1786059167431497E-002
 PAO|CG| trace_G_mix    6.2570886059882074E-005
 PAO|CG| trace_D    1.6577386196136846E-002
 PAO|CG| trace_D_Gnew   3.3920618832951666E-005
 PAO|CG| beta:   0.21757758050413090     
 PAO| norm of gradient:   5.1253810818203155E-002
 PAO| energy improvement:  -2.1561040089581596E-003
 PAO| step     15                   -7.800570231  0.320E-02  0.371E+00     0.092
 PAO|LS| adapt:  T F F
 PAO|LS| adapt: scan_steps:    0.0000000000000000        0.0000000000000000        0.0000000000000000     
 PAO|LS| adapt: energies:   -7.8005702307819806        0.0000000000000000        0.0000000000000000     
 PAO| ======================= Iteration:        16 =============================

     Lanczos converged:  T threshold:   0.100E-02
     Est. extremal eigenvalues:    0.276E+01   0.180E+00
     Est. condition number :    0.154E+02
     NS sqrt iter    1 1.00000000   0.704E+00       0.002       29.348
     NS sqrt iter    2 1.00000000   0.328E+00       0.002       57.478
     NS sqrt iter    3 1.00000000   0.748E-01       0.002       64.013
     NS sqrt iter    4 1.00000000   0.186E-02       0.002       66.143
     NS sqrt iter    5 1.00000000   0.602E-07       0.002       47.371
     Final NS sqrt iter    5 1.00000000   0.656E-09

     Est. extremal eigenvalues     -0.93703     1.72586  converged:  T
     TRS4 it   1 1.00000000   0.886E+00       0.001       16.128   0.100E-07
     TRS4 it   2 1.00000000   0.626E+00       0.001       32.256   0.100E-07
     TRS4 it   3 1.00000000   0.426E+00       0.001       32.256   0.100E-07
     TRS4 it   4 1.00000000   0.217E+00       0.001       32.256   0.100E-07
     TRS4 it   5 1.00000000   0.704E-01       0.001       32.256   0.100E-07
     TRS4 it   6 1.00000000   0.926E-02       0.001       32.256   0.100E-07
     TRS4 it   7 1.00000000   0.210E-03       0.001       32.256   0.100E-07
     TRS4 it   8 1.00000000   0.149E-06       0.001       32.256   0.100E-07
     TRS4 it   9 1.00000000   0.943E-13       0.001       32.256   0.100E-07
     Final TRS4 iteration    9 1.00000000   0.943E-13
     Chemical potential (mu):       0.01321
 
 PAO| energy:  -7.8006939310205272      penalty:   1.5037389997241060E-005
 PAO|LS| adapt:  T T F
 PAO|LS| adapt: scan_steps:    0.0000000000000000       0.37125167468031089        0.0000000000000000     
 PAO|LS| adapt: energies:   -7.8005702307819806       -7.8006939310205272        0.0000000000000000     
 PAO| ======================= Iteration:        17 =============================

     Lanczos converged:  T threshold:   0.100E-02
     Est. extremal eigenvalues:    0.275E+01   0.180E+00
     Est. condition number :    0.153E+02
     NS sqrt iter    1 1.00000000   0.702E+00       0.002       41.155
     NS sqrt iter    2 1.00000000   0.326E+00       0.002       64.095
     NS sqrt iter    3 1.00000000   0.741E-01       0.002       66.407
     NS sqrt iter    4 1.00000000   0.180E-02       0.002       65.283
     NS sqrt iter    5 1.00000000   0.547E-07       0.002       45.632
     Final NS sqrt iter    5 1.00000000   0.475E-09

     Est. extremal eigenvalues     -0.93694     1.72466  converged:  T
     TRS4 it   1 1.00000000   0.886E+00       0.001       16.128   0.100E-07
     TRS4 it   2 1.00000000   0.625E+00       0.001       32.256   0.100E-07
     TRS4 it   3 1.00000000   0.425E+00       0.001       32.256   0.100E-07
     TRS4 it   4 1.00000000   0.216E+00       0.001       32.256   0.100E-07
     TRS4 it   5 1.00000000   0.692E-01       0.001       32.256   0.100E-07
     TRS4 it   6 1.00000000   0.895E-02       0.001       32.256   0.100E-07
     TRS4 it   7 1.00000000   0.197E-03       0.001       32.256   0.100E-07
     TRS4 it   8 1.00000000   0.134E-06       0.001       32.256   0.100E-07
     TRS4 it   9 1.00000000   0.761E-13       0.001       32.256   0.100E-07
     Final TRS4 iteration    9 1.00000000   0.761E-13
     Chemical potential (mu):       0.01402
 
 PAO| energy:  -7.7991144774318286      penalty:   1.4945357751524971E-005
 PAO|LS| adapt:  T T T
 PAO|LS| adapt: scan_steps:    0.0000000000000000       0.37125167468031089       0.74250334936062179     
 PAO|LS| adapt: energies:   -7.8005702307819806       -7.8006939310205272       -7.7991144774318286     
 PAO|LS| adapt: suggested step_size:   0.21258988485255867     
 PAO|LS| adapt: predicted energy  -7.8008494673102176     
 PAO| ======================= Iteration:        18 =============================

     Lanczos converged:  T threshold:   0.100E-02
     Est. extremal eigenvalues:    0.277E+01   0.179E+00
     Est. condition number :    0.154E+02
     NS sqrt iter    1 1.00000000   0.705E+00       0.002       41.936
     NS sqrt iter    2 1.00000000   0.328E+00       0.002       65.067
     NS sqrt iter    3 1.00000000   0.751E-01       0.002       64.992
     NS sqrt iter    4 1.00000000   0.189E-02       0.002       65.351
     NS sqrt iter    5 1.00000000   0.628E-07       0.002       47.432
     Final NS sqrt iter    5 1.00000000   0.748E-09

     Est. extremal eigenvalues     -0.93704     1.72640  converged:  T
     TRS4 it   1 1.00000000   0.886E+00       0.001       16.128   0.100E-07
     TRS4 it   2 1.00000000   0.626E+00       0.001       32.256   0.100E-07
     TRS4 it   3 1.00000000   0.427E+00       0.001       32.256   0.100E-07
     TRS4 it   4 1.00000000   0.218E+00       0.001       32.256   0.100E-07
     TRS4 it   5 1.00000000   0.709E-01       0.001       32.256   0.100E-07
     TRS4 it   6 1.00000000   0.939E-02       0.001       32.256   0.100E-07
     TRS4 it   7 1.00000000   0.216E-03       0.001       32.256   0.100E-07
     TRS4 it   8 1.00000000   0.157E-06       0.001       32.256   0.100E-07
     TRS4 it   9 1.00000000   0.103E-12       0.001       32.256   0.100E-07
     Final TRS4 iteration    9 1.00000000   0.103E-12
     Chemical potential (mu):       0.01286
 
 PAO| energy:  -7.8008490142668165      penalty:   1.5115773018504248E-005
 PAO|CG| trace_G_new    7.2560831111718354E-004
 PAO|CG| trace_G_prev    2.6269531233881586E-003
 PAO|CG| trace_G_mix    1.4359797910275277E-006
 PAO|CG| trace_D    3.3969659122148389E-003
 PAO|CG| trace_D_Gnew  -1.7242572456035292E-006
 PAO|CG| beta:   0.27567006235426922     
 PAO| norm of gradient:   2.6937117721040304E-002
 PAO| energy improvement:  -2.7878348483589832E-004
 PAO| step     18                   -7.800849014  0.168E-02  0.213E+00     0.082
 PAO|LS| adapt:  T F F
 PAO|LS| adapt: scan_steps:    0.0000000000000000        0.0000000000000000        0.0000000000000000     
 PAO|LS| adapt: energies:   -7.8008490142668165        0.0000000000000000        0.0000000000000000     
 PAO| ======================= Iteration:        19 =============================

     Lanczos converged:  T threshold:   0.100E-02
     Est. extremal eigenvalues:    0.277E+01   0.179E+00
     Est. condition number :    0.154E+02
     NS sqrt iter    1 1.00000000   0.705E+00       0.002       41.642
     NS sqrt iter    2 1.00000000   0.329E+00       0.002       65.529
     NS sqrt iter    3 1.00000000   0.753E-01       0.002       63.584
     NS sqrt iter    4 1.00000000   0.189E-02       0.002       64.935
     NS sqrt iter    5 1.00000000   0.634E-07       0.002       47.955
     Final NS sqrt iter    5 1.00000000   0.775E-09

     Est. extremal eigenvalues     -0.93704     1.72655  converged:  T
     TRS4 it   1 1.00000000   0.886E+00       0.001       16.128   0.100E-07
     TRS4 it   2 1.00000000   0.626E+00       0.001       32.256   0.100E-07
     TRS4 it   3 1.00000000   0.427E+00       0.001       32.256   0.100E-07
     TRS4 it   4 1.00000000   0.218E+00       0.001       32.256   0.100E-07
     TRS4 it   5 1.00000000   0.708E-01       0.001       32.256   0.100E-07
     TRS4 it   6 1.00000000   0.938E-02       0.001       32.256   0.100E-07
     TRS4 it   7 1.00000000   0.216E-03       0.001       32.256   0.100E-07
     TRS4 it   8 1.00000000   0.159E-06       0.001       32.256   0.100E-07
     TRS4 it   9 1.00000000   0.107E-12       0.001       32.256   0.100E-07
     Final TRS4 iteration    9 1.00000000   0.107E-12
     Chemical potential (mu):       0.01257
 
 PAO| energy:  -7.8009667844699431      penalty:   1.4826590428167693E-005
 PAO|LS| adapt:  T T F
 PAO|LS| adapt: scan_steps:    0.0000000000000000       0.21258988485255867        0.0000000000000000     
 PAO|LS| adapt: energies:   -7.8008490142668165       -7.8009667844699431        0.0000000000000000     
 PAO| ======================= Iteration:        20 =============================

     Lanczos converged:  T threshold:   0.100E-02
     Est. extremal eigenvalues:    0.277E+01   0.179E+00
     Est. condition number :    0.155E+02
     NS sqrt iter    1 1.00000000   0.705E+00       0.002       41.787
     NS sqrt iter    2 1.00000000   0.329E+00       0.002       65.237
     NS sqrt iter    3 1.00000000   0.755E-01       0.002       66.391
     NS sqrt iter    4 1.00000000   0.190E-02       0.002       65.367
     NS sqrt iter    5 1.00000000   0.641E-07       0.002       46.946
     Final NS sqrt iter    5 1.00000000   0.788E-09

     Est. extremal eigenvalues     -0.93704     1.72672  converged:  T
     TRS4 it   1 1.00000000   0.886E+00       0.001       16.128   0.100E-07
     TRS4 it   2 1.00000000   0.626E+00       0.001       32.256   0.100E-07
     TRS4 it   3 1.00000000   0.427E+00       0.001       32.256   0.100E-07
     TRS4 it   4 1.00000000   0.218E+00       0.001       32.256   0.100E-07
     TRS4 it   5 1.00000000   0.707E-01       0.001       32.256   0.100E-07
     TRS4 it   6 1.00000000   0.937E-02       0.001       32.256   0.100E-07
     TRS4 it   7 1.00000000   0.217E-03       0.001       32.256   0.100E-07
     TRS4 it   8 1.00000000   0.161E-06       0.001       32.256   0.100E-07
     TRS4 it   9 1.00000000   0.111E-12       0.001       32.256   0.100E-07
     Final TRS4 iteration    9 1.00000000   0.111E-12
     Chemical potential (mu):       0.01229
 
 PAO| energy:  -7.8010109868363262      penalty:   1.4549830134449234E-005
 PAO|LS| adapt:  T T F
 PAO|LS| adapt: scan_steps:    0.0000000000000000       0.42517976970511734        0.0000000000000000     
 PAO|LS| adapt: energies:   -7.8008490142668165       -7.8010109868363262        0.0000000000000000     
 PAO| ======================= Iteration:        21 =============================

     Lanczos converged:  T threshold:   0.100E-02
     Est. extremal eigenvalues:    0.277E+01   0.179E+00
     Est. condition number :    0.155E+02
     NS sqrt iter    1 1.00000000   0.704E+00       0.002       40.297
     NS sqrt iter    2 1.00000000   0.329E+00       0.002       65.100
     NS sqrt iter    3 1.00000000   0.759E-01       0.002       63.742
     NS sqrt iter    4 1.00000000   0.192E-02       0.002       64.633
     NS sqrt iter    5 1.00000000   0.655E-07       0.002       45.551
     Final NS sqrt iter    5 1.00000000   0.822E-09

     Est. extremal eigenvalues     -0.93703     1.72705  converged:  T
     TRS4 it   1 1.00000000   0.886E+00       0.001       16.128   0.100E-07
     TRS4 it   2 1.00000000   0.626E+00       0.001       32.256   0.100E-07
     TRS4 it   3 1.00000000   0.426E+00       0.001       32.256   0.100E-07
     TRS4 it   4 1.00000000   0.217E+00       0.001       32.256   0.100E-07
     TRS4 it   5 1.00000000   0.705E-01       0.001       32.256   0.100E-07
     TRS4 it   6 1.00000000   0.935E-02       0.001       32.256   0.100E-07
     TRS4 it   7 1.00000000   0.218E-03       0.001       32.256   0.100E-07
     TRS4 it   8 1.00000000   0.166E-06       0.001       32.256   0.100E-07
     TRS4 it   9 1.00000000   0.119E-12       0.001       32.256   0.100E-07
     Final TRS4 iteration    9 1.00000000   0.119E-12
     Chemical potential (mu):       0.01171
 
 PAO| energy:  -7.8008763473652127      penalty:   1.4032996747962710E-005
 PAO|LS| Need extra step
 PAO|LS| adapt:  T T T
 PAO|LS| adapt: scan_steps:    0.0000000000000000       0.42517976970511734       0.85035953941023468     
 PAO|LS| adapt: energies:   -7.8008490142668165       -7.8010109868363262       -7.8008763473652127     
 PAO|LS| adapt: suggested step_size:   0.44477014179016089     
 PAO|LS| adapt: predicted energy  -7.8010113016828955     
 PAO| ======================= Iteration:        22 =============================

     Lanczos converged:  T threshold:   0.100E-02
     Est. extremal eigenvalues:    0.277E+01   0.179E+00
     Est. condition number :    0.155E+02
     NS sqrt iter    1 1.00000000   0.705E+00       0.002       41.052
     NS sqrt iter    2 1.00000000   0.329E+00       0.002       65.046
     NS sqrt iter    3 1.00000000   0.755E-01       0.002       65.433
     NS sqrt iter    4 1.00000000   0.190E-02       0.002       62.734
     NS sqrt iter    5 1.00000000   0.641E-07       0.002       47.657
     Final NS sqrt iter    5 1.00000000   0.790E-09

     Est. extremal eigenvalues     -0.93704     1.72673  converged:  T
     TRS4 it   1 1.00000000   0.886E+00       0.001       16.128   0.100E-07
     TRS4 it   2 1.00000000   0.626E+00       0.001       32.256   0.100E-07
     TRS4 it   3 1.00000000   0.426E+00       0.001       32.256   0.100E-07
     TRS4 it   4 1.00000000   0.218E+00       0.001       32.256   0.100E-07
     TRS4 it   5 1.00000000   0.707E-01       0.001       32.256   0.100E-07
     TRS4 it   6 1.00000000   0.937E-02       0.001       32.256   0.100E-07
     TRS4 it   7 1.00000000   0.217E-03       0.001       32.256   0.100E-07
     TRS4 it   8 1.00000000   0.162E-06       0.001       32.256   0.100E-07
     TRS4 it   9 1.00000000   0.111E-12       0.001       32.256   0.100E-07
     Final TRS4 iteration    9 1.00000000   0.111E-12
     Chemical potential (mu):       0.01226
 
 PAO| energy:  -7.8010113376013894      penalty:   1.4524945293264665E-005
 PAO|CG| trace_G_new    2.2089838406441769E-004
 PAO|CG| trace_G_prev    7.2560831111718354E-004
 PAO|CG| trace_G_mix    2.9352786592896932E-006
 PAO|CG| trace_D    9.8470793405217635E-004
 PAO|CG| trace_D_Gnew  -1.8259907112748756E-006
 PAO|CG| beta:   0.30038672664807392     
 PAO| norm of gradient:   1.4862650640596303E-002
 PAO| energy improvement:  -1.6232333457288917E-004
 PAO| step     22                   -7.801011338  0.929E-03  0.445E+00     0.105
 PAO|LS| adapt:  T F F
 PAO|LS| adapt: scan_steps:    0.0000000000000000        0.0000000000000000        0.0000000000000000     
 PAO|LS| adapt: energies:   -7.8010113376013894        0.0000000000000000        0.0000000000000000     
 PAO| ======================= Iteration:        23 =============================

     Lanczos converged:  T threshold:   0.100E-02
     Est. extremal eigenvalues:    0.277E+01   0.179E+00
     Est. condition number :    0.155E+02
     NS sqrt iter    1 1.00000000   0.705E+00       0.002       35.705
     NS sqrt iter    2 1.00000000   0.329E+00       0.002       64.394
     NS sqrt iter    3 1.00000000   0.756E-01       0.002       64.858
     NS sqrt iter    4 1.00000000   0.191E-02       0.002       65.200
     NS sqrt iter    5 1.00000000   0.642E-07       0.002       48.001
     Final NS sqrt iter    5 1.00000000   0.793E-09

     Est. extremal eigenvalues     -0.93703     1.72654  converged:  T
     TRS4 it   1 1.00000000   0.886E+00       0.001       16.128   0.100E-07
     TRS4 it   2 1.00000000   0.626E+00       0.001       32.256   0.100E-07
     TRS4 it   3 1.00000000   0.427E+00       0.001       32.256   0.100E-07
     TRS4 it   4 1.00000000   0.218E+00       0.001       32.256   0.100E-07
     TRS4 it   5 1.00000000   0.708E-01       0.001       29.263   0.100E-07
     TRS4 it   6 1.00000000   0.941E-02       0.001       32.256   0.100E-07
     TRS4 it   7 1.00000000   0.219E-03       0.001       32.256   0.100E-07
     TRS4 it   8 1.00000000   0.166E-06       0.001       32.256   0.100E-07
     TRS4 it   9 1.00000000   0.117E-12       0.001       32.256   0.100E-07
     Final TRS4 iteration    9 1.00000000   0.117E-12
     Chemical potential (mu):       0.01192
 
 PAO| energy:  -7.8010603672684606      penalty:   1.3842904143023633E-005
 PAO|LS| adapt:  T T F
 PAO|LS| adapt: scan_steps:    0.0000000000000000       0.44477014179016089        0.0000000000000000     
 PAO|LS| adapt: energies:   -7.8010113376013894       -7.8010603672684606        0.0000000000000000     
 PAO| ======================= Iteration:        24 =============================

     Lanczos converged:  T threshold:   0.100E-02
     Est. extremal eigenvalues:    0.277E+01   0.179E+00
     Est. condition number :    0.155E+02
     NS sqrt iter    1 1.00000000   0.705E+00       0.002       41.348
     NS sqrt iter    2 1.00000000   0.329E+00       0.002       66.057
     NS sqrt iter    3 1.00000000   0.756E-01       0.002       63.760
     NS sqrt iter    4 1.00000000   0.191E-02       0.002       65.528
     NS sqrt iter    5 1.00000000   0.642E-07       0.002       47.708
     Final NS sqrt iter    5 1.00000000   0.797E-09

     Est. extremal eigenvalues     -0.93703     1.72634  converged:  T
     TRS4 it   1 1.00000000   0.886E+00       0.001       16.128   0.100E-07
     TRS4 it   2 1.00000000   0.626E+00       0.001       32.256   0.100E-07
     TRS4 it   3 1.00000000   0.427E+00       0.001       32.256   0.100E-07
     TRS4 it   4 1.00000000   0.218E+00       0.001       32.256   0.100E-07
     TRS4 it   5 1.00000000   0.710E-01       0.001       32.256   0.100E-07
     TRS4 it   6 1.00000000   0.946E-02       0.001       32.256   0.100E-07
     TRS4 it   7 1.00000000   0.222E-03       0.001       32.256   0.100E-07
     TRS4 it   8 1.00000000   0.170E-06       0.001       32.256   0.100E-07
     TRS4 it   9 1.00000000   0.124E-12       0.001       32.256   0.100E-07
     Final TRS4 iteration    9 1.00000000   0.124E-12
     Chemical potential (mu):       0.01159
 
 PAO| energy:  -7.8010098492002351      penalty:   1.3189150208918829E-005
 PAO|LS| adapt:  T T T
 PAO|LS| adapt: scan_steps:    0.0000000000000000       0.44477014179016089       0.88954028358032178     
 PAO|LS| adapt: energies:   -7.8010113376013894       -7.8010603672684606       -7.8010098492002351     
 PAO|LS| adapt: suggested step_size:   0.44144512193673668     
 PAO|LS| adapt: predicted energy  -7.8010603700502141     
 PAO| ======================= Iteration:        25 =============================

     Lanczos converged:  T threshold:   0.100E-02
     Est. extremal eigenvalues:    0.277E+01   0.179E+00
     Est. condition number :    0.155E+02
     NS sqrt iter    1 1.00000000   0.705E+00       0.002       42.131
     NS sqrt iter    2 1.00000000   0.329E+00       0.002       66.072
     NS sqrt iter    3 1.00000000   0.756E-01       0.002       65.547
     NS sqrt iter    4 1.00000000   0.191E-02       0.002       66.853
     NS sqrt iter    5 1.00000000   0.642E-07       0.002       47.890
     Final NS sqrt iter    5 1.00000000   0.793E-09

     Est. extremal eigenvalues     -0.93703     1.72654  converged:  T
     TRS4 it   1 1.00000000   0.886E+00       0.001       16.128   0.100E-07
     TRS4 it   2 1.00000000   0.626E+00       0.001       32.256   0.100E-07
     TRS4 it   3 1.00000000   0.427E+00       0.001       32.256   0.100E-07
     TRS4 it   4 1.00000000   0.218E+00       0.001       32.256   0.100E-07
     TRS4 it   5 1.00000000   0.708E-01       0.001       32.256   0.100E-07
     TRS4 it   6 1.00000000   0.941E-02       0.001       32.256   0.100E-07
     TRS4 it   7 1.00000000   0.219E-03       0.001       32.256   0.100E-07
     TRS4 it   8 1.00000000   0.166E-06       0.001       32.256   0.100E-07
     TRS4 it   9 1.00000000   0.118E-12       0.001       32.256   0.100E-07
     Final TRS4 iteration    9 1.00000000   0.118E-12
     Chemical potential (mu):       0.01193
 
 PAO| energy:  -7.8010603688892655      penalty:   1.3847897250795050E-005
 PAO|CG| trace_G_new    7.8330325862443315E-005
 PAO|CG| trace_G_prev    2.2089838406441769E-004
 PAO|CG| trace_G_mix    6.8229683709195101E-007
 PAO|CG| trace_D    3.1084773982407060E-004
 PAO|CG| trace_D_Gnew  -3.4917149793117659E-007
 PAO|CG| beta:   0.35151017221886011     
 PAO| norm of gradient:   8.8504421280771791E-003
 PAO| energy improvement:  -4.9031287876033502E-005
 PAO| step     25                   -7.801060369  0.553E-03  0.441E+00     0.080
 PAO|LS| adapt:  T F F
 PAO|LS| adapt: scan_steps:    0.0000000000000000        0.0000000000000000        0.0000000000000000     
 PAO|LS| adapt: energies:   -7.8010603688892655        0.0000000000000000        0.0000000000000000     
 PAO| ======================= Iteration:        26 =============================

     Lanczos converged:  T threshold:   0.100E-02
     Est. extremal eigenvalues:    0.277E+01   0.179E+00
     Est. condition number :    0.154E+02
     NS sqrt iter    1 1.00000000   0.704E+00       0.002       42.253
     NS sqrt iter    2 1.00000000   0.329E+00       0.002       66.567
     NS sqrt iter    3 1.00000000   0.755E-01       0.002       66.233
     NS sqrt iter    4 1.00000000   0.190E-02       0.002       66.661
     NS sqrt iter    5 1.00000000   0.635E-07       0.002       47.844
     Final NS sqrt iter    5 1.00000000   0.780E-09

     Est. extremal eigenvalues     -0.93704     1.72613  converged:  T
     TRS4 it   1 1.00000000   0.886E+00       0.001       16.128   0.100E-07
     TRS4 it   2 1.00000000   0.626E+00       0.001       32.256   0.100E-07
     TRS4 it   3 1.00000000   0.426E+00       0.001       32.256   0.100E-07
     TRS4 it   4 1.00000000   0.218E+00       0.001       32.256   0.100E-07
     TRS4 it   5 1.00000000   0.708E-01       0.001       32.256   0.100E-07
     TRS4 it   6 1.00000000   0.939E-02       0.001       32.256   0.100E-07
     TRS4 it   7 1.00000000   0.218E-03       0.001       32.256   0.100E-07
     TRS4 it   8 1.00000000   0.164E-06       0.001       32.256   0.100E-07
     TRS4 it   9 1.00000000   0.115E-12       0.001       32.256   0.100E-07
     Final TRS4 iteration    9 1.00000000   0.115E-12
     Chemical potential (mu):       0.01202
 
 PAO| energy:  -7.8010640899927743      penalty:   1.3128158929563302E-005
 PAO|LS| adapt:  T T F
 PAO|LS| adapt: scan_steps:    0.0000000000000000       0.44144512193673668        0.0000000000000000     
 PAO|LS| adapt: energies:   -7.8010603688892655       -7.8010640899927743        0.0000000000000000     
 PAO| ======================= Iteration:        27 =============================

     Lanczos converged:  T threshold:   0.100E-02
     Est. extremal eigenvalues:    0.277E+01   0.179E+00
     Est. condition number :    0.154E+02
     NS sqrt iter    1 1.00000000   0.704E+00       0.002       42.159
     NS sqrt iter    2 1.00000000   0.329E+00       0.002       65.894
     NS sqrt iter    3 1.00000000   0.754E-01       0.002       65.835
     NS sqrt iter    4 1.00000000   0.189E-02       0.002       66.609
     NS sqrt iter    5 1.00000000   0.629E-07       0.002       47.148
     Final NS sqrt iter    5 1.00000000   0.762E-09

     Est. extremal eigenvalues     -0.93704     1.72571  converged:  T
     TRS4 it   1 1.00000000   0.886E+00       0.001       16.128   0.100E-07
     TRS4 it   2 1.00000000   0.626E+00       0.001       32.256   0.100E-07
     TRS4 it   3 1.00000000   0.426E+00       0.001       32.256   0.100E-07
     TRS4 it   4 1.00000000   0.218E+00       0.001       32.256   0.100E-07
     TRS4 it   5 1.00000000   0.707E-01       0.001       32.256   0.100E-07
     TRS4 it   6 1.00000000   0.937E-02       0.001       25.969   0.100E-07
     TRS4 it   7 1.00000000   0.217E-03       0.001       32.256   0.100E-07
     TRS4 it   8 1.00000000   0.162E-06       0.001       32.256   0.100E-07
     TRS4 it   9 1.00000000   0.112E-12       0.001       32.256   0.100E-07
     Final TRS4 iteration    9 1.00000000   0.112E-12
     Chemical potential (mu):       0.01212
 
 PAO| energy:  -7.8010058860282072      penalty:   1.2431803531301958E-005
 PAO|LS| adapt:  T T T
 PAO|LS| adapt: scan_steps:    0.0000000000000000       0.44144512193673668       0.88289024387347337     
 PAO|LS| adapt: energies:   -7.8010603688892655       -7.8010640899927743       -7.8010058860282072     
 PAO|LS| adapt: suggested step_size:   0.24724918489069692     
 PAO|LS| adapt: predicted energy  -7.8010700818758707     
 PAO| ======================= Iteration:        28 =============================

     Lanczos converged:  T threshold:   0.100E-02
     Est. extremal eigenvalues:    0.277E+01   0.179E+00
     Est. condition number :    0.155E+02
     NS sqrt iter    1 1.00000000   0.704E+00       0.002       41.360
     NS sqrt iter    2 1.00000000   0.329E+00       0.002       65.843
     NS sqrt iter    3 1.00000000   0.755E-01       0.002       65.896
     NS sqrt iter    4 1.00000000   0.190E-02       0.002       66.001
     NS sqrt iter    5 1.00000000   0.638E-07       0.002       47.895
     Final NS sqrt iter    5 1.00000000   0.786E-09

     Est. extremal eigenvalues     -0.93704     1.72631  converged:  T
     TRS4 it   1 1.00000000   0.886E+00       0.001       16.128   0.100E-07
     TRS4 it   2 1.00000000   0.626E+00       0.001       32.256   0.100E-07
     TRS4 it   3 1.00000000   0.426E+00       0.001       32.256   0.100E-07
     TRS4 it   4 1.00000000   0.218E+00       0.001       32.256   0.100E-07
     TRS4 it   5 1.00000000   0.708E-01       0.001       32.256   0.100E-07
     TRS4 it   6 1.00000000   0.940E-02       0.001       32.256   0.100E-07
     TRS4 it   7 1.00000000   0.219E-03       0.001       32.256   0.100E-07
     TRS4 it   8 1.00000000   0.165E-06       0.001       32.256   0.100E-07
     TRS4 it   9 1.00000000   0.116E-12       0.001       32.256   0.100E-07
     Final TRS4 iteration    9 1.00000000   0.116E-12
     Chemical potential (mu):       0.01198
 
 PAO| energy:  -7.8010700728372520      penalty:   1.3441879516769653E-005
 PAO|CG| trace_G_new    3.0604345659806673E-005
 PAO|CG| trace_G_prev    7.8330325862443315E-005
 PAO|CG| trace_G_mix    4.5029746064794320E-008
 PAO|CG| trace_D    1.1698396111793281E-004
 PAO|CG| trace_D_Gnew  -2.4200384538157547E-008
 PAO|CG| beta:   0.39013390506516477     
 PAO| norm of gradient:   5.5321194545857981E-003
 PAO| energy improvement:  -9.7039479864946543E-006
 PAO| step     28                   -7.801070073  0.346E-03  0.247E+00     0.080
 PAO|LS| adapt:  T F F
 PAO|LS| adapt: scan_steps:    0.0000000000000000        0.0000000000000000        0.0000000000000000     
 PAO|LS| adapt: energies:   -7.8010700728372520        0.0000000000000000        0.0000000000000000     
 PAO| ======================= Iteration:        29 =============================

     Lanczos converged:  T threshold:   0.100E-02
     Est. extremal eigenvalues:    0.277E+01   0.179E+00
     Est. condition number :    0.154E+02
     NS sqrt iter    1 1.00000000   0.704E+00       0.002       42.304
     NS sqrt iter    2 1.00000000   0.329E+00       0.002       66.283
     NS sqrt iter    3 1.00000000   0.754E-01       0.002       64.766
     NS sqrt iter    4 1.00000000   0.190E-02       0.002       65.835
     NS sqrt iter    5 1.00000000   0.636E-07       0.002       47.804
     Final NS sqrt iter    5 1.00000000   0.778E-09

     Est. extremal eigenvalues     -0.93704     1.72618  converged:  T
     TRS4 it   1 1.00000000   0.886E+00       0.001       16.128   0.100E-07
     TRS4 it   2 1.00000000   0.626E+00       0.001       32.256   0.100E-07
     TRS4 it   3 1.00000000   0.426E+00       0.001       32.256   0.100E-07
     TRS4 it   4 1.00000000   0.218E+00       0.001       32.256   0.100E-07
     TRS4 it   5 1.00000000   0.707E-01       0.001       32.256   0.100E-07
     TRS4 it   6 1.00000000   0.938E-02       0.001       32.256   0.100E-07
     TRS4 it   7 1.00000000   0.218E-03       0.001       32.256   0.100E-07
     TRS4 it   8 1.00000000   0.163E-06       0.001       32.256   0.100E-07
     TRS4 it   9 1.00000000   0.113E-12       0.001       32.256   0.100E-07
     Final TRS4 iteration    9 1.00000000   0.113E-12
     Chemical potential (mu):       0.01210
 
 PAO| energy:  -7.8010767409280790      penalty:   1.3017779755214052E-005
 PAO|LS| adapt:  T T F
 PAO|LS| adapt: scan_steps:    0.0000000000000000       0.24724918489069692        0.0000000000000000     
 PAO|LS| adapt: energies:   -7.8010700728372520       -7.8010767409280790        0.0000000000000000     
 PAO| ======================= Iteration:        30 =============================

     Lanczos converged:  T threshold:   0.100E-02
     Est. extremal eigenvalues:    0.277E+01   0.179E+00
     Est. condition number :    0.154E+02
     NS sqrt iter    1 1.00000000   0.704E+00       0.002       41.209
     NS sqrt iter    2 1.00000000   0.329E+00       0.002       66.081
     NS sqrt iter    3 1.00000000   0.754E-01       0.002       65.876
     NS sqrt iter    4 1.00000000   0.190E-02       0.002       65.790
     NS sqrt iter    5 1.00000000   0.633E-07       0.002       47.432
     Final NS sqrt iter    5 1.00000000   0.773E-09

     Est. extremal eigenvalues     -0.93704     1.72604  converged:  T
     TRS4 it   1 1.00000000   0.886E+00       0.001       16.128   0.100E-07
     TRS4 it   2 1.00000000   0.626E+00       0.001       32.256   0.100E-07
     TRS4 it   3 1.00000000   0.426E+00       0.001       32.256   0.100E-07
     TRS4 it   4 1.00000000   0.217E+00       0.001       32.256   0.100E-07
     TRS4 it   5 1.00000000   0.706E-01       0.001       32.256   0.100E-07
     TRS4 it   6 1.00000000   0.936E-02       0.001       32.256   0.100E-07
     TRS4 it   7 1.00000000   0.216E-03       0.001       32.256   0.100E-07
     TRS4 it   8 1.00000000   0.161E-06       0.001       32.256   0.100E-07
     TRS4 it   9 1.00000000   0.111E-12       0.001       32.256   0.100E-07
     Final TRS4 iteration    9 1.00000000   0.111E-12
     Chemical potential (mu):       0.01222
 
 PAO| energy:  -7.8010816070028719      penalty:   1.2601232106722538E-005
 PAO|LS| adapt:  T T F
 PAO|LS| adapt: scan_steps:    0.0000000000000000       0.49449836978139383        0.0000000000000000     
 PAO|LS| adapt: energies:   -7.8010700728372520       -7.8010816070028719        0.0000000000000000     
 PAO| ======================= Iteration:        31 =============================

     Lanczos converged:  T threshold:   0.100E-02
     Est. extremal eigenvalues:    0.276E+01   0.179E+00
     Est. condition number :    0.154E+02
     NS sqrt iter    1 1.00000000   0.704E+00       0.002       41.393
     NS sqrt iter    2 1.00000000   0.328E+00       0.002       64.789
     NS sqrt iter    3 1.00000000   0.752E-01       0.002       63.581
     NS sqrt iter    4 1.00000000   0.189E-02       0.002       64.968
     NS sqrt iter    5 1.00000000   0.628E-07       0.002       47.438
     Final NS sqrt iter    5 1.00000000   0.802E-09

     Est. extremal eigenvalues     -0.93704     1.72577  converged:  T
     TRS4 it   1 1.00000000   0.886E+00       0.001       16.128   0.100E-07
     TRS4 it   2 1.00000000   0.626E+00       0.001       32.256   0.100E-07
     TRS4 it   3 1.00000000   0.426E+00       0.001       32.256   0.100E-07
     TRS4 it   4 1.00000000   0.217E+00       0.001       32.256   0.100E-07
     TRS4 it   5 1.00000000   0.705E-01       0.001       32.256   0.100E-07
     TRS4 it   6 1.00000000   0.931E-02       0.001       32.256   0.100E-07
     TRS4 it   7 1.00000000   0.214E-03       0.001       32.256   0.100E-07
     TRS4 it   8 1.00000000   0.157E-06       0.001       32.256   0.100E-07
     TRS4 it   9 1.00000000   0.105E-12       0.001       32.256   0.100E-07
     Final TRS4 iteration    9 1.00000000   0.105E-12
     Chemical potential (mu):       0.01245
 
 PAO| energy:  -7.8010859323456758      penalty:   1.1790647603118306E-005
 PAO|LS| Need extra step
 PAO|LS| adapt:  T T F
 PAO|LS| adapt: scan_steps:    0.0000000000000000       0.98899673956278766        0.0000000000000000     
 PAO|LS| adapt: energies:   -7.8010700728372520       -7.8010859323456758        0.0000000000000000     
 PAO| ======================= Iteration:        32 =============================

     Lanczos converged:  T threshold:   0.100E-02
     Est. extremal eigenvalues:    0.276E+01   0.179E+00
     Est. condition number :    0.154E+02
     NS sqrt iter    1 1.00000000   0.703E+00       0.002       40.948
     NS sqrt iter    2 1.00000000   0.328E+00       0.002       64.932
     NS sqrt iter    3 1.00000000   0.750E-01       0.002       63.459
     NS sqrt iter    4 1.00000000   0.188E-02       0.002       64.366
     NS sqrt iter    5 1.00000000   0.620E-07       0.002       46.037
     Final NS sqrt iter    5 1.00000000   0.765E-09

     Est. extremal eigenvalues     -0.93705     1.72522  converged:  T
     TRS4 it   1 1.00000000   0.886E+00       0.001       16.128   0.100E-07
     TRS4 it   2 1.00000000   0.626E+00       0.001       32.256   0.100E-07
     TRS4 it   3 1.00000000   0.426E+00       0.001       30.422   0.100E-07
     TRS4 it   4 1.00000000   0.217E+00       0.001       32.256   0.100E-07
     TRS4 it   5 1.00000000   0.701E-01       0.001       32.256   0.100E-07
     TRS4 it   6 1.00000000   0.923E-02       0.001       32.256   0.100E-07
     TRS4 it   7 1.00000000   0.210E-03       0.001       32.256   0.100E-07
     TRS4 it   8 1.00000000   0.150E-06       0.001       32.256   0.100E-07
     TRS4 it   9 1.00000000   0.959E-13       0.001       32.256   0.100E-07
     Final TRS4 iteration    9 1.00000000   0.959E-13
     Chemical potential (mu):       0.01292
 
 PAO| energy:  -7.8010729574608657      penalty:   1.0258512270938590E-005
 PAO|LS| Need extra step
 PAO|LS| adapt:  T T T
 PAO|LS| adapt: scan_steps:    0.0000000000000000       0.98899673956278766        1.9779934791255753     
 PAO|LS| adapt: energies:   -7.8010700728372520       -7.8010859323456758       -7.8010729574608657     
 PAO|LS| adapt: suggested step_size:    1.0384668866492404     
 PAO|LS| adapt: predicted energy  -7.8010859684182803     
 PAO| ======================= Iteration:        33 =============================

     Lanczos converged:  T threshold:   0.100E-02
     Est. extremal eigenvalues:    0.276E+01   0.179E+00
     Est. condition number :    0.154E+02
     NS sqrt iter    1 1.00000000   0.704E+00       0.002       40.643
     NS sqrt iter    2 1.00000000   0.328E+00       0.002       64.289
     NS sqrt iter    3 1.00000000   0.752E-01       0.002       64.190
     NS sqrt iter    4 1.00000000   0.189E-02       0.002       64.852
     NS sqrt iter    5 1.00000000   0.628E-07       0.002       44.385
     Final NS sqrt iter    5 1.00000000   0.800E-09

     Est. extremal eigenvalues     -0.93704     1.72575  converged:  T
     TRS4 it   1 1.00000000   0.886E+00       0.001       16.128   0.100E-07
     TRS4 it   2 1.00000000   0.626E+00       0.001       32.256   0.100E-07
     TRS4 it   3 1.00000000   0.426E+00       0.001       32.256   0.100E-07
     TRS4 it   4 1.00000000   0.217E+00       0.001       32.256   0.100E-07
     TRS4 it   5 1.00000000   0.704E-01       0.001       32.256   0.100E-07
     TRS4 it   6 1.00000000   0.931E-02       0.001       32.256   0.100E-07
[...]
 PAO| ======================= Iteration:       409 =============================

     Lanczos converged:  T threshold:   0.100E-02
     Est. extremal eigenvalues:    0.248E+01   0.191E+00
     Est. condition number :    0.130E+02
     NS sqrt iter    1 1.00000000   0.630E+00       0.002       40.559
     NS sqrt iter    2 1.00000000   0.274E+00       0.002       64.331
     NS sqrt iter    3 1.00000000   0.481E-01       0.002       63.696
     NS sqrt iter    4 1.00000000   0.735E-03       0.002       64.227
     NS sqrt iter    5 1.00000000   0.521E-08       0.001       27.343
     Final NS sqrt iter    5 1.00000000   0.310E-09

     Est. extremal eigenvalues     -0.93673     1.62628  converged:  T
     TRS4 it   1 1.00000000   0.880E+00       0.001       16.128   0.100E-07
     TRS4 it   2 1.00000000   0.632E+00       0.001       32.256   0.100E-07
     TRS4 it   3 1.00000000   0.453E+00       0.001       32.256   0.100E-07
     TRS4 it   4 1.00000000   0.276E+00       0.001       31.741   0.100E-07
     TRS4 it   5 1.00000000   0.136E+00       0.001       31.980   0.100E-07
     TRS4 it   6 1.00000000   0.417E-01       0.001       32.256   0.100E-07
     TRS4 it   7 1.00000000   0.548E-02       0.001       32.256   0.100E-07
     TRS4 it   8 1.00000000   0.127E-03       0.001       32.256   0.100E-07
     TRS4 it   9 1.00000000   0.721E-07       0.001       32.256   0.100E-07
     Final TRS4 iteration    9 1.00000000   0.721E-07
     Chemical potential (mu):      -0.07375
 
 PAO| energy:  -7.8001172049126088      penalty:   2.3932534072829736E-008
 PAO|LS| Need extra step
 PAO|LS| adapt:  T T T
 PAO|LS| adapt: scan_steps:    0.0000000000000000       0.20000000000000001       0.40000000000000002     
 PAO|LS| adapt: energies:   -7.8001172009477440       -7.8001172058639012       -7.8001172049126088     
 PAO|LS| adapt: suggested step_size:   0.26757390563142508     
 PAO|LS| adapt: predicted energy  -7.8001172061988031     
 PAO| ======================= Iteration:       410 =============================

     Lanczos converged:  T threshold:   0.100E-02
     Est. extremal eigenvalues:    0.248E+01   0.191E+00
     Est. condition number :    0.130E+02
     NS sqrt iter    1 1.00000000   0.630E+00       0.002       39.604
     NS sqrt iter    2 1.00000000   0.274E+00       0.002       63.463
     NS sqrt iter    3 1.00000000   0.481E-01       0.002       63.674
     NS sqrt iter    4 1.00000000   0.735E-03       0.002       63.855
     NS sqrt iter    5 1.00000000   0.521E-08       0.001       26.717
     Final NS sqrt iter    5 1.00000000   0.310E-09

     Est. extremal eigenvalues     -0.93673     1.62628  converged:  T
     TRS4 it   1 1.00000000   0.880E+00       0.001       16.128   0.100E-07
     TRS4 it   2 1.00000000   0.632E+00       0.001       32.256   0.100E-07
     TRS4 it   3 1.00000000   0.453E+00       0.001       32.256   0.100E-07
     TRS4 it   4 1.00000000   0.276E+00       0.001       32.256   0.100E-07
     TRS4 it   5 1.00000000   0.136E+00       0.001       32.256   0.100E-07
     TRS4 it   6 1.00000000   0.417E-01       0.001       32.256   0.100E-07
     TRS4 it   7 1.00000000   0.548E-02       0.001       32.256   0.100E-07
     TRS4 it   8 1.00000000   0.127E-03       0.001       32.256   0.100E-07
     TRS4 it   9 1.00000000   0.721E-07       0.001       32.256   0.100E-07
     Final TRS4 iteration    9 1.00000000   0.721E-07
     Chemical potential (mu):      -0.07375
 
 PAO| energy:  -7.8001172061988129      penalty:   2.4190706175225101E-008
 PAO|CG| warming up with steepest descent
 PAO|CG| beta:    0.0000000000000000     
 PAO| norm of gradient:   1.3523204658932560E-004
 PAO| energy improvement:  -5.2510689130258470E-009
 PAO| step    410                   -7.800117206  0.845E-05  0.268E+00     0.107
 PAO| converged after          410  steps :-)
 PAO| Recalculating energy after mixing.

     Lanczos converged:  T threshold:   0.100E-02
     Est. extremal eigenvalues:    0.248E+01   0.191E+00
     Est. condition number :    0.130E+02
     NS sqrt iter    1 1.00000000   0.630E+00       0.002       40.834
     NS sqrt iter    2 1.00000000   0.274E+00       0.002       63.690
     NS sqrt iter    3 1.00000000   0.481E-01       0.002       64.199
     NS sqrt iter    4 1.00000000   0.735E-03       0.002       64.196
     NS sqrt iter    5 1.00000000   0.521E-08       0.001       27.443
     Final NS sqrt iter    5 1.00000000   0.310E-09

     Est. extremal eigenvalues     -0.93673     1.62628  converged:  T
     TRS4 it   1 1.00000000   0.880E+00       0.001       16.128   0.100E-07
     TRS4 it   2 1.00000000   0.632E+00       0.001       32.256   0.100E-07
     TRS4 it   3 1.00000000   0.453E+00       0.001       32.256   0.100E-07
     TRS4 it   4 1.00000000   0.276E+00       0.001       32.256   0.100E-07
     TRS4 it   5 1.00000000   0.136E+00       0.001       32.256   0.100E-07
     TRS4 it   6 1.00000000   0.417E-01       0.001       32.256   0.100E-07
     TRS4 it   7 1.00000000   0.548E-02       0.001       32.256   0.100E-07
     TRS4 it   8 1.00000000   0.127E-03       0.001       32.256   0.100E-07
     TRS4 it   9 1.00000000   0.721E-07       0.001       32.256   0.100E-07
     Final TRS4 iteration    9 1.00000000   0.721E-07
     Chemical potential (mu):      -0.07375
 
 PAO| energy:  -7.8001172048860328      penalty:   2.4452934240784616E-008
 PAO| Writing restart file.
     Est. extremal eigenvalues     -0.93673     1.62628  converged:  T
     TRS4 it   1 1.00000000   0.880E+00       0.001       16.128   0.100E-07
     TRS4 it   2 1.00000000   0.632E+00       0.001       32.256   0.100E-07
     TRS4 it   3 1.00000000   0.453E+00       0.001       32.256   0.100E-07
     TRS4 it   4 1.00000000   0.276E+00       0.001       32.256   0.100E-07
     TRS4 it   5 1.00000000   0.136E+00       0.001       32.256   0.100E-07
     TRS4 it   6 1.00000000   0.417E-01       0.001       32.256   0.100E-07
     TRS4 it   7 1.00000000   0.548E-02       0.001       32.256   0.100E-07
     TRS4 it   8 1.00000000   0.127E-03       0.001       32.256   0.100E-07
     TRS4 it   9 1.00000000   0.721E-07       0.001       32.256   0.100E-07
     Final TRS4 iteration    9 1.00000000   0.721E-07
     Chemical potential (mu):      -0.07375

 SCF     1       -34.450193942       -34.450193942    2.363774

*********************************************************
 Using MIXING_FRACTION=0.450 to mix KS matrix:  iscf=  2
 KS_nw=0.450*KS + 0.550*KS_old
*********************************************************
     Est. extremal eigenvalues     -0.93673     1.62628  converged:  T
     TRS4 it   1 1.00000000   0.880E+00       0.001       16.128   0.100E-07
     TRS4 it   2 1.00000000   0.632E+00       0.001       32.256   0.100E-07
     TRS4 it   3 1.00000000   0.453E+00       0.001       32.256   0.100E-07
     TRS4 it   4 1.00000000   0.276E+00       0.001       32.256   0.100E-07
     TRS4 it   5 1.00000000   0.136E+00       0.001       32.256   0.100E-07
     TRS4 it   6 1.00000000   0.417E-01       0.001       32.256   0.100E-07
     TRS4 it   7 1.00000000   0.548E-02       0.001       32.256   0.100E-07
     TRS4 it   8 1.00000000   0.127E-03       0.001       32.256   0.100E-07
     TRS4 it   9 1.00000000   0.722E-07       0.001       32.256   0.100E-07
     Final TRS4 iteration    9 1.00000000   0.722E-07
     Chemical potential (mu):      -0.07374

 SCF     2       -34.450193943        -0.000000000    1.950611

 PAO| Storing density matrix for ASPC guess in slot:           1

 ENERGY| Total FORCE_EVAL ( QS ) energy (a.u.):              -34.450193942644333


 -------------------------------------------------------------------------------
 -                                                                             -
 -                                DBCSR STATISTICS                             -
 -                                                                             -
 -------------------------------------------------------------------------------
 COUNTER                                    TOTAL       BLAS       SMM       ACC
 flops     5 x     5 x     4                20000     100.0%      0.0%      0.0%
 flops    13 x     5 x     4                20800     100.0%      0.0%      0.0%
 flops     5 x    13 x     4                20800     100.0%      0.0%      0.0%
 flops    13 x    13 x     4                40560     100.0%      0.0%      0.0%
 flops     4 x     4 x     5              3221760     100.0%      0.0%      0.0%
 flops     5 x     4 x     5              3942400     100.0%      0.0%      0.0%
 flops     4 x     4 x    13              4188288     100.0%      0.0%      0.0%
 flops    13 x     4 x     5              5125120     100.0%      0.0%      0.0%
 flops     5 x     4 x    13              5125120     100.0%      0.0%      0.0%
 flops     5 x     4 x     4              6591200     100.0%      0.0%      0.0%
 flops    13 x     4 x    13              6662656     100.0%      0.0%      0.0%
 flops    13 x     4 x     4              8895328     100.0%      0.0%      0.0%
 flops     4 x     4 x     4            410986112     100.0%      0.0%      0.0%
 flops inhomo. stacks                           0       0.0%      0.0%      0.0%
 flops total                       454.840144E+06     100.0%      0.0%      0.0%
 flops max/rank                    454.840144E+06     100.0%      0.0%      0.0%
 matmuls inhomo. stacks                         0       0.0%      0.0%      0.0%
 matmuls total                            3348173     100.0%      0.0%      0.0%
 number of processed stacks                 26736     100.0%      0.0%      0.0%
 average stack size                                   125.2       0.0       0.0
 marketing flops                   737.707392E+06
 -------------------------------------------------------------------------------
 # multiplications                          22223
 max memory usage/rank             327.970816E+06
 # max total images/rank                        1
 # max 3D layers                                1
 # MPI messages exchanged                       0
 MPI messages size (bytes):
  total size                         0.000000E+00
  min size                           0.000000E+00
  max size                           0.000000E+00
  average size                       0.000000E+00
 MPI breakdown and total messages size (bytes):
             size <=      128                   0                        0
       128 < size <=     8192                   0                        0
      8192 < size <=    32768                   0                        0
     32768 < size <=   131072                   0                        0
    131072 < size <=  4194304                   0                        0
   4194304 < size <= 16777216                   0                        0
  16777216 < size                               0                        0
 -------------------------------------------------------------------------------

 MEMORY| Estimated peak process memory [MiB]                                 313

 -------------------------------------------------------------------------------
 -                                                                             -
 -                           R E F E R E N C E S                               -
 -                                                                             -
 -------------------------------------------------------------------------------
 
 CP2K version 7.0 (Development Version), the CP2K developers group (2018).
 CP2K is freely available from https://www.cp2k.org/ .

 Schuett, O; VandeVondele, J. 
 Journal of Chemical Theory and Computation, 14, (2018). 
 Machine Learning Adaptive Basis Sets for Efficient Large Scale Density Functional Theory Simulation.
 https://dx.doi.org/10.1021/acs.jctc.8b00378


 Schuett, Ole; Messmer, Peter; Hutter, Juerg; VandeVondele, Joost. 
 Electronic Structure Calculations on Graphics Processing Units, John Wiley & Sons, Ltd, 173-190 (2016). 
 GPU-Accelerated Sparse Matrix-Matrix Multiplication for Linear Scaling Density Functional Theory.
 https://dx.doi.org/10.1002/9781118670712.ch8


 Borstnik, U; VandeVondele, J; Weber, V; Hutter, J. 
 PARALLEL COMPUTING, 40 (5-6), 47-58 (2014). 
 Sparse matrix multiplication: The distributed block-compressed sparse
 row library.
 https://dx.doi.org/10.1016/j.parco.2014.03.012


 Hutter, J; Iannuzzi, M; Schiffmann, F; VandeVondele, J. 
 WILEY INTERDISCIPLINARY REVIEWS-COMPUTATIONAL MOLECULAR SCIENCE, 4 (1), 15-25 (2014). 
 CP2K: atomistic simulations of condensed matter systems.
 https://dx.doi.org/10.1002/wcms.1159


 VandeVondele, J; Borstnik, U; Hutter, J. 
 JOURNAL OF CHEMICAL THEORY AND COMPUTATION, 8 (10), 3565-3573 (2012). 
 Linear Scaling Self-Consistent Field Calculations with Millions of Atoms
 in the Condensed Phase.
 https://dx.doi.org/10.1021/ct200897x


 VandeVondele, J; Hutter, J. 
 JOURNAL OF CHEMICAL PHYSICS, 127 (11), 114105 (2007). 
 Gaussian basis sets for accurate calculations on molecular systems in
 gas and condensed phases.
 https://dx.doi.org/10.1063/1.2770708


 Krack, M. 
 THEORETICAL CHEMISTRY ACCOUNTS, 114 (1-3), 145-152 (2005). 
 Pseudopotentials for H to Kr optimized for gradient-corrected
 exchange-correlation functionals.
 https://dx.doi.org/10.1007/s00214-005-0655-y


 VandeVondele, J; Krack, M; Mohamed, F; Parrinello, M; Chassaing, T;
 Hutter, J. COMPUTER PHYSICS COMMUNICATIONS, 167 (2), 103-128 (2005). 
 QUICKSTEP: Fast and accurate density functional calculations using a
 mixed Gaussian and plane waves approach.
 https://dx.doi.org/10.1016/j.cpc.2004.12.014


 Frigo, M; Johnson, SG. 
 PROCEEDINGS OF THE IEEE, 93 (2), 216-231 (2005). 
 The design and implementation of FFTW3.
 https://dx.doi.org/10.1109/JPROC.2004.840301


 Niklasson, AMN; Tymczak, CJ; Challacombe, M. 
 JOURNAL OF CHEMICAL PHYSICS, 118 (19), 8611-8620 (2003). 
 Trace resetting density matrix purification in O(N)
 self-consistent-field theory.
 https://dx.doi.org/10.1063/1.1559913


 Hartwigsen, C; Goedecker, S; Hutter, J. 
 PHYSICAL REVIEW B, 58 (7), 3641-3662 (1998). 
 Relativistic separable dual-space Gaussian pseudopotentials from H to Rn.
 https://dx.doi.org/10.1103/PhysRevB.58.3641


 Lippert, G; Hutter, J; Parrinello, M. 
 MOLECULAR PHYSICS, 92 (3), 477-487 (1997). 
 A hybrid Gaussian and plane wave density functional scheme.
 https://dx.doi.org/10.1080/002689797170220


 Perdew, JP; Burke, K; Ernzerhof, M. 
 PHYSICAL REVIEW LETTERS, 77 (18), 3865-3868 (1996). 
 Generalized gradient approximation made simple.
 https://dx.doi.org/10.1103/PhysRevLett.77.3865


 Goedecker, S; Teter, M; Hutter, J. 
 PHYSICAL REVIEW B, 54 (3), 1703-1710 (1996). 
 Separable dual-space Gaussian pseudopotentials.
 https://dx.doi.org/10.1103/PhysRevB.54.1703


 -------------------------------------------------------------------------------
 -                                                                             -
 -                                T I M I N G                                  -
 -                                                                             -
 -------------------------------------------------------------------------------
 SUBROUTINE                       CALLS  ASD         SELF TIME        TOTAL TIME
                                MAXIMUM       AVERAGE  MAXIMUM  AVERAGE  MAXIMUM
 CP2K                                 1  1.0    0.018    0.018   34.271   34.271
 qs_energies                          1  2.0    0.000    0.000   33.780   33.780
 ls_scf                               1  3.0    0.000    0.000   33.632   33.632
 ls_scf_main                          4  4.0    0.001    0.001   20.514   20.514
 ls_scf_dm_to_ks                      9  5.0    0.000    0.000   20.400   20.400
 qs_ks_update_qs_env                 10  6.0    0.000    0.000   16.139   16.139
 rebuild_ks_matrix                   10  7.0    0.000    0.000   16.138   16.138
 qs_ks_build_kohn_sham_matrix        10  8.0    0.001    0.001   16.138   16.138
 pao_update                           4  4.0    0.018    0.018   10.573   10.573
 qs_vxc_create                       10  9.0    0.000    0.000    9.742    9.742
 xc_vxc_pw_create                    10 10.0    0.124    0.124    9.742    9.742
 pao_calc_energy                    413  5.0    0.004    0.004    9.490    9.490
 dbcsr_multiply_generic           22223  8.4    0.497    0.497    8.175    8.175
 xc_rho_set_and_dset_create          10 11.0    0.033    0.033    6.929    6.929
 pw_transfer                        191 10.6    0.014    0.014    6.742    6.742
 qs_rho_update_rho                   10  6.0    0.000    0.000    6.689    6.689
 calculate_rho_elec                  10  7.0    5.240    5.240    6.689    6.689
 fft_wrap_pw1pw2                    171 11.7    0.002    0.002    6.641    6.641
 fft_wrap_pw1pw2_200                111 12.8    0.340    0.340    6.335    6.335
 sum_up_and_integrate                10  9.0    0.018    0.018    5.449    5.449
 integrate_v_rspace                  10 10.0    4.646    4.646    5.431    5.431
 xc_functional_eval                  10 12.0    0.000    0.000    4.971    4.971
 pbe_lda_eval                        10 13.0    4.971    4.971    4.971    4.971
 pao_dm_trs4                        413  6.0    0.003    0.003    4.861    4.861
 density_matrix_trs4                422  7.0    0.170    0.170    4.690    4.690
 ls_scf_init_matrix_S               417  7.0    0.004    0.004    4.639    4.639
 pao_rebuild_S                      413  6.0    0.003    0.003    4.584    4.584
 matrix_sqrt_Newton_Schulz          417  8.0    0.109    0.109    4.190    4.190
 multiply_cannon                  22223  9.4    1.286    1.286    3.839    3.839
 fft3d_s                            172 13.6    3.512    3.512    3.530    3.530
 make_m2s                         44446  9.4    0.194    0.194    2.611    2.611
 pao_guess_initial_P                  1  4.0    0.000    0.000    2.434    2.434
 pao_read_preopt_dm                   1  5.0    0.000    0.000    2.434    2.434
 make_images                      44446 10.4    0.618    0.618    2.300    2.300
 pw_gather_s                         81 13.1    1.678    1.678    1.678    1.678
 multiply_cannon_multrec          22223 10.4    1.359    1.359    1.493    1.493
 density_rs2pw                       10  8.0    0.001    0.001    1.419    1.419
 arnoldi_extremal                   839  8.5    0.005    0.005    1.173    1.173
 arnoldi_normal_ev                  839  9.5    0.013    0.013    1.168    1.168
 pw_scatter_s                        90 14.2    1.078    1.078    1.078    1.078
 pao_calc_AB                        545  5.8    0.001    0.001    1.054    1.054
 pao_calc_AB_direct                 545  6.8    0.029    0.029    1.053    1.053
 pao_calc_grad_lnv_wrt_AB           131  7.0    0.008    0.008    0.995    0.995
 build_subspace                     839 10.5    0.061    0.061    0.882    0.882
 dbcsr_matrix_vector_mult         20127 11.5    0.119    0.119    0.795    0.795
 potential_pw2rs                     10 11.0    0.003    0.003    0.784    0.784
 dbcsr_finalize                   52522  9.6    0.122    0.122    0.747    0.747
 dbcsr_create_new                170005 10.7    0.374    0.374    0.709    0.709
 -------------------------------------------------------------------------------

 The number of warnings for this run is : 0
 
 -------------------------------------------------------------------------------
  **** **** ******  **  PROGRAM ENDED AT                 2019-03-28 17:32:53.017
 ***** ** ***  *** **   PROGRAM RAN ON            oleschuett.zrh.corp.google.com
 **    ****   ******    PROGRAM RAN BY                                oleschuett
 ***** **    ** ** **   PROGRAM PROCESS ID                                 30732
  **** **  *******  **  PROGRAM STOPPED IN /usr/local/google/home/oleschuett/git
                                           /pao_ml_equivar/2H2O_rotations/phi_13
