 DBCSR| CPU Multiplication driver                                           XSMM (U)
 DBCSR| Multrec recursion limit                                              512 (U)
 DBCSR| Multiplication stack size                                           1000 (D)
 DBCSR| Maximum elements for images                                    UNLIMITED (U)
 DBCSR| Multiplicative factor virtual images                                   1 (U)
 DBCSR| Use multiplication densification                                       T (D)
 DBCSR| Multiplication size stacks                                             3 (U)
 DBCSR| Use memory pool for CPU allocation                                     F (U)
 DBCSR| OMP: Current number of threads                                         1
 DBCSR| OMP: Max number of threads                                             1
 DBCSR| Split modifier for TAS multiplication algorithm                  1.0E+00 (U)


  **** **** ******  **  PROGRAM STARTED AT               2023-02-01 10:45:19.664
 ***** ** ***  *** **   PROGRAM STARTED ON                                moritz
 **    ****   ******    PROGRAM STARTED BY                                   ole
 ***** **    ** ** **   PROGRAM PROCESS ID                                148618
  **** **  *******  **  PROGRAM STARTED IN /home/ole/git/pao_ml_equivar/2H2O_rot
                                           ations/phi_34

 CP2K| version string:                 CP2K version 2023.1 (Development Version)
 CP2K| source code revision number:                                  git:03b4147
 CP2K| cp2kflags: omp libint fftw3 libxc quip xsmm spglib libvori libbqb libtorc
 CP2K|            h
 CP2K| is freely available from                            https://www.cp2k.org/
 CP2K| Program compiled at                           Mi 01 Feb 2023 10:36:52 CET
 CP2K| Program compiled on                                                moritz
 CP2K| Program compiled for                                                local
 CP2K| Data directory path                               /home/ole/git/cp2k/data
 CP2K| Input file name                                            2H2O_pao44.inp

 GLOBAL| Force Environment number                                              1
 GLOBAL| Basis set file name                                        BASIS_MOLOPT
 GLOBAL| Potential file name                                      GTH_POTENTIALS
 GLOBAL| MM Potential file name                                     MM_POTENTIAL
 GLOBAL| Coordinate file name                                         coords.xyz
 GLOBAL| Method name                                                        CP2K
 GLOBAL| Project name                                                 2H2O_pao44
 GLOBAL| Run type                                                         ENERGY
 GLOBAL| FFT library                                                       FFTW3
 GLOBAL| Diagonalization library                                       ScaLAPACK
 GLOBAL| DGEMM library                                                      BLAS
 GLOBAL| Orthonormality check for eigenvectors                          DISABLED
 GLOBAL| Matrix multiplication library                                 ScaLAPACK
 GLOBAL| All-to-all communication in single precision                          F
 GLOBAL| FFTs using library dependent lengths                                  F
 GLOBAL| Grid backend                                                       AUTO
 GLOBAL| Global print level                                                  LOW
 GLOBAL| MPI I/O enabled                                                       T
 GLOBAL| Total number of message passing processes                             1
 GLOBAL| Number of threads for this process                                    1
 GLOBAL| This output is from process                                           0
 GLOBAL| Stack size for threads created by OpenMP (OMP_STACKSIZE)        default
 GLOBAL| CPU model name           AMD Ryzen Threadripper 3970X 32-Core Processor
 GLOBAL| CPUID                                                              1002
 GLOBAL| Compiled for CPUID                                                    0

 *** HINT in environment.F:884 :: The compiler target flags (generic) used ***
 *** to build this binary cannot exploit all extensions of this CPU model  ***
 *** (x86_avx2). Consider compiler target flags as part of FCFLAGS and     ***
 *** CFLAGS (ARCH file).                                                   ***


 MEMORY| system memory details [Kb]
 MEMORY|                        rank 0           min           max       average
 MEMORY| MemTotal            131773860     131773860     131773860     131773860
 MEMORY| MemFree             118684480     118684480     118684480     118684480
 MEMORY| Buffers                301580        301580        301580        301580
 MEMORY| Cached                7018548       7018548       7018548       7018548
 MEMORY| Slab                   776140        776140        776140        776140
 MEMORY| SReclaimable           331304        331304        331304        331304
 MEMORY| MemLikelyFree       126335912     126335912     126335912     126335912


 GENERATE|  Preliminary Number of Bonds generated:                             0
 GENERATE|  Achieved consistency in connectivity generation.

 *******************************************************************************
 *******************************************************************************
 **                                                                           **
 **     #####                         ##              ##                      **
 **    ##   ##            ##          ##              ##                      **
 **   ##     ##                       ##            ######                    **
 **   ##     ##  ##   ##  ##   #####  ##  ##   ####   ##    #####    #####    **
 **   ##     ##  ##   ##  ##  ##      ## ##   ##      ##   ##   ##  ##   ##   **
 **   ##  ## ##  ##   ##  ##  ##      ####     ###    ##   ######   ######    **
 **    ##  ###   ##   ##  ##  ##      ## ##      ##   ##   ##       ##        **
 **     #######   #####   ##   #####  ##  ##  ####    ##    #####   ##        **
 **           ##                                                    ##        **
 **                                                                           **
 **                                                ... make the atoms dance   **
 **                                                                           **
 **            Copyright (C) by CP2K developers group (2000-2023)             **
 **                      J. Chem. Phys. 152, 194103 (2020)                    **
 **                                                                           **
 *******************************************************************************


 TOTAL NUMBERS AND MAXIMUM NUMBERS

  Total number of            - Atomic kinds:                                   2
                             - Atoms:                                          6
                             - Shell sets:                                     6
                             - Shells:                                        22
                             - Primitive Cartesian functions:                 42
                             - Cartesian basis functions:                     48
                             - Spherical basis functions:                     46

  Maximum angular momentum of- Orbital basis functions:                        2
                             - Local part of the GTH pseudopotential:          2
                             - Non-local part of the GTH pseudopotential:      0

 ------------------------------ Linear scaling SCF -----------------------------
 eps_scf:                                                              0.100E-07
 eps_filter:                                                           0.100E-07
 mixing_fraction:                                                      0.450E+00
 max_scf:                                                                     25
 fixed chemical potential (mu)                                                 F
 has unit metric:                                                              F
 Computing inv(S):                                                             T
 Computing sqrt(S):                                                            T
 Computing S preconditioner                                                    F
 S sqrt method:                                                     NEWTONSCHULZ
 S sqrt order:                                                                 3
 Extrapolation order:                                                          1
 Use single precision matrices                                                 F
 S preconditioner type                                                      NONE
 Polarized Atomic Orbitals (PAO)                                               T
 Purification method                                   Trace resetting 4th order
 Cluster type                                                             ATOMIC
 Computing Chebyshev                                                       FALSE
 Using PAO                                                                     T
 -------------------------------------------------------------------------------

 
 PAO|                                  EPS_PAO                           0.1E-04
 PAO|                                  MIXING                            0.5E+00
 PAO|                                  MAX_PAO                              1000
 PAO|                                  MAX_CYCLES                           1000
 PAO|                                  PARAMETERIZATION              EQUIVARIANT
 PAO|                                  PRECONDITION                            F
 PAO|                                  REGULARIZATION                    0.0E+00
 PAO|                                  EPS_PGF                           0.1E-09
 PAO|                                  PENALTY_DISTANCE                  0.1E+00
 PAO|                                  PENALTY_STRENGTH                  0.5E-02
 PAO|                                  LINPOT_PRECONDITION_DELTA         0.0E+00
 PAO|                                  LINPOT_INITGUESS_DELT             0.0E+00
 PAO|                                  LINPOT_REGULARIZATION_DELTA       0.0E+00
 PAO|                                  LINPOT_REGULARIZATION_STRENGTH    0.0E+00
 PAO|                                  OPTIMIZER                              CG
 PAO|                                  CG_INIT_STEPS                           2
 PAO|                                  CG_RESET_LIMIT                    0.1E+00
 PAO|                                  CHECK_UNITARY_TOL                -0.1E+01
 PAO|                                  CHECK_GRADIENT_TOL               -0.1E+01
 PAO|                                  NUM_GRADIENT_ORDER                      2
 PAO|                                  NUM_GRADIENT_EPS                  0.1E-07
 PAO|                                  PRINT%RESTART%WRITE_CYCLES            100
 PAO|                                  RESTART_FILE 
 PAO|                                  PREOPT_DM_FILE 2H2O_ref_LS_DM_SPIN_1_RESTART.dm
 PAO|                                  MACHINE_LEARNING%METHOD       GAUSSIAN_PR
 PAO|                                  MACHINE_LEARNING%PRIOR               ZERO
 PAO|                                  MACHINE_LEARNING%DESCRIPTOR     POTENTIAL
 PAO|                                  MACHINE_LEARNING%TOLERANCE        0.1E-01
 PAO|                                  MACHINE_LEARNING%GP_NOISE_VAR     0.1E+00
 PAO|                                  MACHINE_LEARNING%GP_SCALE         0.5E-01
 

 Calculating atomic Fock matrix for atomic kind: O

 Electronic structure
    Total number of core electrons                                          2.00
    Total number of valence electrons                                       6.00
    Total number of electrons                                               8.00
    Multiplicity                                                   not specified
    S   [  2.00] 2.00
    P      4.00


 *******************************************************************************
                  Iteration          Convergence                     Energy [au]
 *******************************************************************************
                          1        0.708315                     -15.576645311500
                          2        0.608879                     -15.587933561584
                          3        0.102828E-01                 -15.656849565404
                          4        0.113889E-02                 -15.656866888140
                          5        0.434197E-03                 -15.656867072159
                          6        0.263771E-03                 -15.656867091904
                          7        0.478536E-06                 -15.656867103452

 Energy components [Hartree]           Total Energy ::          -15.656867103452
                                        Band Energy ::           -3.000198112285
                                     Kinetic Energy ::           11.759971203220
                                   Potential Energy ::          -27.416838306672
                                      Virial (-V/T) ::            2.331369510426
                                        Core Energy ::          -26.140716385623
                                          XC Energy ::           -3.154051012914
                                     Coulomb Energy ::           13.637900295084
                       Total Pseudopotential Energy ::          -37.935781716540
                       Local Pseudopotential Energy ::          -39.218907440693
                    Nonlocal Pseudopotential Energy ::            1.283125724153
                                        Confinement ::            0.350941276976

 Orbital energies  State     L     Occupation   Energy[a.u.]          Energy[eV]

                       1     0          2.000      -0.864471          -23.523463

                       1     1          4.000      -0.317814           -8.648154


 Total Electron Density at R=0:                                         0.000068

 Calculating atomic Fock matrix for atomic kind: H

 Electronic structure
    Total number of core electrons                                          0.00
    Total number of valence electrons                                       1.00
    Total number of electrons                                               1.00
    Multiplicity                                                   not specified
    S      1.00


 *******************************************************************************
                  Iteration          Convergence                     Energy [au]
 *******************************************************************************
                          1        0.437545E-02                  -0.424159432110
                          2        0.531356E-03                  -0.424178438213
                          3        0.259176E-06                  -0.424178722480

 Energy components [Hartree]           Total Energy ::           -0.424178722480
                                        Band Energy ::           -0.199015229016
                                     Kinetic Energy ::            0.464007633961
                                   Potential Energy ::           -0.888186356441
                                      Virial (-V/T) ::            1.914163240935
                                        Core Energy ::           -0.479160803564
                                          XC Energy ::           -0.244352904054
                                     Coulomb Energy ::            0.299334985138
                       Total Pseudopotential Energy ::           -0.962295316385
                       Local Pseudopotential Energy ::           -0.962295316385
                    Nonlocal Pseudopotential Energy ::            0.000000000000
                                        Confinement ::            0.191268788606

 Orbital energies  State     L     Occupation   Energy[a.u.]          Energy[eV]

                       1     0          1.000      -0.199015           -5.415480


 Total Electron Density at R=0:                                         0.242907
 PAO| Made initial guess for matrix_X with norm:   4.8989794855663558     

     Lanczos converged:  T threshold:   0.100E-02
     Est. extremal eigenvalues:    0.336E+01   0.114E+00
     Est. condition number :    0.294E+02

 Order=           3
     NS sqrt iter    1 1.00000000   0.821E+00       0.001       64.512
     NS sqrt iter    2 1.00000000   0.440E+00       0.001      110.592
     NS sqrt iter    3 1.00000000   0.170E+00       0.001      110.592
     NS sqrt iter    4 1.00000000   0.206E-01       0.001      110.592
     NS sqrt iter    5 1.00000000   0.537E-04       0.001       91.392
     Symmetrizing Results
     Final NS sqrt iter    5 1.00000000   0.426E-08

 PAO| Read restart DM 2H2O_ref_LS_DM_SPIN_1_RESTART.dm with checksum:    45.074232526035480     
 PAO| Quickstep energy from restart density:  -34.450649595588381     
 PAO| ======================= Iteration:         1 =============================

     Lanczos converged:  T threshold:   0.100E-02
     Est. extremal eigenvalues:    0.336E+01   0.114E+00
     Est. condition number :    0.294E+02

 Order=           3
     NS sqrt iter    1 1.00000000   0.821E+00       0.001       64.512
     NS sqrt iter    2 1.00000000   0.440E+00       0.001      110.592
     NS sqrt iter    3 1.00000000   0.170E+00       0.001      110.592
     NS sqrt iter    4 1.00000000   0.206E-01       0.001      110.592
     NS sqrt iter    5 1.00000000   0.537E-04       0.001       91.392
     Symmetrizing Results
     Final NS sqrt iter    5 1.00000000   0.426E-08

     Est. extremal eigenvalues     -0.91945     1.88698  converged:  T
     TRS4 it   1 1.00000000   0.884E+00       0.000       16.128   0.100E-07
     TRS4 it   2 1.00000000   0.692E+00       0.000       32.256   0.100E-07
     TRS4 it   3 1.00000000   0.499E+00       0.000       32.256   0.100E-07
     TRS4 it   4 1.00000000   0.312E+00       0.000       32.256   0.100E-07
     TRS4 it   5 1.00000000   0.155E+00       0.000       32.256   0.100E-07
     TRS4 it   6 1.00000000   0.484E-01       0.000       32.256   0.100E-07
     TRS4 it   7 1.00000000   0.660E-02       0.000       32.256   0.100E-07
     TRS4 it   8 1.00000000   0.173E-03       0.000       32.256   0.100E-07
     TRS4 it   9 1.00000000   0.132E-06       0.000       32.256   0.100E-07
     TRS4 it  10 1.00000000   0.792E-13       0.000       32.256   0.100E-07
     Final TRS4 iteration   10 1.00000000   0.792E-13
     Chemical potential (mu):      -0.06470
 
 PAO| energy:  -7.6183979324343962      penalty:   4.1291938007662346E-033
 PAO|CG| warming up with steepest descent
 PAO|CG| beta:    0.0000000000000000     
 PAO| norm of gradient:  0.78335103252884086     
 PAO|LS| adapt:  T F F
 PAO|LS| adapt: scan_steps:    0.0000000000000000        0.0000000000000000        0.0000000000000000     
 PAO|LS| adapt: energies:   -7.6183979324343962        0.0000000000000000        0.0000000000000000     
 PAO| ======================= Iteration:         2 =============================

     Lanczos converged:  T threshold:   0.100E-02
     Est. extremal eigenvalues:    0.327E+01   0.127E+00
     Est. condition number :    0.258E+02

 Order=           3
     NS sqrt iter    1 1.00000000   0.805E+00       0.001       64.512
     NS sqrt iter    2 1.00000000   0.425E+00       0.001      110.592
     NS sqrt iter    3 1.00000000   0.153E+00       0.001      110.592
     NS sqrt iter    4 1.00000000   0.143E-01       0.001      110.592
     NS sqrt iter    5 1.00000000   0.171E-04       0.001       82.944
     Symmetrizing Results
     Final NS sqrt iter    5 1.00000000   0.445E-09

     Est. extremal eigenvalues     -0.92312     1.83309  converged:  T
     TRS4 it   1 1.00000000   0.881E+00       0.000       16.128   0.100E-07
     TRS4 it   2 1.00000000   0.673E+00       0.000       32.256   0.100E-07
     TRS4 it   3 1.00000000   0.483E+00       0.000       32.256   0.100E-07
     TRS4 it   4 1.00000000   0.292E+00       0.000       32.256   0.100E-07
     TRS4 it   5 1.00000000   0.135E+00       0.000       32.256   0.100E-07
     TRS4 it   6 1.00000000   0.372E-01       0.000       32.256   0.100E-07
     TRS4 it   7 1.00000000   0.395E-02       0.000       32.256   0.100E-07
     TRS4 it   8 1.00000000   0.624E-04       0.000       32.256   0.100E-07
     TRS4 it   9 1.00000000   0.173E-07       0.000       32.256   0.100E-07
     Final TRS4 iteration    9 1.00000000   0.173E-07
     Chemical potential (mu):      -0.05267
 
 PAO| energy:  -7.6738853084672884      penalty:   2.2479056089725410E-008
 PAO|LS| adapt:  T T F
 PAO|LS| adapt: scan_steps:    0.0000000000000000       0.10000000000000001        0.0000000000000000     
 PAO|LS| adapt: energies:   -7.6183979324343962       -7.6738853084672884        0.0000000000000000     
 PAO| ======================= Iteration:         3 =============================

     Lanczos converged:  T threshold:   0.100E-02
     Est. extremal eigenvalues:    0.318E+01   0.138E+00
     Est. condition number :    0.230E+02

 Order=           3
     NS sqrt iter    1 1.00000000   0.787E+00       0.001       64.512
     NS sqrt iter    2 1.00000000   0.408E+00       0.001      110.592
     NS sqrt iter    3 1.00000000   0.136E+00       0.001      110.592
     NS sqrt iter    4 1.00000000   0.982E-02       0.001      110.592
     NS sqrt iter    5 1.00000000   0.574E-05       0.001       82.944
     Symmetrizing Results
     Final NS sqrt iter    5 1.00000000   0.507E-10

     Est. extremal eigenvalues     -0.92654     1.78963  converged:  T
     TRS4 it   1 1.00000000   0.878E+00       0.000       16.128   0.100E-07
     TRS4 it   2 1.00000000   0.657E+00       0.000       32.256   0.100E-07
     TRS4 it   3 1.00000000   0.468E+00       0.000       32.256   0.100E-07
     TRS4 it   4 1.00000000   0.272E+00       0.000       32.256   0.100E-07
     TRS4 it   5 1.00000000   0.117E+00       0.000       32.256   0.100E-07
     TRS4 it   6 1.00000000   0.277E-01       0.000       32.256   0.100E-07
     TRS4 it   7 1.00000000   0.219E-02       0.000       32.256   0.100E-07
     TRS4 it   8 1.00000000   0.192E-04       0.000       32.256   0.100E-07
     TRS4 it   9 1.00000000   0.165E-08       0.000       32.256   0.100E-07
     Final TRS4 iteration    9 1.00000000   0.165E-08
     Chemical potential (mu):      -0.03968
 
 PAO| energy:  -7.7169589488100199      penalty:   3.5966476528663866E-007
 PAO|LS| adapt:  T T F
 PAO|LS| adapt: scan_steps:    0.0000000000000000       0.20000000000000001        0.0000000000000000     
 PAO|LS| adapt: energies:   -7.6183979324343962       -7.7169589488100199        0.0000000000000000     
 PAO| ======================= Iteration:         4 =============================

     Lanczos converged:  T threshold:   0.100E-02
     Est. extremal eigenvalues:    0.299E+01   0.156E+00
     Est. condition number :    0.191E+02

 Order=           3
     NS sqrt iter    1 1.00000000   0.750E+00       0.001       64.512
     NS sqrt iter    2 1.00000000   0.374E+00       0.001      110.592
     NS sqrt iter    3 1.00000000   0.106E+00       0.001      110.592
     NS sqrt iter    4 1.00000000   0.480E-02       0.001      110.592
     NS sqrt iter    5 1.00000000   0.829E-06       0.001       82.944
     Symmetrizing Results
     Final NS sqrt iter    5 1.00000000   0.116E-11

     Est. extremal eigenvalues     -0.93188     1.72640  converged:  T
     TRS4 it   1 1.00000000   0.874E+00       0.000       16.128   0.100E-07
     TRS4 it   2 1.00000000   0.630E+00       0.000       32.256   0.100E-07
     TRS4 it   3 1.00000000   0.438E+00       0.000       32.256   0.100E-07
     TRS4 it   4 1.00000000   0.236E+00       0.000       32.256   0.100E-07
     TRS4 it   5 1.00000000   0.854E-01       0.000       32.256   0.100E-07
     TRS4 it   6 1.00000000   0.143E-01       0.000       32.256   0.100E-07
     TRS4 it   7 1.00000000   0.555E-03       0.000       32.256   0.100E-07
     TRS4 it   8 1.00000000   0.120E-05       0.000       32.256   0.100E-07
     TRS4 it   9 1.00000000   0.639E-11       0.000       32.256   0.100E-07
     Final TRS4 iteration    9 1.00000000   0.639E-11
     Chemical potential (mu):      -0.01107
 
 PAO| energy:  -7.7642386098992588      penalty:   5.7546351874058166E-006
 PAO|LS| Need extra step
 PAO|LS| adapt:  T T F
 PAO|LS| adapt: scan_steps:    0.0000000000000000       0.40000000000000002        0.0000000000000000     
 PAO|LS| adapt: energies:   -7.6183979324343962       -7.7642386098992588        0.0000000000000000     
 PAO| ======================= Iteration:         5 =============================

     Lanczos converged:  T threshold:   0.100E-02
     Est. extremal eigenvalues:    0.263E+01   0.183E+00
     Est. condition number :    0.144E+02

 Order=           3
     NS sqrt iter    1 1.00000000   0.687E+00       0.001       64.512
     NS sqrt iter    2 1.00000000   0.312E+00       0.001      110.592
     NS sqrt iter    3 1.00000000   0.655E-01       0.001      110.592
     NS sqrt iter    4 1.00000000   0.133E-02       0.001      110.592
     NS sqrt iter    5 1.00000000   0.234E-07       0.001       56.192
     Symmetrizing Results
     Final NS sqrt iter    5 1.00000000   0.244E-08

     Est. extremal eigenvalues     -0.93313     1.65566  converged:  T
     TRS4 it   1 1.00000000   0.869E+00       0.000       16.128   0.100E-07
     TRS4 it   2 1.00000000   0.594E+00       0.000       32.256   0.100E-07
     TRS4 it   3 1.00000000   0.390E+00       0.000       32.256   0.100E-07
     TRS4 it   4 1.00000000   0.179E+00       0.000       32.256   0.100E-07
     TRS4 it   5 1.00000000   0.459E-01       0.000       32.256   0.100E-07
     TRS4 it   6 1.00000000   0.372E-02       0.000       32.256   0.100E-07
     TRS4 it   7 1.00000000   0.317E-04       0.000       32.256   0.100E-07
     TRS4 it   8 1.00000000   0.291E-08       0.000       32.256   0.100E-07
     Final TRS4 iteration    8 1.00000000   0.291E-08
     Chemical potential (mu):       0.03807
 
 PAO| energy:  -7.7095768053299478      penalty:   9.2074154541095564E-005
 PAO|LS| Need extra step
 PAO|LS| adapt:  T T T
 PAO|LS| adapt: scan_steps:    0.0000000000000000       0.40000000000000002       0.80000000000000004     
 PAO|LS| adapt: energies:   -7.6183979324343962       -7.7642386098992588       -7.7095768053299478     
 PAO|LS| adapt: suggested step_size:   0.49095036826527777     
 PAO|LS| adapt: predicted energy  -7.7694215799416737     
 PAO| ======================= Iteration:         6 =============================

     Lanczos converged:  T threshold:   0.100E-02
     Est. extremal eigenvalues:    0.290E+01   0.163E+00
     Est. condition number :    0.178E+02

 Order=           3
     NS sqrt iter    1 1.00000000   0.734E+00       0.001       64.512
     NS sqrt iter    2 1.00000000   0.359E+00       0.001      110.592
     NS sqrt iter    3 1.00000000   0.947E-01       0.001      110.592
     NS sqrt iter    4 1.00000000   0.353E-02       0.001      110.592
     NS sqrt iter    5 1.00000000   0.364E-06       0.001       82.432
     Symmetrizing Results
     Final NS sqrt iter    5 1.00000000   0.160E-09

     Est. extremal eigenvalues     -0.93337     1.70527  converged:  T
     TRS4 it   1 1.00000000   0.872E+00       0.000       16.128   0.100E-07
     TRS4 it   2 1.00000000   0.620E+00       0.000       32.256   0.100E-07
     TRS4 it   3 1.00000000   0.426E+00       0.000       32.256   0.100E-07
     TRS4 it   4 1.00000000   0.221E+00       0.000       32.256   0.100E-07
     TRS4 it   5 1.00000000   0.737E-01       0.000       32.256   0.100E-07
     TRS4 it   6 1.00000000   0.104E-01       0.000       32.256   0.100E-07
     TRS4 it   7 1.00000000   0.280E-03       0.000       32.256   0.100E-07
     TRS4 it   8 1.00000000   0.291E-06       0.000       32.256   0.100E-07
     TRS4 it   9 1.00000000   0.374E-12       0.000       32.256   0.100E-07
     Final TRS4 iteration    9 1.00000000   0.374E-12
     Chemical potential (mu):       0.00277
 
 PAO| energy:  -7.7687016229538068      penalty:   1.3059548944061441E-005
 PAO|CG| warming up with steepest descent
 PAO|CG| beta:    0.0000000000000000     
 PAO| norm of gradient:  0.41762593281137278     
 PAO| energy improvement: -0.15030369051941062     
 PAO| step      6                   -7.768701623  0.261E-01  0.491E+00     0.061
 PAO|LS| adapt:  T F F
 PAO|LS| adapt: scan_steps:    0.0000000000000000        0.0000000000000000        0.0000000000000000     
 PAO|LS| adapt: energies:   -7.7687016229538068        0.0000000000000000        0.0000000000000000     
 PAO| ======================= Iteration:         7 =============================

     Lanczos converged:  T threshold:   0.100E-02
     Est. extremal eigenvalues:    0.281E+01   0.177E+00
     Est. condition number :    0.159E+02

 Order=           3
     NS sqrt iter    1 1.00000000   0.716E+00       0.001       64.512
     NS sqrt iter    2 1.00000000   0.338E+00       0.001      110.592
     NS sqrt iter    3 1.00000000   0.792E-01       0.001      110.592
     NS sqrt iter    4 1.00000000   0.214E-02       0.001      110.592
     NS sqrt iter    5 1.00000000   0.908E-07       0.001       75.904
     Symmetrizing Results
     Final NS sqrt iter    5 1.00000000   0.867E-09

     Est. extremal eigenvalues     -0.93509     1.69265  converged:  T
     TRS4 it   1 1.00000000   0.871E+00       0.000       16.128   0.100E-07
     TRS4 it   2 1.00000000   0.618E+00       0.000       32.256   0.100E-07
     TRS4 it   3 1.00000000   0.426E+00       0.000       32.256   0.100E-07
     TRS4 it   4 1.00000000   0.221E+00       0.000       32.256   0.100E-07
     TRS4 it   5 1.00000000   0.743E-01       0.000       32.256   0.100E-07
     TRS4 it   6 1.00000000   0.103E-01       0.000       32.256   0.100E-07
     TRS4 it   7 1.00000000   0.260E-03       0.000       32.256   0.100E-07
     TRS4 it   8 1.00000000   0.238E-06       0.000       32.256   0.100E-07
     TRS4 it   9 1.00000000   0.245E-12       0.000       32.256   0.100E-07
     Final TRS4 iteration    9 1.00000000   0.245E-12
     Chemical potential (mu):       0.00496
 
 PAO| energy:  -7.7627434816593235      penalty:   1.9797513738185419E-005
 PAO|LS| adapt:  T F T
 PAO|LS| adapt: scan_steps:    0.0000000000000000        0.0000000000000000       0.49095036826527777     
 PAO|LS| adapt: energies:   -7.7687016229538068        0.0000000000000000       -7.7627434816593235     
 PAO| ======================= Iteration:         8 =============================

     Lanczos converged:  T threshold:   0.100E-02
     Est. extremal eigenvalues:    0.286E+01   0.170E+00
     Est. condition number :    0.168E+02

 Order=           3
     NS sqrt iter    1 1.00000000   0.725E+00       0.001       64.512
     NS sqrt iter    2 1.00000000   0.348E+00       0.001      110.592
     NS sqrt iter    3 1.00000000   0.868E-01       0.001      110.592
     NS sqrt iter    4 1.00000000   0.277E-02       0.001      110.592
     NS sqrt iter    5 1.00000000   0.185E-06       0.001       80.128
     Symmetrizing Results
     Final NS sqrt iter    5 1.00000000   0.855E-09

     Est. extremal eigenvalues     -0.93518     1.69832  converged:  T
     TRS4 it   1 1.00000000   0.871E+00       0.000       16.128   0.100E-07
     TRS4 it   2 1.00000000   0.619E+00       0.000       32.256   0.100E-07
     TRS4 it   3 1.00000000   0.425E+00       0.000       32.256   0.100E-07
     TRS4 it   4 1.00000000   0.220E+00       0.000       32.256   0.100E-07
     TRS4 it   5 1.00000000   0.738E-01       0.000       32.256   0.100E-07
     TRS4 it   6 1.00000000   0.104E-01       0.000       32.256   0.100E-07
     TRS4 it   7 1.00000000   0.277E-03       0.000       32.256   0.100E-07
     TRS4 it   8 1.00000000   0.279E-06       0.000       32.256   0.100E-07
     TRS4 it   9 1.00000000   0.342E-12       0.000       32.256   0.100E-07
     Final TRS4 iteration    9 1.00000000   0.342E-12
     Chemical potential (mu):       0.00340
 
 PAO| energy:  -7.7883768540987264      penalty:   1.4166854128074440E-005
 PAO|LS| adapt:  T T T
 PAO|LS| adapt: scan_steps:    0.0000000000000000       0.24547518413263889       0.49095036826527777     
 PAO|LS| adapt: energies:   -7.7687016229538068       -7.7883768540987264       -7.7627434816593235     
 PAO|LS| adapt: suggested step_size:   0.22933502844863476     
 PAO|LS| adapt: predicted energy  -7.7884747920312503     
 PAO| ======================= Iteration:         9 =============================

     Lanczos converged:  T threshold:   0.100E-02
     Est. extremal eigenvalues:    0.286E+01   0.170E+00
     Est. condition number :    0.169E+02

 Order=           3
     NS sqrt iter    1 1.00000000   0.726E+00       0.001       64.512
     NS sqrt iter    2 1.00000000   0.349E+00       0.001      110.592
     NS sqrt iter    3 1.00000000   0.873E-01       0.001      110.592
     NS sqrt iter    4 1.00000000   0.281E-02       0.001      110.592
     NS sqrt iter    5 1.00000000   0.194E-06       0.001       80.128
     Symmetrizing Results
     Final NS sqrt iter    5 1.00000000   0.897E-09

     Est. extremal eigenvalues     -0.93512     1.69873  converged:  T
     TRS4 it   1 1.00000000   0.871E+00       0.000       16.128   0.100E-07
     TRS4 it   2 1.00000000   0.619E+00       0.000       32.256   0.100E-07
     TRS4 it   3 1.00000000   0.425E+00       0.000       32.256   0.100E-07
     TRS4 it   4 1.00000000   0.220E+00       0.000       32.256   0.100E-07
     TRS4 it   5 1.00000000   0.738E-01       0.000       32.256   0.100E-07
     TRS4 it   6 1.00000000   0.104E-01       0.000       32.256   0.100E-07
     TRS4 it   7 1.00000000   0.277E-03       0.000       32.256   0.100E-07
     TRS4 it   8 1.00000000   0.281E-06       0.000       32.256   0.100E-07
     TRS4 it   9 1.00000000   0.347E-12       0.000       32.256   0.100E-07
     Final TRS4 iteration    9 1.00000000   0.347E-12
     Chemical potential (mu):       0.00333
 
 PAO| energy:  -7.7884990529283327      penalty:   1.3993687368165846E-005
 PAO|CG| trace_G_new    3.6918298351320107E-002
 PAO|CG| trace_G_prev   0.17441141975656926     
 PAO|CG| trace_G_mix   -1.4551747372000762E-003
 PAO|CG| trace_D   0.17441141975656926     
 PAO|CG| trace_D_Gnew   1.4551747372000762E-003
 PAO|CG| beta:   0.22001697562051314     
 PAO| norm of gradient:  0.19214134992582962     
 PAO| energy improvement:  -1.9797429974525826E-002
 PAO| step      9                   -7.788499053  0.120E-01  0.229E+00     0.037
 PAO|LS| adapt:  T F F
 PAO|LS| adapt: scan_steps:    0.0000000000000000        0.0000000000000000        0.0000000000000000     
 PAO|LS| adapt: energies:   -7.7884990529283327        0.0000000000000000        0.0000000000000000     
 PAO| ======================= Iteration:        10 =============================

     Lanczos converged:  T threshold:   0.100E-02
     Est. extremal eigenvalues:    0.282E+01   0.175E+00
     Est. condition number :    0.161E+02

 Order=           3
     NS sqrt iter    1 1.00000000   0.718E+00       0.001       64.512
     NS sqrt iter    2 1.00000000   0.341E+00       0.001      110.592
     NS sqrt iter    3 1.00000000   0.817E-01       0.001      110.592
     NS sqrt iter    4 1.00000000   0.231E-02       0.001      110.592
     NS sqrt iter    5 1.00000000   0.108E-06       0.001       76.800
     Symmetrizing Results
     Final NS sqrt iter    5 1.00000000   0.110E-08

     Est. extremal eigenvalues     -0.93601     1.69539  converged:  T
     TRS4 it   1 1.00000000   0.870E+00       0.000       16.128   0.100E-07
     TRS4 it   2 1.00000000   0.618E+00       0.000       32.256   0.100E-07
     TRS4 it   3 1.00000000   0.424E+00       0.000       32.256   0.100E-07
     TRS4 it   4 1.00000000   0.218E+00       0.000       32.256   0.100E-07
     TRS4 it   5 1.00000000   0.719E-01       0.000       32.256   0.100E-07
     TRS4 it   6 1.00000000   0.980E-02       0.000       32.256   0.100E-07
     TRS4 it   7 1.00000000   0.242E-03       0.000       32.256   0.100E-07
     TRS4 it   8 1.00000000   0.209E-06       0.000       32.256   0.100E-07
     TRS4 it   9 1.00000000   0.190E-12       0.000       32.256   0.100E-07
     Final TRS4 iteration    9 1.00000000   0.190E-12
     Chemical potential (mu):       0.00650
 
 PAO| energy:  -7.7935464229794666      penalty:   1.4535489778380723E-005
 PAO|LS| adapt:  T T F
 PAO|LS| adapt: scan_steps:    0.0000000000000000       0.22933502844863476        0.0000000000000000     
 PAO|LS| adapt: energies:   -7.7884990529283327       -7.7935464229794666        0.0000000000000000     
 PAO| ======================= Iteration:        11 =============================

     Lanczos converged:  T threshold:   0.100E-02
     Est. extremal eigenvalues:    0.278E+01   0.181E+00
     Est. condition number :    0.154E+02

 Order=           3
     NS sqrt iter    1 1.00000000   0.710E+00       0.001       64.512
     NS sqrt iter    2 1.00000000   0.333E+00       0.001      110.592
     NS sqrt iter    3 1.00000000   0.763E-01       0.001      110.592
     NS sqrt iter    4 1.00000000   0.189E-02       0.001      110.592
     NS sqrt iter    5 1.00000000   0.597E-07       0.001       72.320
     Symmetrizing Results
     Final NS sqrt iter    5 1.00000000   0.546E-09

     Est. extremal eigenvalues     -0.93592     1.69342  converged:  T
     TRS4 it   1 1.00000000   0.869E+00       0.000       16.128   0.100E-07
     TRS4 it   2 1.00000000   0.617E+00       0.000       32.256   0.100E-07
     TRS4 it   3 1.00000000   0.422E+00       0.000       32.256   0.100E-07
     TRS4 it   4 1.00000000   0.216E+00       0.000       32.256   0.100E-07
     TRS4 it   5 1.00000000   0.701E-01       0.000       32.256   0.100E-07
     TRS4 it   6 1.00000000   0.925E-02       0.000       32.256   0.100E-07
     TRS4 it   7 1.00000000   0.212E-03       0.000       32.256   0.100E-07
     TRS4 it   8 1.00000000   0.155E-06       0.000       32.256   0.100E-07
     TRS4 it   9 1.00000000   0.103E-12       0.000       32.256   0.100E-07
     Final TRS4 iteration    9 1.00000000   0.103E-12
     Chemical potential (mu):       0.00978
 
 PAO| energy:  -7.7921447094732628      penalty:   1.5749308262560451E-005
 PAO|LS| adapt:  T T T
 PAO|LS| adapt: scan_steps:    0.0000000000000000       0.22933502844863476       0.45867005689726953     
 PAO|LS| adapt: energies:   -7.7884990529283327       -7.7935464229794666       -7.7921447094732628     
 PAO|LS| adapt: suggested step_size:   0.29415638950032980     
 PAO|LS| adapt: predicted energy  -7.7938040334508898     
 PAO| ======================= Iteration:        12 =============================

     Lanczos converged:  T threshold:   0.100E-02
     Est. extremal eigenvalues:    0.281E+01   0.177E+00
     Est. condition number :    0.159E+02

 Order=           3
     NS sqrt iter    1 1.00000000   0.716E+00       0.001       64.512
     NS sqrt iter    2 1.00000000   0.338E+00       0.001      110.592
     NS sqrt iter    3 1.00000000   0.801E-01       0.001      110.592
     NS sqrt iter    4 1.00000000   0.219E-02       0.001      110.592
     NS sqrt iter    5 1.00000000   0.917E-07       0.001       75.392
     Symmetrizing Results
     Final NS sqrt iter    5 1.00000000   0.892E-09

     Est. extremal eigenvalues     -0.93608     1.69469  converged:  T
     TRS4 it   1 1.00000000   0.869E+00       0.000       16.128   0.100E-07
     TRS4 it   2 1.00000000   0.617E+00       0.000       32.256   0.100E-07
     TRS4 it   3 1.00000000   0.423E+00       0.000       32.256   0.100E-07
     TRS4 it   4 1.00000000   0.217E+00       0.000       32.256   0.100E-07
     TRS4 it   5 1.00000000   0.714E-01       0.000       32.256   0.100E-07
     TRS4 it   6 1.00000000   0.964E-02       0.000       32.256   0.100E-07
     TRS4 it   7 1.00000000   0.233E-03       0.000       32.256   0.100E-07
     TRS4 it   8 1.00000000   0.192E-06       0.000       32.256   0.100E-07
     TRS4 it   9 1.00000000   0.160E-12       0.000       32.256   0.100E-07
     Final TRS4 iteration    9 1.00000000   0.160E-12
     Chemical potential (mu):       0.00742
 
 PAO| energy:  -7.7937878349457383      penalty:   1.4802753520778736E-005
 PAO|CG| trace_G_new    1.1852123348908332E-002
 PAO|CG| trace_G_prev    3.6918298351320107E-002
 PAO|CG| trace_G_mix   -4.5558845675603018E-004
 PAO|CG| trace_D    4.4720787554955205E-002
 PAO|CG| trace_D_Gnew   2.0764662813890756E-004
 PAO|CG| beta:   0.33337700693954841     
 PAO| norm of gradient:  0.10886745771307572     
 PAO| energy improvement:  -5.2887820174056799E-003
 PAO| step     12                   -7.793787835  0.680E-02  0.294E+00     0.037
 PAO|LS| adapt:  T F F
 PAO|LS| adapt: scan_steps:    0.0000000000000000        0.0000000000000000        0.0000000000000000     
 PAO|LS| adapt: energies:   -7.7937878349457383        0.0000000000000000        0.0000000000000000     
 PAO| ======================= Iteration:        13 =============================

     Lanczos converged:  T threshold:   0.100E-02
     Est. extremal eigenvalues:    0.278E+01   0.181E+00
     Est. condition number :    0.153E+02

 Order=           3
     NS sqrt iter    1 1.00000000   0.708E+00       0.001       64.512
     NS sqrt iter    2 1.00000000   0.331E+00       0.001      110.592
     NS sqrt iter    3 1.00000000   0.758E-01       0.001      110.592
     NS sqrt iter    4 1.00000000   0.186E-02       0.001      110.592
     NS sqrt iter    5 1.00000000   0.576E-07       0.001       71.680
     Symmetrizing Results
     Final NS sqrt iter    5 1.00000000   0.553E-09

     Est. extremal eigenvalues     -0.93657     1.68877  converged:  T
     TRS4 it   1 1.00000000   0.869E+00       0.000       16.128   0.100E-07
     TRS4 it   2 1.00000000   0.615E+00       0.000       32.256   0.100E-07
     TRS4 it   3 1.00000000   0.419E+00       0.000       32.256   0.100E-07
     TRS4 it   4 1.00000000   0.213E+00       0.000       32.256   0.100E-07
     TRS4 it   5 1.00000000   0.679E-01       0.000       32.256   0.100E-07
     TRS4 it   6 1.00000000   0.866E-02       0.000       32.256   0.100E-07
     TRS4 it   7 1.00000000   0.186E-03       0.000       32.256   0.100E-07
     TRS4 it   8 1.00000000   0.119E-06       0.000       32.256   0.100E-07
     TRS4 it   9 1.00000000   0.604E-13       0.000       32.256   0.100E-07
     Final TRS4 iteration    9 1.00000000   0.604E-13
     Chemical potential (mu):       0.01198
 
 PAO| energy:  -7.7958626568888025      penalty:   1.5114842826724676E-005
 PAO|LS| adapt:  T T F
 PAO|LS| adapt: scan_steps:    0.0000000000000000       0.29415638950032980        0.0000000000000000     
 PAO|LS| adapt: energies:   -7.7937878349457383       -7.7958626568888025        0.0000000000000000     
 PAO| ======================= Iteration:        14 =============================

     Lanczos converged:  T threshold:   0.100E-02
     Est. extremal eigenvalues:    0.274E+01   0.185E+00
     Est. condition number :    0.148E+02

 Order=           3
     NS sqrt iter    1 1.00000000   0.701E+00       0.001       64.512
     NS sqrt iter    2 1.00000000   0.325E+00       0.001      110.592
     NS sqrt iter    3 1.00000000   0.716E-01       0.001      110.592
     NS sqrt iter    4 1.00000000   0.159E-02       0.001      110.592
     NS sqrt iter    5 1.00000000   0.360E-07       0.001       65.408
     Symmetrizing Results
     Final NS sqrt iter    5 1.00000000   0.306E-08

     Est. extremal eigenvalues     -0.93654     1.68317  converged:  T
     TRS4 it   1 1.00000000   0.869E+00       0.000       16.128   0.100E-07
     TRS4 it   2 1.00000000   0.612E+00       0.000       32.256   0.100E-07
     TRS4 it   3 1.00000000   0.415E+00       0.000       32.256   0.100E-07
     TRS4 it   4 1.00000000   0.208E+00       0.000       32.256   0.100E-07
     TRS4 it   5 1.00000000   0.646E-01       0.000       32.256   0.100E-07
     TRS4 it   6 1.00000000   0.779E-02       0.000       32.256   0.100E-07
     TRS4 it   7 1.00000000   0.148E-03       0.000       32.256   0.100E-07
     TRS4 it   8 1.00000000   0.735E-07       0.000       32.256   0.100E-07
     Final TRS4 iteration    8 1.00000000   0.735E-07
     Chemical potential (mu):       0.01372
 
 PAO| energy:  -7.7952050275169942      penalty:   1.5911294596196898E-005
 PAO|LS| adapt:  T T T
 PAO|LS| adapt: scan_steps:    0.0000000000000000       0.29415638950032980       0.58831277900065959     
 PAO|LS| adapt: energies:   -7.7937878349457383       -7.7958626568888025       -7.7952050275169942     
 PAO|LS| adapt: suggested step_size:   0.37043885567242146     
 PAO|LS| adapt: predicted energy  -7.7959545356888515     
 PAO| ======================= Iteration:        15 =============================

     Lanczos converged:  T threshold:   0.100E-02
     Est. extremal eigenvalues:    0.277E+01   0.182E+00
     Est. condition number :    0.152E+02

 Order=           3
     NS sqrt iter    1 1.00000000   0.707E+00       0.001       64.512
     NS sqrt iter    2 1.00000000   0.330E+00       0.001      110.592
     NS sqrt iter    3 1.00000000   0.747E-01       0.001      110.592
     NS sqrt iter    4 1.00000000   0.179E-02       0.001      110.592
     NS sqrt iter    5 1.00000000   0.510E-07       0.001       70.528
     Symmetrizing Results
     Final NS sqrt iter    5 1.00000000   0.438E-09

     Est. extremal eigenvalues     -0.93661     1.68729  converged:  T
     TRS4 it   1 1.00000000   0.869E+00       0.000       16.128   0.100E-07
     TRS4 it   2 1.00000000   0.614E+00       0.000       32.256   0.100E-07
     TRS4 it   3 1.00000000   0.418E+00       0.000       32.256   0.100E-07
     TRS4 it   4 1.00000000   0.211E+00       0.000       32.256   0.100E-07
     TRS4 it   5 1.00000000   0.670E-01       0.000       32.256   0.100E-07
     TRS4 it   6 1.00000000   0.842E-02       0.000       32.256   0.100E-07
     TRS4 it   7 1.00000000   0.175E-03       0.000       32.256   0.100E-07
     TRS4 it   8 1.00000000   0.105E-06       0.000       32.256   0.100E-07
     TRS4 it   9 1.00000000   0.462E-13       0.000       32.256   0.100E-07
     Final TRS4 iteration    9 1.00000000   0.462E-13
     Chemical potential (mu):       0.01315
 
 PAO| energy:  -7.7959514968312060      penalty:   1.5271815131673873E-005
 PAO|CG| trace_G_new    2.6206081878153388E-003
 PAO|CG| trace_G_prev    1.1852123348908332E-002
 PAO|CG| trace_G_mix    6.4350535333705796E-005
 PAO|CG| trace_D    1.6683952685133185E-002
 PAO|CG| trace_D_Gnew   3.4081968952123440E-005
 PAO|CG| beta:   0.21567929874076811     
 PAO| norm of gradient:   5.1191876189639100E-002
 PAO| energy improvement:  -2.1636618854676826E-003
 PAO| step     15                   -7.795951497  0.320E-02  0.370E+00     0.036
 PAO|LS| adapt:  T F F
 PAO|LS| adapt: scan_steps:    0.0000000000000000        0.0000000000000000        0.0000000000000000     
 PAO|LS| adapt: energies:   -7.7959514968312060        0.0000000000000000        0.0000000000000000     
 PAO| ======================= Iteration:        16 =============================

     Lanczos converged:  T threshold:   0.100E-02
     Est. extremal eigenvalues:    0.276E+01   0.183E+00
     Est. condition number :    0.151E+02

 Order=           3
     NS sqrt iter    1 1.00000000   0.705E+00       0.001       64.512
     NS sqrt iter    2 1.00000000   0.328E+00       0.001      110.592
     NS sqrt iter    3 1.00000000   0.740E-01       0.001      110.592
     NS sqrt iter    4 1.00000000   0.173E-02       0.001      110.592
     NS sqrt iter    5 1.00000000   0.465E-07       0.001       69.888
     Symmetrizing Results
     Final NS sqrt iter    5 1.00000000   0.345E-09

     Est. extremal eigenvalues     -0.93664     1.68708  converged:  T
     TRS4 it   1 1.00000000   0.869E+00       0.000       16.128   0.100E-07
     TRS4 it   2 1.00000000   0.613E+00       0.000       32.256   0.100E-07
     TRS4 it   3 1.00000000   0.417E+00       0.000       32.256   0.100E-07
     TRS4 it   4 1.00000000   0.210E+00       0.000       32.256   0.100E-07
     TRS4 it   5 1.00000000   0.659E-01       0.000       32.256   0.100E-07
     TRS4 it   6 1.00000000   0.816E-02       0.000       32.256   0.100E-07
     TRS4 it   7 1.00000000   0.165E-03       0.000       32.256   0.100E-07
     TRS4 it   8 1.00000000   0.941E-07       0.000       32.256   0.100E-07
     TRS4 it   9 1.00000000   0.383E-13       0.000       32.256   0.100E-07
     Final TRS4 iteration    9 1.00000000   0.383E-13
     Chemical potential (mu):       0.01399
 
 PAO| energy:  -7.7960780479144889      penalty:   1.5053305951688551E-005
 PAO|LS| adapt:  T T F
 PAO|LS| adapt: scan_steps:    0.0000000000000000       0.37043885567242146        0.0000000000000000     
 PAO|LS| adapt: energies:   -7.7959514968312060       -7.7960780479144889        0.0000000000000000     
 PAO| ======================= Iteration:        17 =============================

     Lanczos converged:  T threshold:   0.100E-02
     Est. extremal eigenvalues:    0.275E+01   0.183E+00
     Est. condition number :    0.150E+02

 Order=           3
     NS sqrt iter    1 1.00000000   0.703E+00       0.001       64.512
     NS sqrt iter    2 1.00000000   0.327E+00       0.001      110.592
     NS sqrt iter    3 1.00000000   0.734E-01       0.001      110.592
     NS sqrt iter    4 1.00000000   0.168E-02       0.001      110.592
     NS sqrt iter    5 1.00000000   0.425E-07       0.001       69.376
     Symmetrizing Results
     Final NS sqrt iter    5 1.00000000   0.350E-09

     Est. extremal eigenvalues     -0.93654     1.68696  converged:  T
     TRS4 it   1 1.00000000   0.870E+00       0.000       16.128   0.100E-07
     TRS4 it   2 1.00000000   0.612E+00       0.000       32.256   0.100E-07
     TRS4 it   3 1.00000000   0.416E+00       0.000       32.256   0.100E-07
     TRS4 it   4 1.00000000   0.208E+00       0.000       32.256   0.100E-07
     TRS4 it   5 1.00000000   0.649E-01       0.000       32.256   0.100E-07
     TRS4 it   6 1.00000000   0.790E-02       0.000       32.256   0.100E-07
     TRS4 it   7 1.00000000   0.156E-03       0.000       32.256   0.100E-07
     TRS4 it   8 1.00000000   0.846E-07       0.000       32.256   0.100E-07
     TRS4 it   9 1.00000000   0.306E-13       0.000       32.256   0.100E-07
     Final TRS4 iteration    9 1.00000000   0.306E-13
     Chemical potential (mu):       0.01481
 
 PAO| energy:  -7.7945158428553807      penalty:   1.4960542453594648E-005
 PAO|LS| adapt:  T T T
 PAO|LS| adapt: scan_steps:    0.0000000000000000       0.37043885567242146       0.74087771134484293     
 PAO|LS| adapt: energies:   -7.7959514968312060       -7.7960780479144889       -7.7945158428553807     
 PAO|LS| adapt: suggested step_size:   0.21297917200450200     
 PAO|LS| adapt: predicted energy  -7.7962306085985462     
 PAO| ======================= Iteration:        18 =============================

     Lanczos converged:  T threshold:   0.100E-02
     Est. extremal eigenvalues:    0.276E+01   0.182E+00
     Est. condition number :    0.151E+02

 Order=           3
     NS sqrt iter    1 1.00000000   0.706E+00       0.001       64.512
     NS sqrt iter    2 1.00000000   0.329E+00       0.001      110.592
     NS sqrt iter    3 1.00000000   0.743E-01       0.001      110.592
     NS sqrt iter    4 1.00000000   0.176E-02       0.001      110.592
     NS sqrt iter    5 1.00000000   0.484E-07       0.001       70.016
     Symmetrizing Results
     Final NS sqrt iter    5 1.00000000   0.356E-09

     Est. extremal eigenvalues     -0.93664     1.68716  converged:  T
     TRS4 it   1 1.00000000   0.869E+00       0.000       16.128   0.100E-07
     TRS4 it   2 1.00000000   0.613E+00       0.000       32.256   0.100E-07
     TRS4 it   3 1.00000000   0.417E+00       0.000       32.256   0.100E-07
     TRS4 it   4 1.00000000   0.210E+00       0.000       32.256   0.100E-07
     TRS4 it   5 1.00000000   0.664E-01       0.000       32.256   0.100E-07
     TRS4 it   6 1.00000000   0.827E-02       0.000       32.256   0.100E-07
     TRS4 it   7 1.00000000   0.169E-03       0.000       32.256   0.100E-07
     TRS4 it   8 1.00000000   0.985E-07       0.000       32.256   0.100E-07
     TRS4 it   9 1.00000000   0.414E-13       0.000       32.256   0.100E-07
     Final TRS4 iteration    9 1.00000000   0.414E-13
     Chemical potential (mu):       0.01364
 
 PAO| energy:  -7.7962301323695380      penalty:   1.5131091346080048E-005
 PAO|CG| trace_G_new    7.3238601198511496E-004
 PAO|CG| trace_G_prev    2.6206081878153388E-003
 PAO|CG| trace_G_mix    1.7373438741086188E-006
 PAO|CG| trace_D    3.3820034059767736E-003
 PAO|CG| trace_D_Gnew  -1.8184839891558514E-006
 PAO|CG| beta:   0.27880881678848346     
 PAO| norm of gradient:   2.7062631283471215E-002
 PAO| energy improvement:  -2.7863553833196164E-004
 PAO| step     18                   -7.796230132  0.169E-02  0.213E+00     0.037
 PAO|LS| adapt:  T F F
 PAO|LS| adapt: scan_steps:    0.0000000000000000        0.0000000000000000        0.0000000000000000     
 PAO|LS| adapt: energies:   -7.7962301323695380        0.0000000000000000        0.0000000000000000     
 PAO| ======================= Iteration:        19 =============================

     Lanczos converged:  T threshold:   0.100E-02
     Est. extremal eigenvalues:    0.276E+01   0.182E+00
     Est. condition number :    0.151E+02

 Order=           3
     NS sqrt iter    1 1.00000000   0.706E+00       0.001       64.512
     NS sqrt iter    2 1.00000000   0.329E+00       0.001      110.592
     NS sqrt iter    3 1.00000000   0.745E-01       0.001      110.592
     NS sqrt iter    4 1.00000000   0.177E-02       0.001      110.592
     NS sqrt iter    5 1.00000000   0.488E-07       0.001       70.272
     Symmetrizing Results
     Final NS sqrt iter    5 1.00000000   0.434E-09

     Est. extremal eigenvalues     -0.93664     1.68746  converged:  T
     TRS4 it   1 1.00000000   0.869E+00       0.000       16.128   0.100E-07
     TRS4 it   2 1.00000000   0.613E+00       0.000       32.256   0.100E-07
     TRS4 it   3 1.00000000   0.417E+00       0.000       32.256   0.100E-07
     TRS4 it   4 1.00000000   0.210E+00       0.000       32.256   0.100E-07
     TRS4 it   5 1.00000000   0.663E-01       0.000       32.256   0.100E-07
     TRS4 it   6 1.00000000   0.826E-02       0.000       32.256   0.100E-07
     TRS4 it   7 1.00000000   0.170E-03       0.000       32.256   0.100E-07
     TRS4 it   8 1.00000000   0.100E-06       0.000       32.256   0.100E-07
     TRS4 it   9 1.00000000   0.432E-13       0.000       32.256   0.100E-07
     Final TRS4 iteration    9 1.00000000   0.432E-13
     Chemical potential (mu):       0.01337
 
 PAO| energy:  -7.7963491407398013      penalty:   1.4840835312498309E-005
 PAO|LS| adapt:  T T F
 PAO|LS| adapt: scan_steps:    0.0000000000000000       0.21297917200450200        0.0000000000000000     
 PAO|LS| adapt: energies:   -7.7962301323695380       -7.7963491407398013        0.0000000000000000     
 PAO| ======================= Iteration:        20 =============================

     Lanczos converged:  T threshold:   0.100E-02
     Est. extremal eigenvalues:    0.276E+01   0.182E+00
     Est. condition number :    0.152E+02

 Order=           3
     NS sqrt iter    1 1.00000000   0.706E+00       0.001       64.512
     NS sqrt iter    2 1.00000000   0.329E+00       0.001      110.592
     NS sqrt iter    3 1.00000000   0.747E-01       0.001      110.592
     NS sqrt iter    4 1.00000000   0.177E-02       0.001      110.592
     NS sqrt iter    5 1.00000000   0.493E-07       0.001       70.400
     Symmetrizing Results
     Final NS sqrt iter    5 1.00000000   0.437E-09

     Est. extremal eigenvalues     -0.93664     1.68776  converged:  T
     TRS4 it   1 1.00000000   0.869E+00       0.000       16.128   0.100E-07
     TRS4 it   2 1.00000000   0.613E+00       0.000       32.256   0.100E-07
     TRS4 it   3 1.00000000   0.417E+00       0.000       32.256   0.100E-07
     TRS4 it   4 1.00000000   0.210E+00       0.000       32.256   0.100E-07
     TRS4 it   5 1.00000000   0.662E-01       0.000       32.256   0.100E-07
     TRS4 it   6 1.00000000   0.825E-02       0.000       32.256   0.100E-07
     TRS4 it   7 1.00000000   0.170E-03       0.000       32.256   0.100E-07
     TRS4 it   8 1.00000000   0.102E-06       0.000       32.256   0.100E-07
     TRS4 it   9 1.00000000   0.445E-13       0.000       32.256   0.100E-07
     Final TRS4 iteration    9 1.00000000   0.445E-13
     Chemical potential (mu):       0.01310
 
 PAO| energy:  -7.7963935622776086      penalty:   1.4563118952746722E-005
 PAO|LS| adapt:  T T F
 PAO|LS| adapt: scan_steps:    0.0000000000000000       0.42595834400900401        0.0000000000000000     
 PAO|LS| adapt: energies:   -7.7962301323695380       -7.7963935622776086        0.0000000000000000     
 PAO| ======================= Iteration:        21 =============================

     Lanczos converged:  T threshold:   0.100E-02
     Est. extremal eigenvalues:    0.276E+01   0.182E+00
     Est. condition number :    0.152E+02

 Order=           3
     NS sqrt iter    1 1.00000000   0.705E+00       0.001       64.512
     NS sqrt iter    2 1.00000000   0.330E+00       0.001      110.592
     NS sqrt iter    3 1.00000000   0.752E-01       0.001      110.592
     NS sqrt iter    4 1.00000000   0.180E-02       0.001      110.592
     NS sqrt iter    5 1.00000000   0.505E-07       0.001       70.912
     Symmetrizing Results
     Final NS sqrt iter    5 1.00000000   0.518E-09

     Est. extremal eigenvalues     -0.93663     1.68837  converged:  T
     TRS4 it   1 1.00000000   0.869E+00       0.000       16.128   0.100E-07
     TRS4 it   2 1.00000000   0.613E+00       0.000       32.256   0.100E-07
     TRS4 it   3 1.00000000   0.417E+00       0.000       32.256   0.100E-07
     TRS4 it   4 1.00000000   0.210E+00       0.000       32.256   0.100E-07
     TRS4 it   5 1.00000000   0.660E-01       0.000       32.256   0.100E-07
     TRS4 it   6 1.00000000   0.824E-02       0.000       32.256   0.100E-07
     TRS4 it   7 1.00000000   0.171E-03       0.000       32.256   0.100E-07
     TRS4 it   8 1.00000000   0.105E-06       0.000       32.256   0.100E-07
     TRS4 it   9 1.00000000   0.472E-13       0.000       32.256   0.100E-07
     Final TRS4 iteration    9 1.00000000   0.472E-13
     Chemical potential (mu):       0.01256
 
 PAO| energy:  -7.7962562030313620      penalty:   1.4044730151235217E-005
 PAO|LS| Need extra step
 PAO|LS| adapt:  T T T
 PAO|LS| adapt: scan_steps:    0.0000000000000000       0.42595834400900401       0.85191668801800802     
 PAO|LS| adapt: energies:   -7.7962301323695380       -7.7963935622776086       -7.7962562030313620     
 PAO|LS| adapt: suggested step_size:   0.44441814513280314     
 PAO|LS| adapt: predicted energy  -7.7963938447343564     
 PAO| ======================= Iteration:        22 =============================

     Lanczos converged:  T threshold:   0.100E-02
     Est. extremal eigenvalues:    0.276E+01   0.182E+00
     Est. condition number :    0.152E+02

 Order=           3
     NS sqrt iter    1 1.00000000   0.706E+00       0.001       64.512
     NS sqrt iter    2 1.00000000   0.329E+00       0.001      110.592
     NS sqrt iter    3 1.00000000   0.747E-01       0.001      110.592
     NS sqrt iter    4 1.00000000   0.178E-02       0.001      110.592
     NS sqrt iter    5 1.00000000   0.494E-07       0.001       70.400
     Symmetrizing Results
     Final NS sqrt iter    5 1.00000000   0.438E-09

     Est. extremal eigenvalues     -0.93664     1.68779  converged:  T
     TRS4 it   1 1.00000000   0.869E+00       0.000       16.128   0.100E-07
     TRS4 it   2 1.00000000   0.613E+00       0.000       32.256   0.100E-07
     TRS4 it   3 1.00000000   0.417E+00       0.000       32.256   0.100E-07
     TRS4 it   4 1.00000000   0.210E+00       0.000       32.256   0.100E-07
     TRS4 it   5 1.00000000   0.662E-01       0.000       32.256   0.100E-07
     TRS4 it   6 1.00000000   0.825E-02       0.000       32.256   0.100E-07
     TRS4 it   7 1.00000000   0.170E-03       0.000       32.256   0.100E-07
     TRS4 it   8 1.00000000   0.102E-06       0.000       32.256   0.100E-07
     TRS4 it   9 1.00000000   0.438E-13       0.000       32.256   0.100E-07
     Final TRS4 iteration    9 1.00000000   0.438E-13
     Chemical potential (mu):       0.01308
 
 PAO| energy:  -7.7963938800848291      penalty:   1.4539632837617437E-005
 PAO|CG| trace_G_new    2.2588761385232916E-004
 PAO|CG| trace_G_prev    7.3238601198511496E-004
 PAO|CG| trace_G_mix    3.1130873610709561E-006
 PAO|CG| trace_D    9.9629788855609604E-004
 PAO|CG| trace_D_Gnew  -1.9084231427428425E-006
 PAO|CG| beta:   0.30417638082332171     
 PAO| norm of gradient:   1.5029558005887237E-002
 PAO| energy improvement:  -1.6374771529115151E-004
 PAO| step     22                   -7.796393880  0.939E-03  0.444E+00     0.048
 PAO|LS| adapt:  T F F
 PAO|LS| adapt: scan_steps:    0.0000000000000000        0.0000000000000000        0.0000000000000000     
 PAO|LS| adapt: energies:   -7.7963938800848291        0.0000000000000000        0.0000000000000000     
 PAO| ======================= Iteration:        23 =============================

     Lanczos converged:  T threshold:   0.100E-02
     Est. extremal eigenvalues:    0.276E+01   0.182E+00
     Est. condition number :    0.152E+02

 Order=           3
     NS sqrt iter    1 1.00000000   0.705E+00       0.001       64.512
     NS sqrt iter    2 1.00000000   0.329E+00       0.001      110.592
     NS sqrt iter    3 1.00000000   0.748E-01       0.001      110.592
     NS sqrt iter    4 1.00000000   0.178E-02       0.001      110.592
     NS sqrt iter    5 1.00000000   0.495E-07       0.001       70.656
     Symmetrizing Results
     Final NS sqrt iter    5 1.00000000   0.497E-09

     Est. extremal eigenvalues     -0.93664     1.68759  converged:  T
     TRS4 it   1 1.00000000   0.869E+00       0.000       16.128   0.100E-07
     TRS4 it   2 1.00000000   0.613E+00       0.000       32.256   0.100E-07
     TRS4 it   3 1.00000000   0.417E+00       0.000       32.256   0.100E-07
     TRS4 it   4 1.00000000   0.210E+00       0.000       32.256   0.100E-07
     TRS4 it   5 1.00000000   0.663E-01       0.000       32.256   0.100E-07
     TRS4 it   6 1.00000000   0.829E-02       0.000       32.256   0.100E-07
     TRS4 it   7 1.00000000   0.172E-03       0.000       32.256   0.100E-07
     TRS4 it   8 1.00000000   0.104E-06       0.000       32.256   0.100E-07
     TRS4 it   9 1.00000000   0.469E-13       0.000       32.256   0.100E-07
     Final TRS4 iteration    9 1.00000000   0.469E-13
     Chemical potential (mu):       0.01279
 
 PAO| energy:  -7.7964440776784452      penalty:   1.3855340733699355E-005
 PAO|LS| adapt:  T T F
 PAO|LS| adapt: scan_steps:    0.0000000000000000       0.44441814513280314        0.0000000000000000     
 PAO|LS| adapt: energies:   -7.7963938800848291       -7.7964440776784452        0.0000000000000000     
 PAO| ======================= Iteration:        24 =============================

     Lanczos converged:  T threshold:   0.100E-02
     Est. extremal eigenvalues:    0.276E+01   0.182E+00
     Est. condition number :    0.152E+02

 Order=           3
     NS sqrt iter    1 1.00000000   0.705E+00       0.001       64.512
     NS sqrt iter    2 1.00000000   0.330E+00       0.001      110.592
     NS sqrt iter    3 1.00000000   0.748E-01       0.001      110.592
     NS sqrt iter    4 1.00000000   0.178E-02       0.001      110.592
     NS sqrt iter    5 1.00000000   0.495E-07       0.001       70.784
     Symmetrizing Results
     Final NS sqrt iter    5 1.00000000   0.498E-09

     Est. extremal eigenvalues     -0.93664     1.68740  converged:  T
     TRS4 it   1 1.00000000   0.869E+00       0.000       16.128   0.100E-07
     TRS4 it   2 1.00000000   0.613E+00       0.000       32.256   0.100E-07
     TRS4 it   3 1.00000000   0.417E+00       0.000       32.256   0.100E-07
     TRS4 it   4 1.00000000   0.210E+00       0.000       32.256   0.100E-07
     TRS4 it   5 1.00000000   0.663E-01       0.000       32.256   0.100E-07
     TRS4 it   6 1.00000000   0.832E-02       0.000       32.256   0.100E-07
     TRS4 it   7 1.00000000   0.174E-03       0.000       32.256   0.100E-07
     TRS4 it   8 1.00000000   0.106E-06       0.000       32.256   0.100E-07
     TRS4 it   9 1.00000000   0.493E-13       0.000       32.256   0.100E-07
     Final TRS4 iteration    9 1.00000000   0.493E-13
     Chemical potential (mu):       0.01250
 
 PAO| energy:  -7.7963927144736953      penalty:   1.3199668687005548E-005
 PAO|LS| adapt:  T T T
 PAO|LS| adapt: scan_steps:    0.0000000000000000       0.44441814513280314       0.88883629026560629     
 PAO|LS| adapt: energies:   -7.7963938800848291       -7.7964440776784452       -7.7963927144736953     
 PAO|LS| adapt: suggested step_size:   0.44186785630886577     
 PAO|LS| adapt: predicted energy  -7.7964440793506578     
 PAO| ======================= Iteration:        25 =============================

     Lanczos converged:  T threshold:   0.100E-02
     Est. extremal eigenvalues:    0.276E+01   0.182E+00
     Est. condition number :    0.152E+02

 Order=           3
     NS sqrt iter    1 1.00000000   0.705E+00       0.001       64.512
     NS sqrt iter    2 1.00000000   0.329E+00       0.001      110.592
     NS sqrt iter    3 1.00000000   0.748E-01       0.001      110.592
     NS sqrt iter    4 1.00000000   0.178E-02       0.001      110.592
     NS sqrt iter    5 1.00000000   0.495E-07       0.001       70.656
     Symmetrizing Results
     Final NS sqrt iter    5 1.00000000   0.497E-09

     Est. extremal eigenvalues     -0.93664     1.68760  converged:  T
     TRS4 it   1 1.00000000   0.869E+00       0.000       16.128   0.100E-07
     TRS4 it   2 1.00000000   0.613E+00       0.000       32.256   0.100E-07
     TRS4 it   3 1.00000000   0.417E+00       0.000       32.256   0.100E-07
     TRS4 it   4 1.00000000   0.210E+00       0.000       32.256   0.100E-07
     TRS4 it   5 1.00000000   0.663E-01       0.000       32.256   0.100E-07
     TRS4 it   6 1.00000000   0.829E-02       0.000       32.256   0.100E-07
     TRS4 it   7 1.00000000   0.172E-03       0.000       32.256   0.100E-07
     TRS4 it   8 1.00000000   0.104E-06       0.000       32.256   0.100E-07
     TRS4 it   9 1.00000000   0.462E-13       0.000       32.256   0.100E-07
     Final TRS4 iteration    9 1.00000000   0.462E-13
     Chemical potential (mu):       0.01279
 
 PAO| energy:  -7.7964440784125779      penalty:   1.3859185301676525E-005
 PAO|CG| trace_G_new    8.1922228074674441E-005
 PAO|CG| trace_G_prev    2.2588761385232916E-004
 PAO|CG| trace_G_mix    7.4201454975197721E-007
 PAO|CG| trace_D    3.1922934753327790E-004
 PAO|CG| trace_D_Gnew  -3.6781496643642226E-007
 PAO|CG| beta:   0.35938320008104951     
 PAO| norm of gradient:   9.0510898832502178E-003
 PAO| energy improvement:  -5.0198327748773863E-005
 PAO| step     25                   -7.796444078  0.566E-03  0.442E+00     0.037
 PAO|LS| adapt:  T F F
 PAO|LS| adapt: scan_steps:    0.0000000000000000        0.0000000000000000        0.0000000000000000     
 PAO|LS| adapt: energies:   -7.7964440784125779        0.0000000000000000        0.0000000000000000     
 PAO| ======================= Iteration:        26 =============================

     Lanczos converged:  T threshold:   0.100E-02
     Est. extremal eigenvalues:    0.276E+01   0.182E+00
     Est. condition number :    0.152E+02

 Order=           3
     NS sqrt iter    1 1.00000000   0.705E+00       0.001       64.512
     NS sqrt iter    2 1.00000000   0.329E+00       0.001      110.592
     NS sqrt iter    3 1.00000000   0.747E-01       0.001      110.592
     NS sqrt iter    4 1.00000000   0.177E-02       0.001      110.592
     NS sqrt iter    5 1.00000000   0.491E-07       0.001       70.272
     Symmetrizing Results
     Final NS sqrt iter    5 1.00000000   0.446E-09

     Est. extremal eigenvalues     -0.93664     1.68725  converged:  T
     TRS4 it   1 1.00000000   0.869E+00       0.000       16.128   0.100E-07
     TRS4 it   2 1.00000000   0.613E+00       0.000       32.256   0.100E-07
     TRS4 it   3 1.00000000   0.417E+00       0.000       32.256   0.100E-07
     TRS4 it   4 1.00000000   0.210E+00       0.000       32.256   0.100E-07
     TRS4 it   5 1.00000000   0.662E-01       0.000       32.256   0.100E-07
     TRS4 it   6 1.00000000   0.826E-02       0.000       32.256   0.100E-07
     TRS4 it   7 1.00000000   0.171E-03       0.000       32.256   0.100E-07
     TRS4 it   8 1.00000000   0.102E-06       0.000       32.256   0.100E-07
     TRS4 it   9 1.00000000   0.454E-13       0.000       32.256   0.100E-07
     Final TRS4 iteration    9 1.00000000   0.454E-13
     Chemical potential (mu):       0.01294
 
 PAO| energy:  -7.7964485409893651      penalty:   1.3132518748160908E-005
 PAO|LS| adapt:  T T F
 PAO|LS| adapt: scan_steps:    0.0000000000000000       0.44186785630886577        0.0000000000000000     
 PAO|LS| adapt: energies:   -7.7964440784125779       -7.7964485409893651        0.0000000000000000     
 PAO| ======================= Iteration:        27 =============================

     Lanczos converged:  T threshold:   0.100E-02
     Est. extremal eigenvalues:    0.276E+01   0.182E+00
     Est. condition number :    0.151E+02

 Order=           3
     NS sqrt iter    1 1.00000000   0.705E+00       0.001       64.512
     NS sqrt iter    2 1.00000000   0.329E+00       0.001      110.592
     NS sqrt iter    3 1.00000000   0.746E-01       0.001      110.592
     NS sqrt iter    4 1.00000000   0.177E-02       0.001      110.592
     NS sqrt iter    5 1.00000000   0.488E-07       0.001       70.144
     Symmetrizing Results
     Final NS sqrt iter    5 1.00000000   0.445E-09

     Est. extremal eigenvalues     -0.93664     1.68690  converged:  T
     TRS4 it   1 1.00000000   0.869E+00       0.000       16.128   0.100E-07
     TRS4 it   2 1.00000000   0.613E+00       0.000       32.256   0.100E-07
     TRS4 it   3 1.00000000   0.417E+00       0.000       32.256   0.100E-07
     TRS4 it   4 1.00000000   0.210E+00       0.000       32.256   0.100E-07
     TRS4 it   5 1.00000000   0.661E-01       0.000       32.256   0.100E-07
     TRS4 it   6 1.00000000   0.824E-02       0.000       32.256   0.100E-07
     TRS4 it   7 1.00000000   0.170E-03       0.000       32.256   0.100E-07
     TRS4 it   8 1.00000000   0.101E-06       0.000       32.256   0.100E-07
     TRS4 it   9 1.00000000   0.439E-13       0.000       32.256   0.100E-07
     Final TRS4 iteration    9 1.00000000   0.439E-13
     Chemical potential (mu):       0.01308
 
 PAO| energy:  -7.7963893081380400      penalty:   1.2429878726337790E-005
 PAO|LS| adapt:  T T T
 PAO|LS| adapt: scan_steps:    0.0000000000000000       0.44186785630886577       0.88373571261773154     
 PAO|LS| adapt: energies:   -7.7964440784125779       -7.7964485409893651       -7.7963893081380400     
 PAO|LS| adapt: suggested step_size:   0.25189171110709369     
 PAO|LS| adapt: predicted energy  -7.7964544279561814     
 PAO| ======================= Iteration:        28 =============================

     Lanczos converged:  T threshold:   0.100E-02
     Est. extremal eigenvalues:    0.276E+01   0.182E+00
     Est. condition number :    0.152E+02

 Order=           3
     NS sqrt iter    1 1.00000000   0.705E+00       0.001       64.512
     NS sqrt iter    2 1.00000000   0.329E+00       0.001      110.592
     NS sqrt iter    3 1.00000000   0.747E-01       0.001      110.592
     NS sqrt iter    4 1.00000000   0.177E-02       0.001      110.592
     NS sqrt iter    5 1.00000000   0.493E-07       0.001       70.272
     Symmetrizing Results
     Final NS sqrt iter    5 1.00000000   0.447E-09

     Est. extremal eigenvalues     -0.93664     1.68740  converged:  T
     TRS4 it   1 1.00000000   0.869E+00       0.000       16.128   0.100E-07
     TRS4 it   2 1.00000000   0.613E+00       0.000       32.256   0.100E-07
     TRS4 it   3 1.00000000   0.417E+00       0.000       32.256   0.100E-07
     TRS4 it   4 1.00000000   0.210E+00       0.000       32.256   0.100E-07
     TRS4 it   5 1.00000000   0.662E-01       0.000       32.256   0.100E-07
     TRS4 it   6 1.00000000   0.827E-02       0.000       32.256   0.100E-07
     TRS4 it   7 1.00000000   0.171E-03       0.000       32.256   0.100E-07
     TRS4 it   8 1.00000000   0.103E-06       0.000       32.256   0.100E-07
     TRS4 it   9 1.00000000   0.456E-13       0.000       32.256   0.100E-07
     Final TRS4 iteration    9 1.00000000   0.456E-13
     Chemical potential (mu):       0.01287
 
 PAO| energy:  -7.7964544179378183      penalty:   1.3441976877557472E-005
 PAO|CG| trace_G_new    3.3197806245409716E-005
 PAO|CG| trace_G_prev    8.1922228074674441E-005
 PAO|CG| trace_G_mix    6.1186036453406679E-008
 PAO|CG| trace_D    1.2341707754494138E-004
 PAO|CG| trace_D_Gnew  -3.0318208910969040E-008
 PAO|CG| beta:   0.40448875705323029     
 PAO| norm of gradient:   5.7617537473767235E-003
 PAO| energy improvement:  -1.0339525240432579E-005
 PAO| step     28                   -7.796454418  0.360E-03  0.252E+00     0.037
 PAO|LS| adapt:  T F F
 PAO|LS| adapt: scan_steps:    0.0000000000000000        0.0000000000000000        0.0000000000000000     
 PAO|LS| adapt: energies:   -7.7964544179378183        0.0000000000000000        0.0000000000000000     
 PAO| ======================= Iteration:        29 =============================

     Lanczos converged:  T threshold:   0.100E-02
     Est. extremal eigenvalues:    0.276E+01   0.182E+00
     Est. condition number :    0.152E+02

 Order=           3
     NS sqrt iter    1 1.00000000   0.705E+00       0.001       64.512
     NS sqrt iter    2 1.00000000   0.329E+00       0.001      110.592
     NS sqrt iter    3 1.00000000   0.746E-01       0.001      110.592
     NS sqrt iter    4 1.00000000   0.177E-02       0.001      110.592
     NS sqrt iter    5 1.00000000   0.492E-07       0.001       70.272
     Symmetrizing Results
     Final NS sqrt iter    5 1.00000000   0.447E-09

     Est. extremal eigenvalues     -0.93664     1.68732  converged:  T
     TRS4 it   1 1.00000000   0.869E+00       0.000       16.128   0.100E-07
     TRS4 it   2 1.00000000   0.613E+00       0.000       32.256   0.100E-07
     TRS4 it   3 1.00000000   0.417E+00       0.000       32.256   0.100E-07
     TRS4 it   4 1.00000000   0.210E+00       0.000       32.256   0.100E-07
     TRS4 it   5 1.00000000   0.661E-01       0.000       32.256   0.100E-07
     TRS4 it   6 1.00000000   0.825E-02       0.000       32.256   0.100E-07
     TRS4 it   7 1.00000000   0.170E-03       0.000       32.256   0.100E-07
     TRS4 it   8 1.00000000   0.102E-06       0.000       32.256   0.100E-07
     TRS4 it   9 1.00000000   0.444E-13       0.000       32.256   0.100E-07
     Final TRS4 iteration    9 1.00000000   0.444E-13
     Chemical potential (mu):       0.01302
 
 PAO| energy:  -7.7964617822994322      penalty:   1.3002893935726322E-005
 PAO|LS| adapt:  T T F
 PAO|LS| adapt: scan_steps:    0.0000000000000000       0.25189171110709369        0.0000000000000000     
 PAO|LS| adapt: energies:   -7.7964544179378183       -7.7964617822994322        0.0000000000000000     
 PAO| ======================= Iteration:        30 =============================

     Lanczos converged:  T threshold:   0.100E-02
     Est. extremal eigenvalues:    0.276E+01   0.182E+00
     Est. condition number :    0.152E+02

 Order=           3
     NS sqrt iter    1 1.00000000   0.705E+00       0.001       64.512
     NS sqrt iter    2 1.00000000   0.329E+00       0.001      110.592
     NS sqrt iter    3 1.00000000   0.746E-01       0.001      110.592
     NS sqrt iter    4 1.00000000   0.177E-02       0.001      110.592
     NS sqrt iter    5 1.00000000   0.491E-07       0.001       70.272
     Symmetrizing Results
     Final NS sqrt iter    5 1.00000000   0.446E-09

     Est. extremal eigenvalues     -0.93664     1.68724  converged:  T
     TRS4 it   1 1.00000000   0.869E+00       0.000       16.128   0.100E-07
     TRS4 it   2 1.00000000   0.613E+00       0.000       32.256   0.100E-07
     TRS4 it   3 1.00000000   0.417E+00       0.000       32.256   0.100E-07
     TRS4 it   4 1.00000000   0.210E+00       0.000       32.256   0.100E-07
     TRS4 it   5 1.00000000   0.660E-01       0.000       32.256   0.100E-07
     TRS4 it   6 1.00000000   0.823E-02       0.000       32.256   0.100E-07
     TRS4 it   7 1.00000000   0.169E-03       0.000       32.256   0.100E-07
     TRS4 it   8 1.00000000   0.100E-06       0.000       32.256   0.100E-07
     TRS4 it   9 1.00000000   0.432E-13       0.000       32.256   0.100E-07
     Final TRS4 iteration    9 1.00000000   0.432E-13
     Chemical potential (mu):       0.01317
 
 PAO| energy:  -7.7964671450703449      penalty:   1.2571984587741212E-005
 PAO|LS| adapt:  T T F
 PAO|LS| adapt: scan_steps:    0.0000000000000000       0.50378342221418737        0.0000000000000000     
 PAO|LS| adapt: energies:   -7.7964544179378183       -7.7964671450703449        0.0000000000000000     
 PAO| ======================= Iteration:        31 =============================

     Lanczos converged:  T threshold:   0.100E-02
     Est. extremal eigenvalues:    0.276E+01   0.182E+00
     Est. condition number :    0.152E+02

 Order=           3
     NS sqrt iter    1 1.00000000   0.704E+00       0.001       64.512
     NS sqrt iter    2 1.00000000   0.329E+00       0.001      110.592
     NS sqrt iter    3 1.00000000   0.744E-01       0.001      110.592
     NS sqrt iter    4 1.00000000   0.176E-02       0.001      110.592
     NS sqrt iter    5 1.00000000   0.490E-07       0.001       70.272
     Symmetrizing Results
     Final NS sqrt iter    5 1.00000000   0.446E-09

     Est. extremal eigenvalues     -0.93665     1.68708  converged:  T
     TRS4 it   1 1.00000000   0.869E+00       0.000       16.128   0.100E-07
     TRS4 it   2 1.00000000   0.613E+00       0.000       32.256   0.100E-07
     TRS4 it   3 1.00000000   0.417E+00       0.000       32.256   0.100E-07
     TRS4 it   4 1.00000000   0.209E+00       0.000       32.256   0.100E-07
     TRS4 it   5 1.00000000   0.658E-01       0.000       32.256   0.100E-07
     TRS4 it   6 1.00000000   0.818E-02       0.000       32.256   0.100E-07
     TRS4 it   7 1.00000000   0.167E-03       0.000       32.256   0.100E-07
     TRS4 it   8 1.00000000   0.974E-07       0.000       32.256   0.100E-07
     TRS4 it   9 1.00000000   0.410E-13       0.000       32.256   0.100E-07
     Final TRS4 iteration    9 1.00000000   0.410E-13
     Chemical potential (mu):       0.01347
 
 PAO| energy:  -7.7964718680383429      penalty:   1.1734510174618180E-005
 PAO|LS| Need extra step
 PAO|LS| adapt:  T T F
 PAO|LS| adapt: scan_steps:    0.0000000000000000        1.0075668444283747        0.0000000000000000     
 PAO|LS| adapt: energies:   -7.7964544179378183       -7.7964718680383429        0.0000000000000000     
 PAO| ======================= Iteration:        32 =============================

     Lanczos converged:  T threshold:   0.100E-02
     Est. extremal eigenvalues:    0.276E+01   0.182E+00
     Est. condition number :    0.151E+02

 Order=           3
     NS sqrt iter    1 1.00000000   0.704E+00       0.001       64.512
[...]
     Final NS sqrt iter    5 1.00000000   0.386E-09

     Est. extremal eigenvalues     -0.93633     1.63162  converged:  T
     TRS4 it   1 1.00000000   0.878E+00       0.000       16.128   0.100E-07
     TRS4 it   2 1.00000000   0.632E+00       0.000       32.256   0.100E-07
     TRS4 it   3 1.00000000   0.455E+00       0.000       32.256   0.100E-07
     TRS4 it   4 1.00000000   0.277E+00       0.000       32.256   0.100E-07
     TRS4 it   5 1.00000000   0.137E+00       0.000       32.256   0.100E-07
     TRS4 it   6 1.00000000   0.425E-01       0.000       32.256   0.100E-07
     TRS4 it   7 1.00000000   0.572E-02       0.000       32.256   0.100E-07
     TRS4 it   8 1.00000000   0.138E-03       0.000       32.256   0.100E-07
     TRS4 it   9 1.00000000   0.857E-07       0.000       32.256   0.100E-07
     TRS4 it  10 1.00000000   0.343E-13       0.000       32.256   0.100E-07
     Final TRS4 iteration   10 1.00000000   0.343E-13
     Chemical potential (mu):      -0.07444
 
 PAO| energy:  -7.7957529311594245      penalty:   3.5419485087399354E-008
 PAO|CG| warming up with steepest descent
 PAO|CG| beta:    0.0000000000000000     
 PAO| norm of gradient:   1.2996102136378978E-004
 PAO| energy improvement:  -5.5670694720788561E-009
 PAO| step    410                   -7.795752931  0.812E-05  0.260E+00     0.053
 PAO| converged after          410  steps :-)
 PAO| Recalculating energy after mixing.

     Lanczos converged:  T threshold:   0.100E-02
     Est. extremal eigenvalues:    0.251E+01   0.190E+00
     Est. condition number :    0.132E+02

 Order=           3
     NS sqrt iter    1 1.00000000   0.637E+00       0.001       64.512
     NS sqrt iter    2 1.00000000   0.277E+00       0.001      110.592
     NS sqrt iter    3 1.00000000   0.493E-01       0.001      110.592
     NS sqrt iter    4 1.00000000   0.793E-03       0.001      110.592
     NS sqrt iter    5 1.00000000   0.656E-08       0.001       38.272
     Symmetrizing Results
     Final NS sqrt iter    5 1.00000000   0.386E-09

     Est. extremal eigenvalues     -0.93633     1.63162  converged:  T
     TRS4 it   1 1.00000000   0.878E+00       0.000       16.128   0.100E-07
     TRS4 it   2 1.00000000   0.632E+00       0.000       32.256   0.100E-07
     TRS4 it   3 1.00000000   0.455E+00       0.000       32.256   0.100E-07
     TRS4 it   4 1.00000000   0.277E+00       0.000       32.256   0.100E-07
     TRS4 it   5 1.00000000   0.137E+00       0.000       32.256   0.100E-07
     TRS4 it   6 1.00000000   0.425E-01       0.000       32.256   0.100E-07
     TRS4 it   7 1.00000000   0.572E-02       0.000       32.256   0.100E-07
     TRS4 it   8 1.00000000   0.138E-03       0.000       32.256   0.100E-07
     TRS4 it   9 1.00000000   0.857E-07       0.000       32.256   0.100E-07
     TRS4 it  10 1.00000000   0.342E-13       0.000       32.256   0.100E-07
     Final TRS4 iteration   10 1.00000000   0.342E-13
     Chemical potential (mu):      -0.07444
 
 PAO| energy:  -7.7957529297676444      penalty:   3.5793081742190780E-008
 PAO| Writing restart file.
     Est. extremal eigenvalues     -0.93633     1.63162  converged:  T
     TRS4 it   1 1.00000000   0.878E+00       0.000       16.128   0.100E-07
     TRS4 it   2 1.00000000   0.632E+00       0.000       32.256   0.100E-07
     TRS4 it   3 1.00000000   0.455E+00       0.000       32.256   0.100E-07
     TRS4 it   4 1.00000000   0.277E+00       0.000       32.256   0.100E-07
     TRS4 it   5 1.00000000   0.137E+00       0.000       32.256   0.100E-07
     TRS4 it   6 1.00000000   0.425E-01       0.000       32.256   0.100E-07
     TRS4 it   7 1.00000000   0.572E-02       0.000       32.256   0.100E-07
     TRS4 it   8 1.00000000   0.138E-03       0.000       32.256   0.100E-07
     TRS4 it   9 1.00000000   0.857E-07       0.000       32.256   0.100E-07
     TRS4 it  10 1.00000000   0.342E-13       0.000       32.256   0.100E-07
     Final TRS4 iteration   10 1.00000000   0.342E-13
     Chemical potential (mu):      -0.07444

 SCF     1       -34.450107209       -34.450107209    1.748823

*********************************************************
 Using MIXING_FRACTION=0.450 to mix KS matrix:  iscf=  2
 KS_nw=0.450*KS + 0.550*KS_old
*********************************************************
     Est. extremal eigenvalues     -0.93634     1.63162  converged:  T
     TRS4 it   1 1.00000000   0.878E+00       0.000       16.128   0.100E-07
     TRS4 it   2 1.00000000   0.632E+00       0.000       32.256   0.100E-07
     TRS4 it   3 1.00000000   0.455E+00       0.000       32.256   0.100E-07
     TRS4 it   4 1.00000000   0.277E+00       0.000       32.256   0.100E-07
     TRS4 it   5 1.00000000   0.137E+00       0.000       32.256   0.100E-07
     TRS4 it   6 1.00000000   0.425E-01       0.000       32.256   0.100E-07
     TRS4 it   7 1.00000000   0.572E-02       0.000       32.256   0.100E-07
     TRS4 it   8 1.00000000   0.138E-03       0.000       32.256   0.100E-07
     TRS4 it   9 1.00000000   0.858E-07       0.000       32.256   0.100E-07
     TRS4 it  10 1.00000000   0.334E-13       0.000       32.256   0.100E-07
     Final TRS4 iteration   10 1.00000000   0.334E-13
     Chemical potential (mu):      -0.07444

 SCF     2       -34.450107209        -0.000000000    1.702502


 SCF run converged in     2 steps.

 PAO| Storing density matrix for ASPC guess in slot:           1

 ENERGY| Total FORCE_EVAL ( QS ) energy [a.u.]:              -34.450107208915384

 -------------------------------------------------------------------------------
 -                                                                             -
 -                                DBCSR STATISTICS                             -
 -                                                                             -
 -------------------------------------------------------------------------------
 COUNTER                                    TOTAL       BLAS       SMM       ACC
 flops     5 x     5 x     4                20000       0.0%    100.0%      0.0%
 flops    13 x     5 x     4                20800       0.0%    100.0%      0.0%
 flops     5 x    13 x     4                20800       0.0%    100.0%      0.0%
 flops    13 x    13 x     4                40560       0.0%    100.0%      0.0%
 flops     4 x     4 x     5              3221760       0.0%    100.0%      0.0%
 flops     5 x     4 x     5              3942400       0.0%    100.0%      0.0%
 flops     4 x     4 x    13              4188288       0.0%    100.0%      0.0%
 flops    13 x     4 x     5              5125120       0.0%    100.0%      0.0%
 flops     5 x     4 x    13              5125120       0.0%    100.0%      0.0%
 flops     5 x     4 x     4              6353120       0.0%    100.0%      0.0%
 flops    13 x     4 x    13              6662656       0.0%    100.0%      0.0%
 flops    13 x     4 x     4              8462688       0.0%    100.0%      0.0%
 flops     4 x     4 x     4            414884736       0.0%    100.0%      0.0%
 flops inhomo. stacks                           0       0.0%      0.0%      0.0%
 flops total                       458.068048E+06       0.0%    100.0%      0.0%
 flops max/rank                    458.068048E+06       0.0%    100.0%      0.0%
 matmuls inhomo. stacks                         0       0.0%      0.0%      0.0%
 matmuls total                            3376103       0.0%    100.0%      0.0%
 number of processed stacks                 26928       0.0%    100.0%      0.0%
 average stack size                                     0.0     125.4       0.0
 marketing flops                   744.674688E+06
 -------------------------------------------------------------------------------
 # multiplications                          22475
 max memory usage/rank             506.523648E+06
 # max total images/rank                        1
 # max 3D layers                                1
 # MPI messages exchanged                       0
 -------------------------------------------------------------------------------

 -------------------------------------------------------------------------------
 -                                                                             -
 -                                DBM STATISTICS                               -
 -                                                                             -
 -------------------------------------------------------------------------------
    M  x    N  x    K                                          COUNT     PERCENT
 -------------------------------------------------------------------------------

 -------------------------------------------------------------------------------
 -                                                                             -
 -                                GRID STATISTICS                              -
 -                                                                             -
 -------------------------------------------------------------------------------
 LP    KERNEL             BACKEND                              COUNT     PERCENT
 2     collocate ortho    REF                                  38050      30.76%
 2     integrate ortho    REF                                  38050      30.76%
 3     collocate ortho    REF                                  19600      15.85%
 3     integrate ortho    REF                                  19600      15.85%
 4     collocate ortho    REF                                   4190       3.39%
 4     integrate ortho    REF                                   4190       3.39%
 0     collocate general  REF                                      6       0.00%
 -------------------------------------------------------------------------------

 MEMORY| Estimated peak process memory [MiB]                                 484

 -------------------------------------------------------------------------------
 -                                                                             -
 -                           R E F E R E N C E S                               -
 -                                                                             -
 -------------------------------------------------------------------------------
 
 CP2K version 2023.1 (Development Version), the CP2K developers group (2023).
 CP2K is freely available from https://www.cp2k.org/ .

 Kuehne,Thomas D.; Iannuzzi,Marcella; Del Ben,Mauro;
 Rybkin,Vladimir V.; Seewald,Patrick; Stein,Frederick; Laino,Teodoro;
 Khaliullin,Rustam Z.; Schuett,Ole; Schiffmann,Florian; Golze,Dorothea;
 Wilhelm,Jan; Chulkov,Sergey; Bani-Hashemian,Mohammad Hossein;
 Weber,Valery; Borstnik,Urban; Taillefumier,Mathieu;
 Jakobovits,Alice Shoshana; Lazzaro,Alfio; Pabst,Hans; Mueller,Tiziano;
 Schade,Robert; Guidon,Manuel; Andermatt,Samuel; Holmberg,Nico;
 Schenter,Gregory K.; Hehn,Anna; Bussy,Augustin; Belleflamme,Fabian;
 Tabacchi,Gloria; Gloess,Andreas; Lass,Michael; Bethune,Iain;
 Mundy,Christopher J.; Plessl,Christian; Watkins,Matt;
 VandeVondele,Joost; Krack,Matthias; Hutter,Juerg. 
 The Journal of Chemical Physics, 152 (19), (2020). 
 CP2K: An electronic structure and molecular dynamics software package -
 Quickstep: Efficient and accurate electronic structure calculations.
 https://doi.org/10.1063/5.0007045

 Schuett, O; VandeVondele, J. 
 Journal of Chemical Theory and Computation, 14, (2018). 
 Machine Learning Adaptive Basis Sets for Efficient Large Scale
 Density Functional Theory Simulation.
 https://doi.org/10.1021/acs.jctc.8b00378

 Schuett, Ole; Messmer, Peter; Hutter, Juerg; VandeVondele, Joost. 
 Electronic Structure Calculations on Graphics Processing Units, John
 Wiley & Sons, Ltd, 173-190 (2016). 
 GPU-Accelerated Sparse Matrix-Matrix Multiplication for
 Linear Scaling Density Functional Theory.
 https://doi.org/10.1002/9781118670712.ch8

 Heinecke, A; Henry, G; Hutchinson, M; Pabst, H. 
 Proceedings of Intl. Supercomputing Conference, 981-991 (2016). 
 LIBXSMM: Accelerating Small Matrix Multiplications
 by Runtime Code Generation.
 https://doi.org/10.1109/SC.2016.83

 Borstnik, U; VandeVondele, J; Weber, V; Hutter, J. 
 PARALLEL COMPUTING, 40 (5-6), 47-58 (2014). 
 Sparse matrix multiplication: The distributed block-compressed sparse
 row library.
 https://doi.org/10.1016/j.parco.2014.03.012

 Hutter, J; Iannuzzi, M; Schiffmann, F; VandeVondele, J. 
 WIREs Comput Mol Sci., 4 (1), 15-25 (2014). 
 CP2K: atomistic simulations of condensed matter systems.
 https://doi.org/10.1002/wcms.1159

 VandeVondele, J; Borstnik, U; Hutter, J. 
 JOURNAL OF CHEMICAL THEORY AND COMPUTATION, 8 (10), 3565-3573 (2012). 
 Linear Scaling Self-Consistent Field Calculations with Millions of Atoms
 in the Condensed Phase.
 https://doi.org/10.1021/ct200897x

 VandeVondele, J; Hutter, J. 
 JOURNAL OF CHEMICAL PHYSICS, 127 (11), 114105 (2007). 
 Gaussian basis sets for accurate calculations on molecular systems in
 gas and condensed phases.
 https://doi.org/10.1063/1.2770708

 Krack, M. 
 THEORETICAL CHEMISTRY ACCOUNTS, 114 (1-3), 145-152 (2005). 
 Pseudopotentials for H to Kr optimized for gradient-corrected
 exchange-correlation functionals.
 https://doi.org/10.1007/s00214-005-0655-y

 VandeVondele, J; Krack, M; Mohamed, F; Parrinello, M; Chassaing, T;
 Hutter, J. COMPUTER PHYSICS COMMUNICATIONS, 167 (2), 103-128 (2005). 
 QUICKSTEP: Fast and accurate density functional calculations using a
 mixed Gaussian and plane waves approach.
 https://doi.org/10.1016/j.cpc.2004.12.014

 Frigo, M; Johnson, SG. 
 PROCEEDINGS OF THE IEEE, 93 (2), 216-231 (2005). 
 The design and implementation of FFTW3.
 https://doi.org/10.1109/JPROC.2004.840301

 Niklasson, AMN; Tymczak, CJ; Challacombe, M. 
 JOURNAL OF CHEMICAL PHYSICS, 118 (19), 8611-8620 (2003). 
 Trace resetting density matrix purification in O(N)
 self-consistent-field theory.
 https://doi.org/10.1063/1.1559913

 Hartwigsen, C; Goedecker, S; Hutter, J. 
 PHYSICAL REVIEW B, 58 (7), 3641-3662 (1998). 
 Relativistic separable dual-space Gaussian pseudopotentials from H to Rn.
 https://doi.org/10.1103/PhysRevB.58.3641

 Lippert, G; Hutter, J; Parrinello, M. 
 MOLECULAR PHYSICS, 92 (3), 477-487 (1997). 
 A hybrid Gaussian and plane wave density functional scheme.
 https://doi.org/10.1080/002689797170220

 Perdew, JP; Burke, K; Ernzerhof, M. 
 PHYSICAL REVIEW LETTERS, 77 (18), 3865-3868 (1996). 
 Generalized gradient approximation made simple.
 https://doi.org/10.1103/PhysRevLett.77.3865

 Goedecker, S; Teter, M; Hutter, J. 
 PHYSICAL REVIEW B, 54 (3), 1703-1710 (1996). 
 Separable dual-space Gaussian pseudopotentials.
 https://doi.org/10.1103/PhysRevB.54.1703


 -------------------------------------------------------------------------------
 -                                                                             -
 -                                T I M I N G                                  -
 -                                                                             -
 -------------------------------------------------------------------------------
 SUBROUTINE                       CALLS  ASD         SELF TIME        TOTAL TIME
                                MAXIMUM       AVERAGE  MAXIMUM  AVERAGE  MAXIMUM
 CP2K                                 1  1.0    0.011    0.011   22.734   22.734
 qs_energies                          1  2.0    0.000    0.000   22.370   22.370
 ls_scf                               1  3.0    0.000    0.000   22.248   22.248
 ls_scf_main                          4  4.0    0.001    0.001   14.909   14.909
 ls_scf_dm_to_ks                      9  5.0    0.000    0.000   14.847   14.847
 qs_ks_update_qs_env                 10  6.0    0.000    0.000   13.409   13.409
 rebuild_ks_matrix                   10  7.0    0.000    0.000   13.409   13.409
 qs_ks_build_kohn_sham_matrix        10  8.0    0.002    0.002   13.409   13.409
 qs_vxc_create                       10  9.0    0.000    0.000    8.694    8.694
 xc_vxc_pw_create                    10 10.0    0.140    0.140    8.694    8.694
 pw_transfer                        191 11.1    0.018    0.018    7.062    7.062
 fft_wrap_pw1pw2                    171 12.3    0.003    0.003    6.893    6.893
 fft_wrap_pw1pw2_200                111 13.7    0.766    0.766    6.719    6.719
 xc_pw_derive                        60 12.0    0.001    0.001    5.194    5.194
 pao_update                           4  4.0    0.005    0.005    5.100    5.100
 xc_rho_set_and_dset_create          10 11.0    0.223    0.223    5.060    5.060
 pao_calc_energy                    413  5.0    0.002    0.002    4.616    4.616
 dbcsr_multiply_generic           22475  8.4    0.233    0.233    3.662    3.662
 qs_rho_update_rho_low               10  6.0    0.000    0.000    3.641    3.641
 calculate_rho_elec                  10  7.0    0.033    0.033    3.641    3.641
 sum_up_and_integrate                10  9.0    0.129    0.129    3.637    3.637
 integrate_v_rspace                  10 10.0    0.001    0.001    3.508    3.508
 xc_pw_divergence                    10 11.0    0.000    0.000    3.386    3.386
 fft3d_s                            172 14.2    2.635    2.635    2.648    2.648
 grid_integrate_task_list            10 11.0    2.609    2.609    2.609    2.609
 pao_dm_trs4                        413  6.0    0.002    0.002    2.404    2.404
 density_matrix_trs4                422  7.0    0.076    0.076    2.323    2.323
 grid_collocate_task_list            10  8.0    2.320    2.320    2.320    2.320
 pao_guess_initial_P                  1  4.0    0.000    0.000    2.207    2.207
 pao_read_preopt_dm                   1  5.0    0.000    0.000    2.207    2.207
 ls_scf_init_matrix_S               417  7.0    0.002    0.002    2.202    2.202
 pao_rebuild_S                      413  6.0    0.001    0.001    2.179    2.179
 matrix_sqrt_Newton_Schulz          417  8.0    0.056    0.056    1.987    1.987
 xc_functional_eval                  10 12.0    0.000    0.000    1.942    1.942
 pbe_lda_eval                        10 13.0    1.941    1.941    1.941    1.941
 pw_gather_s                         81 13.8    1.740    1.740    1.740    1.740
 pw_scatter_s                        90 14.7    1.718    1.718    1.718    1.718
 make_m2s                         44950  9.4    0.087    0.087    1.388    1.388
 multiply_cannon                  22475  9.4    0.551    0.551    1.354    1.354
 density_rs2pw                       10  8.0    0.001    0.001    1.288    1.288
 make_images                      44950 10.4    0.356    0.356    1.234    1.234
 pw_derive                           60 13.0    1.068    1.068    1.068    1.068
 potential_pw2rs                     10 11.0    0.001    0.001    0.898    0.898
 arnoldi_extremal                   839  8.5    0.002    0.002    0.723    0.723
 arnoldi_normal_ev                  839  9.5    0.006    0.006    0.721    0.721
 pw_copy                            120 11.8    0.685    0.685    0.685    0.685
 build_subspace                     839 10.5    0.031    0.031    0.567    0.567
 dbcsr_matrix_vector_mult         20087 11.5    0.063    0.063    0.525    0.525
 pw_axpy                             90 10.3    0.480    0.480    0.480    0.480
 pao_calc_AB                        545  5.8    0.000    0.000    0.480    0.480
 pao_calc_AB_equi                   545  6.8    0.014    0.014    0.479    0.479
 -------------------------------------------------------------------------------

 The number of warnings for this run is : 0
 
 -------------------------------------------------------------------------------
  **** **** ******  **  PROGRAM ENDED AT                 2023-02-01 10:45:42.561
 ***** ** ***  *** **   PROGRAM RAN ON                                    moritz
 **    ****   ******    PROGRAM RAN BY                                       ole
 ***** **    ** ** **   PROGRAM PROCESS ID                                148618
  **** **  *******  **  PROGRAM STOPPED IN /home/ole/git/pao_ml_equivar/2H2O_rot
                                           ations/phi_34
