 DBCSR| CPU Multiplication driver                                           BLAS
 DBCSR| Multrec recursion limit                                              512
 DBCSR| Multiplication stack size                                           1000
 DBCSR| Maximum elements for images                                    UNLIMITED
 DBCSR| Multiplicative factor virtual images                                   1
 DBCSR| Use multiplication densification                                       T
 DBCSR| Multiplication size stacks                                             3


  **** **** ******  **  PROGRAM STARTED AT               2019-03-28 17:33:27.146
 ***** ** ***  *** **   PROGRAM STARTED ON        oleschuett.zrh.corp.google.com
 **    ****   ******    PROGRAM STARTED BY                            oleschuett
 ***** **    ** ** **   PROGRAM PROCESS ID                                 34106
  **** **  *******  **  PROGRAM STARTED IN /usr/local/google/home/oleschuett/git
                                           /pao_ml_equivar/2H2O_rotations/phi_34

 CP2K| version string:                    CP2K version 7.0 (Development Version)
 CP2K| source code revision number:                                git:d9814d431
 CP2K| cp2kflags: libint fftw3 libxc libderiv_max_am1=5 libint_max_am=6         
 CP2K| is freely available from                            https://www.cp2k.org/
 CP2K| Program compiled at                          Mon Mar 25 16:50:07 CET 2019
 CP2K| Program compiled on                        oleschuett.zrh.corp.google.com
 CP2K| Program compiled for                                                local
 CP2K| Data directory path       /usr/local/google/home/oleschuett/git/cp2k/data
 CP2K| Input file name                                            2H2O_pao44.inp

 GLOBAL| Force Environment number                                              1
 GLOBAL| Basis set file name                                        BASIS_MOLOPT
 GLOBAL| Potential file name                                      GTH_POTENTIALS
 GLOBAL| MM Potential file name                                     MM_POTENTIAL
 GLOBAL| Coordinate file name                                         coords.xyz
 GLOBAL| Method name                                                        CP2K
 GLOBAL| Project name                                                 2H2O_pao44
 GLOBAL| Preferred FFT library                                             FFTW3
 GLOBAL| Preferred diagonalization lib.                                       SL
 GLOBAL| Run type                                                         ENERGY
 GLOBAL| All-to-all communication in single precision                          F
 GLOBAL| FFTs using library dependent lengths                                  F
 GLOBAL| Global print level                                                  LOW
 GLOBAL| MPI I/O enabled                                                       T
 GLOBAL| Total number of message passing processes                             1
 GLOBAL| Number of threads for this process                                    1
 GLOBAL| This output is from process                                           0
 GLOBAL| CPU model name :  Intel(R) Xeon(R) CPU E5-1650 v4 @ 3.60GHz

 MEMORY| system memory details [Kb]
 MEMORY|                        rank 0           min           max       average
 MEMORY| MemTotal             65953612      65953612      65953612      65953612
 MEMORY| MemFree               4937096       4937096       4937096       4937096
 MEMORY| Buffers               2543220       2543220       2543220       2543220
 MEMORY| Cached               25366440      25366440      25366440      25366440
 MEMORY| Slab                  3622452       3622452       3622452       3622452
 MEMORY| SReclaimable          2421472       2421472       2421472       2421472
 MEMORY| MemLikelyFree        35268228      35268228      35268228      35268228


 GENERATE|  Preliminary Number of Bonds generated:                             0
 GENERATE|  Achieved consistency in connectivity generation.

 *******************************************************************************
 *******************************************************************************
 **                                                                           **
 **     #####                         ##              ##                      **
 **    ##   ##            ##          ##              ##                      **
 **   ##     ##                       ##            ######                    **
 **   ##     ##  ##   ##  ##   #####  ##  ##   ####   ##    #####    #####    **
 **   ##     ##  ##   ##  ##  ##      ## ##   ##      ##   ##   ##  ##   ##   **
 **   ##  ## ##  ##   ##  ##  ##      ####     ###    ##   ######   ######    **
 **    ##  ###   ##   ##  ##  ##      ## ##      ##   ##   ##       ##        **
 **     #######   #####   ##   #####  ##  ##  ####    ##    #####   ##        **
 **           ##                                                    ##        **
 **                                                                           **
 **                                                ... make the atoms dance   **
 **                                                                           **
 **            Copyright (C) by CP2K developers group (2000 - 2018)           **
 **                                                                           **
 *******************************************************************************


 TOTAL NUMBERS AND MAXIMUM NUMBERS

  Total number of            - Atomic kinds:                                   2
                             - Atoms:                                          6
                             - Shell sets:                                     6
                             - Shells:                                        22
                             - Primitive Cartesian functions:                 42
                             - Cartesian basis functions:                     48
                             - Spherical basis functions:                     46

  Maximum angular momentum of- Orbital basis functions:                        2
                             - Local part of the GTH pseudopotential:          2
                             - Non-local part of the GTH pseudopotential:      0

 ------------------------------ Linear scaling SCF -----------------------------
 eps_scf:                                                              0.100E-07
 eps_filter:                                                           0.100E-07
 mixing_fraction:                                                      0.450E+00
 max_scf:                                                                     25
 fixed chemical potential (mu)                                                 F
 has unit metric:                                                              F
 Computing inv(S):                                                             T
 Computing sqrt(S):                                                            T
 Computing s preconditioner                                                    F
 sign sqrt order:                                                              3
 Extrapolation order:                                                          1
 Use single precision matrices                                                 F
 S preconditioner type                                                      NONE
 Polarized Atomic Orbitals (PAO)                                               T
 Purification method                                   Trace resetting 4th order
 Cluster type                                                             ATOMIC
 Computing Chebyshev                                                       FALSE
 Using PAO                                                                     T
 -------------------------------------------------------------------------------

 
 PAO|                                  EPS_PAO                           0.1E-04
 PAO|                                  MIXING                            0.5E+00
 PAO|                                  MAX_PAO                              1000
 PAO|                                  MAX_CYCLES                           1000
 PAO|                                  PARAMETERIZATION                   DIRECT
 PAO|                                  PRECONDITION                            F
 PAO|                                  REGULARIZATION                    0.0E+00
 PAO|                                  EPS_PGF                           0.1E-09
 PAO|                                  PENALTY_DISTANCE                  0.1E+00
 PAO|                                  PENALTY_STRENGTH                  0.5E-02
 PAO|                                  LINPOT_PRECONDITION_DELTA         0.0E+00
 PAO|                                  LINPOT_INITGUESS_DELT             0.0E+00
 PAO|                                  LINPOT_REGULARIZATION_DELTA       0.0E+00
 PAO|                                  LINPOT_REGULARIZATION_STRENGTH    0.0E+00
 PAO|                                  OPTIMIZER                              CG
 PAO|                                  CG_INIT_STEPS                           2
 PAO|                                  CG_RESET_LIMIT                    0.1E+00
 PAO|                                  CHECK_UNITARY_TOL                -0.1E+01
 PAO|                                  CHECK_GRADIENT_TOL               -0.1E+01
 PAO|                                  NUM_GRADIENT_ORDER                      2
 PAO|                                  NUM_GRADIENT_EPS                  0.1E-07
 PAO|                                  PRINT%RESTART%WRITE_CYCLES            100
 PAO|                                  RESTART_FILE 
 PAO|                                  PREOPT_DM_FILE 2H2O_ref_LS_DM_SPIN_1_RESTART.dm
 PAO|                                  MACHINE_LEARNING%METHOD        GAUSSIAN_P
 PAO|                                  MACHINE_LEARNING%PRIOR               ZERO
 PAO|                                  MACHINE_LEARNING%DESCRIPTOR     POTENTIAL
 PAO|                                  MACHINE_LEARNING%TOLERANCE        0.1E-01
 PAO|                                  MACHINE_LEARNING%GP_NOISE_VAR     0.1E+00
 PAO|                                  MACHINE_LEARNING%GP_SCALE         0.5E-01
 

 Calculating atomic Fock matrix for atomic kind: O

 Electronic structure
    Total number of core electrons                                          2.00
    Total number of valence electrons                                       6.00
    Total number of electrons                                               8.00
    Multiplicity                                                   not specified
    S   [  2.00] 2.00
    P      4.00


 *******************************************************************************
                  Iteration          Convergence                     Energy [au]
 *******************************************************************************
                          1        0.708315                     -15.576645311500
                          2        0.608879                     -15.587933561584
                          3        0.102828E-01                 -15.656849565404
                          4        0.113889E-02                 -15.656866888140
                          5        0.434197E-03                 -15.656867072159
                          6        0.263771E-03                 -15.656867091904
                          7        0.478536E-06                 -15.656867103452

 Energy components [Hartree]           Total Energy ::          -15.656867103452
                                        Band Energy ::           -3.000198112285
                                     Kinetic Energy ::           11.759971203220
                                   Potential Energy ::          -27.416838306672
                                      Virial (-V/T) ::            2.331369510426
                                        Core Energy ::          -26.140716385623
                                          XC Energy ::           -3.154051012914
                                     Coulomb Energy ::           13.637900295084
                       Total Pseudopotential Energy ::          -37.935781716540
                       Local Pseudopotential Energy ::          -39.218907440693
                    Nonlocal Pseudopotential Energy ::            1.283125724153
                                        Confinement ::            0.350941276976

 Orbital energies  State     L     Occupation   Energy[a.u.]          Energy[eV]

                       1     0          2.000      -0.864471          -23.523463

                       1     1          4.000      -0.317814           -8.648154


 Total Electron Density at R=0:                                         0.000068

 Calculating atomic Fock matrix for atomic kind: H

 Electronic structure
    Total number of core electrons                                          0.00
    Total number of valence electrons                                       1.00
    Total number of electrons                                               1.00
    Multiplicity                                                   not specified
    S      1.00


 *******************************************************************************
                  Iteration          Convergence                     Energy [au]
 *******************************************************************************
                          1        0.437545E-02                  -0.424159432110
                          2        0.531356E-03                  -0.424178438213
                          3        0.259176E-06                  -0.424178722480

 Energy components [Hartree]           Total Energy ::           -0.424178722480
                                        Band Energy ::           -0.199015229016
                                     Kinetic Energy ::            0.464007633961
                                   Potential Energy ::           -0.888186356441
                                      Virial (-V/T) ::            1.914163240935
                                        Core Energy ::           -0.479160803564
                                          XC Energy ::           -0.244352904054
                                     Coulomb Energy ::            0.299334985138
                       Total Pseudopotential Energy ::           -0.962295316385
                       Local Pseudopotential Energy ::           -0.962295316385
                    Nonlocal Pseudopotential Energy ::            0.000000000000
                                        Confinement ::            0.191268788606

 Orbital energies  State     L     Occupation   Energy[a.u.]          Energy[eV]

                       1     0          1.000      -0.199015           -5.415480


 Total Electron Density at R=0:                                         0.242907
 PAO| Made initial guess for matrix_X with norm:   4.8989794855663558     

     Lanczos converged:  T threshold:   0.100E-02
     Est. extremal eigenvalues:    0.336E+01   0.114E+00
     Est. condition number :    0.294E+02
     NS sqrt iter    1 1.00000000   0.821E+00       0.002       40.747
     NS sqrt iter    2 1.00000000   0.440E+00       0.002       65.009
     NS sqrt iter    3 1.00000000   0.170E+00       0.002       64.875
     NS sqrt iter    4 1.00000000   0.206E-01       0.002       70.684
     NS sqrt iter    5 1.00000000   0.537E-04       0.001       61.294
     Final NS sqrt iter    5 1.00000000   0.426E-08

 PAO| Read restart DM 2H2O_ref_LS_DM_SPIN_1_RESTART.dm with checksum:    45.074232526056221     
 PAO| Quickstep energy from restart density:  -34.450649595579598     
 PAO| ======================= Iteration:         1 =============================

     Lanczos converged:  T threshold:   0.100E-02
     Est. extremal eigenvalues:    0.336E+01   0.114E+00
     Est. condition number :    0.294E+02
     NS sqrt iter    1 1.00000000   0.821E+00       0.002       41.517
     NS sqrt iter    2 1.00000000   0.440E+00       0.002       67.995
     NS sqrt iter    3 1.00000000   0.170E+00       0.002       67.277
     NS sqrt iter    4 1.00000000   0.206E-01       0.002       69.046
     NS sqrt iter    5 1.00000000   0.537E-04       0.002       58.978
     Final NS sqrt iter    5 1.00000000   0.426E-08

     Est. extremal eigenvalues     -0.91945     1.88698  converged:  T
     TRS4 it   1 1.00000000   0.884E+00       0.001       16.128   0.100E-07
     TRS4 it   2 1.00000000   0.692E+00       0.001       32.256   0.100E-07
     TRS4 it   3 1.00000000   0.499E+00       0.001       26.806   0.100E-07
     TRS4 it   4 1.00000000   0.312E+00       0.001       32.256   0.100E-07
     TRS4 it   5 1.00000000   0.155E+00       0.001       32.256   0.100E-07
     TRS4 it   6 1.00000000   0.484E-01       0.001       32.256   0.100E-07
     TRS4 it   7 1.00000000   0.660E-02       0.001       32.256   0.100E-07
     TRS4 it   8 1.00000000   0.173E-03       0.001       32.256   0.100E-07
     TRS4 it   9 1.00000000   0.132E-06       0.001       32.256   0.100E-07
     TRS4 it  10 1.00000000   0.790E-13       0.001       32.256   0.100E-07
     Final TRS4 iteration   10 1.00000000   0.790E-13
     Chemical potential (mu):      -0.06470
 
 PAO| energy:  -7.6183979324494935      penalty:   4.0059342843254514E-033
 PAO|CG| warming up with steepest descent
 PAO|CG| beta:    0.0000000000000000     
 PAO| norm of gradient:  0.78335103252846883     
 PAO|LS| adapt:  T F F
 PAO|LS| adapt: scan_steps:    0.0000000000000000        0.0000000000000000        0.0000000000000000     
 PAO|LS| adapt: energies:   -7.6183979324494935        0.0000000000000000        0.0000000000000000     
 PAO| ======================= Iteration:         2 =============================

     Lanczos converged:  T threshold:   0.100E-02
     Est. extremal eigenvalues:    0.327E+01   0.127E+00
     Est. condition number :    0.258E+02
     NS sqrt iter    1 1.00000000   0.805E+00       0.001       43.012
     NS sqrt iter    2 1.00000000   0.425E+00       0.002       65.594
     NS sqrt iter    3 1.00000000   0.153E+00       0.002       62.158
     NS sqrt iter    4 1.00000000   0.143E-01       0.002       68.388
     NS sqrt iter    5 1.00000000   0.171E-04       0.002       54.670
     Final NS sqrt iter    5 1.00000000   0.445E-09

     Est. extremal eigenvalues     -0.92312     1.83309  converged:  T
     TRS4 it   1 1.00000000   0.881E+00       0.001       16.128   0.100E-07
     TRS4 it   2 1.00000000   0.673E+00       0.001       32.256   0.100E-07
     TRS4 it   3 1.00000000   0.483E+00       0.001       32.256   0.100E-07
     TRS4 it   4 1.00000000   0.292E+00       0.001       32.256   0.100E-07
     TRS4 it   5 1.00000000   0.135E+00       0.002       17.470   0.100E-07
     TRS4 it   6 1.00000000   0.372E-01       0.001       32.256   0.100E-07
     TRS4 it   7 1.00000000   0.395E-02       0.001       32.256   0.100E-07
     TRS4 it   8 1.00000000   0.624E-04       0.001       32.256   0.100E-07
     TRS4 it   9 1.00000000   0.173E-07       0.001       32.256   0.100E-07
     Final TRS4 iteration    9 1.00000000   0.173E-07
     Chemical potential (mu):      -0.05267
 
 PAO| energy:  -7.6738853084823369      penalty:   2.2479056089727041E-008
 PAO|LS| adapt:  T T F
 PAO|LS| adapt: scan_steps:    0.0000000000000000       0.10000000000000001        0.0000000000000000     
 PAO|LS| adapt: energies:   -7.6183979324494935       -7.6738853084823369        0.0000000000000000     
 PAO| ======================= Iteration:         3 =============================

     Lanczos converged:  T threshold:   0.100E-02
     Est. extremal eigenvalues:    0.318E+01   0.138E+00
     Est. condition number :    0.230E+02
     NS sqrt iter    1 1.00000000   0.787E+00       0.001       43.356
     NS sqrt iter    2 1.00000000   0.408E+00       0.002       60.923
     NS sqrt iter    3 1.00000000   0.136E+00       0.002       53.283
     NS sqrt iter    4 1.00000000   0.982E-02       0.002       57.404
     NS sqrt iter    5 1.00000000   0.574E-05       0.002       46.911
     Final NS sqrt iter    5 1.00000000   0.507E-10

     Est. extremal eigenvalues     -0.92654     1.78963  converged:  T
     TRS4 it   1 1.00000000   0.878E+00       0.001       16.128   0.100E-07
     TRS4 it   2 1.00000000   0.657E+00       0.001       32.256   0.100E-07
     TRS4 it   3 1.00000000   0.468E+00       0.001       32.256   0.100E-07
     TRS4 it   4 1.00000000   0.272E+00       0.001       32.256   0.100E-07
     TRS4 it   5 1.00000000   0.117E+00       0.001       32.256   0.100E-07
     TRS4 it   6 1.00000000   0.277E-01       0.001       32.256   0.100E-07
     TRS4 it   7 1.00000000   0.219E-02       0.001       32.256   0.100E-07
     TRS4 it   8 1.00000000   0.192E-04       0.001       32.256   0.100E-07
     TRS4 it   9 1.00000000   0.165E-08       0.001       32.256   0.100E-07
     Final TRS4 iteration    9 1.00000000   0.165E-08
     Chemical potential (mu):      -0.03968
 
 PAO| energy:  -7.7169589488250168      penalty:   3.5966476528659466E-007
 PAO|LS| adapt:  T T F
 PAO|LS| adapt: scan_steps:    0.0000000000000000       0.20000000000000001        0.0000000000000000     
 PAO|LS| adapt: energies:   -7.6183979324494935       -7.7169589488250168        0.0000000000000000     
 PAO| ======================= Iteration:         4 =============================

     Lanczos converged:  T threshold:   0.100E-02
     Est. extremal eigenvalues:    0.299E+01   0.156E+00
     Est. condition number :    0.191E+02
     NS sqrt iter    1 1.00000000   0.750E+00       0.002       40.070
     NS sqrt iter    2 1.00000000   0.374E+00       0.002       63.423
     NS sqrt iter    3 1.00000000   0.106E+00       0.002       64.899
     NS sqrt iter    4 1.00000000   0.480E-02       0.002       63.881
     NS sqrt iter    5 1.00000000   0.829E-06       0.002       52.324
     Final NS sqrt iter    5 1.00000000   0.116E-11

     Est. extremal eigenvalues     -0.93188     1.72640  converged:  T
     TRS4 it   1 1.00000000   0.874E+00       0.001       16.128   0.100E-07
     TRS4 it   2 1.00000000   0.630E+00       0.001       31.100   0.100E-07
     TRS4 it   3 1.00000000   0.438E+00       0.001       32.256   0.100E-07
     TRS4 it   4 1.00000000   0.236E+00       0.001       32.256   0.100E-07
     TRS4 it   5 1.00000000   0.854E-01       0.001       32.256   0.100E-07
     TRS4 it   6 1.00000000   0.143E-01       0.001       32.256   0.100E-07
     TRS4 it   7 1.00000000   0.555E-03       0.001       32.256   0.100E-07
     TRS4 it   8 1.00000000   0.120E-05       0.001       32.256   0.100E-07
     TRS4 it   9 1.00000000   0.639E-11       0.001       32.256   0.100E-07
     Final TRS4 iteration    9 1.00000000   0.639E-11
     Chemical potential (mu):      -0.01107
 
 PAO| energy:  -7.7642386099142104      penalty:   5.7546351874045368E-006
 PAO|LS| Need extra step
 PAO|LS| adapt:  T T F
 PAO|LS| adapt: scan_steps:    0.0000000000000000       0.40000000000000002        0.0000000000000000     
 PAO|LS| adapt: energies:   -7.6183979324494935       -7.7642386099142104        0.0000000000000000     
 PAO| ======================= Iteration:         5 =============================

     Lanczos converged:  T threshold:   0.100E-02
     Est. extremal eigenvalues:    0.263E+01   0.183E+00
     Est. condition number :    0.144E+02
     NS sqrt iter    1 1.00000000   0.687E+00       0.001       44.532
     NS sqrt iter    2 1.00000000   0.312E+00       0.002       71.241
     NS sqrt iter    3 1.00000000   0.655E-01       0.002       71.829
     NS sqrt iter    4 1.00000000   0.133E-02       0.002       71.602
     NS sqrt iter    5 1.00000000   0.234E-07       0.001       41.115
     Final NS sqrt iter    5 1.00000000   0.244E-08

     Est. extremal eigenvalues     -0.93313     1.65566  converged:  T
     TRS4 it   1 1.00000000   0.869E+00       0.001       16.128   0.100E-07
     TRS4 it   2 1.00000000   0.594E+00       0.001       32.256   0.100E-07
     TRS4 it   3 1.00000000   0.390E+00       0.001       30.955   0.100E-07
     TRS4 it   4 1.00000000   0.179E+00       0.001       32.256   0.100E-07
     TRS4 it   5 1.00000000   0.459E-01       0.001       29.838   0.100E-07
     TRS4 it   6 1.00000000   0.372E-02       0.001       29.361   0.100E-07
     TRS4 it   7 1.00000000   0.317E-04       0.001       30.059   0.100E-07
     TRS4 it   8 1.00000000   0.291E-08       0.001       31.074   0.100E-07
     Final TRS4 iteration    8 1.00000000   0.291E-08
     Chemical potential (mu):       0.03807
 
 PAO| energy:  -7.7095768053451454      penalty:   9.2074154541068215E-005
 PAO|LS| Need extra step
 PAO|LS| adapt:  T T T
 PAO|LS| adapt: scan_steps:    0.0000000000000000       0.40000000000000002       0.80000000000000004     
 PAO|LS| adapt: energies:   -7.6183979324494935       -7.7642386099142104       -7.7095768053451454     
 PAO|LS| adapt: suggested step_size:   0.49095036826555549     
 PAO|LS| adapt: predicted energy  -7.7694215799566466     
 PAO| ======================= Iteration:         6 =============================

     Lanczos converged:  T threshold:   0.100E-02
     Est. extremal eigenvalues:    0.290E+01   0.163E+00
     Est. condition number :    0.178E+02
     NS sqrt iter    1 1.00000000   0.734E+00       0.002       38.348
     NS sqrt iter    2 1.00000000   0.359E+00       0.002       63.149
     NS sqrt iter    3 1.00000000   0.947E-01       0.002       64.317
     NS sqrt iter    4 1.00000000   0.353E-02       0.002       63.938
     NS sqrt iter    5 1.00000000   0.364E-06       0.002       51.382
     Final NS sqrt iter    5 1.00000000   0.160E-09

     Est. extremal eigenvalues     -0.93337     1.70527  converged:  T
     TRS4 it   1 1.00000000   0.872E+00       0.001       16.128   0.100E-07
     TRS4 it   2 1.00000000   0.620E+00       0.001       32.256   0.100E-07
     TRS4 it   3 1.00000000   0.426E+00       0.001       32.256   0.100E-07
     TRS4 it   4 1.00000000   0.221E+00       0.001       32.256   0.100E-07
     TRS4 it   5 1.00000000   0.737E-01       0.001       32.256   0.100E-07
     TRS4 it   6 1.00000000   0.104E-01       0.001       32.256   0.100E-07
     TRS4 it   7 1.00000000   0.280E-03       0.001       32.256   0.100E-07
     TRS4 it   8 1.00000000   0.291E-06       0.001       32.256   0.100E-07
     TRS4 it   9 1.00000000   0.375E-12       0.001       25.760   0.100E-07
     Final TRS4 iteration    9 1.00000000   0.375E-12
     Chemical potential (mu):       0.00277
 
 PAO| energy:  -7.7687016229687664      penalty:   1.3059548944087531E-005
 PAO|CG| warming up with steepest descent
 PAO|CG| beta:    0.0000000000000000     
 PAO| norm of gradient:  0.41762593281004790     
 PAO| energy improvement: -0.15030369051927295     
 PAO| step      6                   -7.768701623  0.261E-01  0.491E+00     0.131
 PAO|LS| adapt:  T F F
 PAO|LS| adapt: scan_steps:    0.0000000000000000        0.0000000000000000        0.0000000000000000     
 PAO|LS| adapt: energies:   -7.7687016229687664        0.0000000000000000        0.0000000000000000     
 PAO| ======================= Iteration:         7 =============================

     Lanczos converged:  T threshold:   0.100E-02
     Est. extremal eigenvalues:    0.281E+01   0.177E+00
     Est. condition number :    0.159E+02
     NS sqrt iter    1 1.00000000   0.716E+00       0.001       44.370
     NS sqrt iter    2 1.00000000   0.338E+00       0.002       71.376
     NS sqrt iter    3 1.00000000   0.792E-01       0.002       72.281
     NS sqrt iter    4 1.00000000   0.214E-02       0.002       71.495
     NS sqrt iter    5 1.00000000   0.908E-07       0.001       53.366
     Final NS sqrt iter    5 1.00000000   0.867E-09

     Est. extremal eigenvalues     -0.93509     1.69265  converged:  T
     TRS4 it   1 1.00000000   0.871E+00       0.001       16.128   0.100E-07
     TRS4 it   2 1.00000000   0.618E+00       0.001       32.256   0.100E-07
     TRS4 it   3 1.00000000   0.426E+00       0.001       32.256   0.100E-07
     TRS4 it   4 1.00000000   0.221E+00       0.001       30.454   0.100E-07
     TRS4 it   5 1.00000000   0.743E-01       0.001       29.907   0.100E-07
     TRS4 it   6 1.00000000   0.103E-01       0.001       30.006   0.100E-07
     TRS4 it   7 1.00000000   0.260E-03       0.001       30.130   0.100E-07
     TRS4 it   8 1.00000000   0.238E-06       0.001       31.483   0.100E-07
     TRS4 it   9 1.00000000   0.246E-12       0.001       30.880   0.100E-07
     Final TRS4 iteration    9 1.00000000   0.246E-12
     Chemical potential (mu):       0.00496
 
 PAO| energy:  -7.7627434816747760      penalty:   1.9797513738180049E-005
 PAO|LS| adapt:  T F T
 PAO|LS| adapt: scan_steps:    0.0000000000000000        0.0000000000000000       0.49095036826555549     
 PAO|LS| adapt: energies:   -7.7687016229687664        0.0000000000000000       -7.7627434816747760     
 PAO| ======================= Iteration:         8 =============================

     Lanczos converged:  T threshold:   0.100E-02
     Est. extremal eigenvalues:    0.286E+01   0.170E+00
     Est. condition number :    0.168E+02
     NS sqrt iter    1 1.00000000   0.725E+00       0.002       32.867
     NS sqrt iter    2 1.00000000   0.348E+00       0.002       63.521
     NS sqrt iter    3 1.00000000   0.868E-01       0.002       63.810
     NS sqrt iter    4 1.00000000   0.277E-02       0.002       64.100
     NS sqrt iter    5 1.00000000   0.185E-06       0.002       48.862
     Final NS sqrt iter    5 1.00000000   0.855E-09

     Est. extremal eigenvalues     -0.93518     1.69832  converged:  T
     TRS4 it   1 1.00000000   0.871E+00       0.001       16.128   0.100E-07
     TRS4 it   2 1.00000000   0.619E+00       0.001       32.256   0.100E-07
     TRS4 it   3 1.00000000   0.425E+00       0.001       32.256   0.100E-07
     TRS4 it   4 1.00000000   0.220E+00       0.001       32.256   0.100E-07
     TRS4 it   5 1.00000000   0.738E-01       0.001       32.256   0.100E-07
     TRS4 it   6 1.00000000   0.104E-01       0.001       32.256   0.100E-07
     TRS4 it   7 1.00000000   0.277E-03       0.001       32.256   0.100E-07
     TRS4 it   8 1.00000000   0.279E-06       0.001       32.256   0.100E-07
     TRS4 it   9 1.00000000   0.342E-12       0.001       32.256   0.100E-07
     Final TRS4 iteration    9 1.00000000   0.342E-12
     Chemical potential (mu):       0.00340
 
 PAO| energy:  -7.7883768541136975      penalty:   1.4166854128092001E-005
 PAO|LS| adapt:  T T T
 PAO|LS| adapt: scan_steps:    0.0000000000000000       0.24547518413277775       0.49095036826555549     
 PAO|LS| adapt: energies:   -7.7687016229687664       -7.7883768541136975       -7.7627434816747760     
 PAO|LS| adapt: suggested step_size:   0.22933502844993245     
 PAO|LS| adapt: predicted energy  -7.7884747920462072     
 PAO| ======================= Iteration:         9 =============================

     Lanczos converged:  T threshold:   0.100E-02
     Est. extremal eigenvalues:    0.286E+01   0.170E+00
     Est. condition number :    0.169E+02
     NS sqrt iter    1 1.00000000   0.726E+00       0.001       43.904
     NS sqrt iter    2 1.00000000   0.349E+00       0.002       69.678
     NS sqrt iter    3 1.00000000   0.873E-01       0.002       72.031
     NS sqrt iter    4 1.00000000   0.281E-02       0.002       71.840
     NS sqrt iter    5 1.00000000   0.194E-06       0.002       53.148
     Final NS sqrt iter    5 1.00000000   0.897E-09

     Est. extremal eigenvalues     -0.93512     1.69873  converged:  T
     TRS4 it   1 1.00000000   0.871E+00       0.001       16.128   0.100E-07
     TRS4 it   2 1.00000000   0.619E+00       0.001       32.256   0.100E-07
     TRS4 it   3 1.00000000   0.425E+00       0.001       32.256   0.100E-07
     TRS4 it   4 1.00000000   0.220E+00       0.001       32.256   0.100E-07
     TRS4 it   5 1.00000000   0.738E-01       0.001       32.256   0.100E-07
     TRS4 it   6 1.00000000   0.104E-01       0.001       32.256   0.100E-07
     TRS4 it   7 1.00000000   0.277E-03       0.001       32.256   0.100E-07
     TRS4 it   8 1.00000000   0.281E-06       0.001       32.256   0.100E-07
     TRS4 it   9 1.00000000   0.347E-12       0.001       32.256   0.100E-07
     Final TRS4 iteration    9 1.00000000   0.347E-12
     Chemical potential (mu):       0.00333
 
 PAO| energy:  -7.7884990529432834      penalty:   1.3993687368196221E-005
 PAO|CG| trace_G_new    3.6918298351227237E-002
 PAO|CG| trace_G_prev   0.17441141975546265     
 PAO|CG| trace_G_mix   -1.4551747372036515E-003
 PAO|CG| trace_D   0.17441141975546265     
 PAO|CG| trace_D_Gnew   1.4551747372036515E-003
 PAO|CG| beta:   0.22001697562139713     
 PAO| norm of gradient:  0.19214134992558796     
 PAO| energy improvement:  -1.9797429974516945E-002
 PAO| step      9                   -7.788499053  0.120E-01  0.229E+00     0.081
 PAO|LS| adapt:  T F F
 PAO|LS| adapt: scan_steps:    0.0000000000000000        0.0000000000000000        0.0000000000000000     
 PAO|LS| adapt: energies:   -7.7884990529432834        0.0000000000000000        0.0000000000000000     
 PAO| ======================= Iteration:        10 =============================

     Lanczos converged:  T threshold:   0.100E-02
     Est. extremal eigenvalues:    0.282E+01   0.175E+00
     Est. condition number :    0.161E+02
     NS sqrt iter    1 1.00000000   0.718E+00       0.002       36.774
     NS sqrt iter    2 1.00000000   0.341E+00       0.002       55.502
     NS sqrt iter    3 1.00000000   0.817E-01       0.002       53.568
     NS sqrt iter    4 1.00000000   0.231E-02       0.002       51.262
     NS sqrt iter    5 1.00000000   0.108E-06       0.002       47.791
     Final NS sqrt iter    5 1.00000000   0.110E-08

     Est. extremal eigenvalues     -0.93601     1.69539  converged:  T
     TRS4 it   1 1.00000000   0.870E+00       0.001       16.128   0.100E-07
     TRS4 it   2 1.00000000   0.618E+00       0.001       32.256   0.100E-07
     TRS4 it   3 1.00000000   0.424E+00       0.001       32.256   0.100E-07
     TRS4 it   4 1.00000000   0.218E+00       0.001       32.256   0.100E-07
     TRS4 it   5 1.00000000   0.719E-01       0.001       32.256   0.100E-07
     TRS4 it   6 1.00000000   0.980E-02       0.001       32.256   0.100E-07
     TRS4 it   7 1.00000000   0.242E-03       0.001       32.256   0.100E-07
     TRS4 it   8 1.00000000   0.209E-06       0.001       32.256   0.100E-07
     TRS4 it   9 1.00000000   0.190E-12       0.001       32.256   0.100E-07
     Final TRS4 iteration    9 1.00000000   0.190E-12
     Chemical potential (mu):       0.00650
 
 PAO| energy:  -7.7935464229943845      penalty:   1.4535489778417278E-005
 PAO|LS| adapt:  T T F
 PAO|LS| adapt: scan_steps:    0.0000000000000000       0.22933502844993245        0.0000000000000000     
 PAO|LS| adapt: energies:   -7.7884990529432834       -7.7935464229943845        0.0000000000000000     
 PAO| ======================= Iteration:        11 =============================

     Lanczos converged:  T threshold:   0.100E-02
     Est. extremal eigenvalues:    0.278E+01   0.181E+00
     Est. condition number :    0.154E+02
     NS sqrt iter    1 1.00000000   0.710E+00       0.002       37.157
     NS sqrt iter    2 1.00000000   0.333E+00       0.002       59.418
     NS sqrt iter    3 1.00000000   0.763E-01       0.002       61.099
     NS sqrt iter    4 1.00000000   0.189E-02       0.002       61.216
     NS sqrt iter    5 1.00000000   0.597E-07       0.002       44.204
     Final NS sqrt iter    5 1.00000000   0.546E-09

     Est. extremal eigenvalues     -0.93592     1.69342  converged:  T
     TRS4 it   1 1.00000000   0.869E+00       0.001       16.128   0.100E-07
     TRS4 it   2 1.00000000   0.617E+00       0.001       32.256   0.100E-07
     TRS4 it   3 1.00000000   0.422E+00       0.001       32.256   0.100E-07
     TRS4 it   4 1.00000000   0.216E+00       0.001       31.975   0.100E-07
     TRS4 it   5 1.00000000   0.701E-01       0.001       32.231   0.100E-07
     TRS4 it   6 1.00000000   0.925E-02       0.001       32.256   0.100E-07
     TRS4 it   7 1.00000000   0.212E-03       0.001       32.256   0.100E-07
     TRS4 it   8 1.00000000   0.155E-06       0.001       32.085   0.100E-07
     TRS4 it   9 1.00000000   0.103E-12       0.001       32.256   0.100E-07
     Final TRS4 iteration    9 1.00000000   0.103E-12
     Chemical potential (mu):       0.00978
 
 PAO| energy:  -7.7921447094880376      penalty:   1.5749308262608647E-005
 PAO|LS| adapt:  T T T
 PAO|LS| adapt: scan_steps:    0.0000000000000000       0.22933502844993245       0.45867005689986490     
 PAO|LS| adapt: energies:   -7.7884990529432834       -7.7935464229943845       -7.7921447094880376     
 PAO|LS| adapt: suggested step_size:   0.29415638949776041     
 PAO|LS| adapt: predicted energy  -7.7938040334657774     
 PAO| ======================= Iteration:        12 =============================

     Lanczos converged:  T threshold:   0.100E-02
     Est. extremal eigenvalues:    0.281E+01   0.177E+00
     Est. condition number :    0.159E+02
     NS sqrt iter    1 1.00000000   0.716E+00       0.002       38.629
     NS sqrt iter    2 1.00000000   0.338E+00       0.002       57.055
     NS sqrt iter    3 1.00000000   0.801E-01       0.002       58.671
     NS sqrt iter    4 1.00000000   0.219E-02       0.002       59.301
     NS sqrt iter    5 1.00000000   0.917E-07       0.001       52.210
     Final NS sqrt iter    5 1.00000000   0.892E-09

     Est. extremal eigenvalues     -0.93608     1.69469  converged:  T
     TRS4 it   1 1.00000000   0.869E+00       0.001       16.128   0.100E-07
     TRS4 it   2 1.00000000   0.617E+00       0.001       27.665   0.100E-07
     TRS4 it   3 1.00000000   0.423E+00       0.001       32.256   0.100E-07
     TRS4 it   4 1.00000000   0.217E+00       0.001       32.256   0.100E-07
     TRS4 it   5 1.00000000   0.714E-01       0.001       32.256   0.100E-07
     TRS4 it   6 1.00000000   0.964E-02       0.001       31.356   0.100E-07
     TRS4 it   7 1.00000000   0.233E-03       0.001       32.256   0.100E-07
     TRS4 it   8 1.00000000   0.192E-06       0.001       32.256   0.100E-07
     TRS4 it   9 1.00000000   0.160E-12       0.001       32.256   0.100E-07
     Final TRS4 iteration    9 1.00000000   0.160E-12
     Chemical potential (mu):       0.00742
 
 PAO| energy:  -7.7937878349606304      penalty:   1.4802753520798438E-005
 PAO|CG| trace_G_new    1.1852123348962173E-002
 PAO|CG| trace_G_prev    3.6918298351227237E-002
 PAO|CG| trace_G_mix   -4.5558845677056456E-004
 PAO|CG| trace_D    4.4720787554872465E-002
 PAO|CG| trace_D_Gnew   2.0764662815532975E-004
 PAO|CG| beta:   0.33337700694223910     
 PAO| norm of gradient:  0.10886745771332300     
 PAO| energy improvement:  -5.2887820173470601E-003
 PAO| step     12                   -7.793787835  0.680E-02  0.294E+00     0.087
 PAO|LS| adapt:  T F F
 PAO|LS| adapt: scan_steps:    0.0000000000000000        0.0000000000000000        0.0000000000000000     
 PAO|LS| adapt: energies:   -7.7937878349606304        0.0000000000000000        0.0000000000000000     
 PAO| ======================= Iteration:        13 =============================

     Lanczos converged:  T threshold:   0.100E-02
     Est. extremal eigenvalues:    0.278E+01   0.181E+00
     Est. condition number :    0.153E+02
     NS sqrt iter    1 1.00000000   0.708E+00       0.002       38.245
     NS sqrt iter    2 1.00000000   0.331E+00       0.002       46.835
     NS sqrt iter    3 1.00000000   0.758E-01       0.002       63.708
     NS sqrt iter    4 1.00000000   0.186E-02       0.002       70.875
     NS sqrt iter    5 1.00000000   0.576E-07       0.001       51.314
     Final NS sqrt iter    5 1.00000000   0.553E-09

     Est. extremal eigenvalues     -0.93657     1.68877  converged:  T
     TRS4 it   1 1.00000000   0.869E+00       0.001       16.128   0.100E-07
     TRS4 it   2 1.00000000   0.615E+00       0.001       32.256   0.100E-07
     TRS4 it   3 1.00000000   0.419E+00       0.001       32.256   0.100E-07
     TRS4 it   4 1.00000000   0.213E+00       0.001       32.256   0.100E-07
     TRS4 it   5 1.00000000   0.679E-01       0.001       32.256   0.100E-07
     TRS4 it   6 1.00000000   0.866E-02       0.001       32.256   0.100E-07
     TRS4 it   7 1.00000000   0.186E-03       0.001       32.256   0.100E-07
     TRS4 it   8 1.00000000   0.119E-06       0.001       32.256   0.100E-07
     TRS4 it   9 1.00000000   0.605E-13       0.001       32.256   0.100E-07
     Final TRS4 iteration    9 1.00000000   0.605E-13
     Chemical potential (mu):       0.01198
 
 PAO| energy:  -7.7958626569036893      penalty:   1.5114842826747417E-005
 PAO|LS| adapt:  T T F
 PAO|LS| adapt: scan_steps:    0.0000000000000000       0.29415638949776041        0.0000000000000000     
 PAO|LS| adapt: energies:   -7.7937878349606304       -7.7958626569036893        0.0000000000000000     
 PAO| ======================= Iteration:        14 =============================

     Lanczos converged:  T threshold:   0.100E-02
     Est. extremal eigenvalues:    0.274E+01   0.185E+00
     Est. condition number :    0.148E+02
     NS sqrt iter    1 1.00000000   0.701E+00       0.001       46.196
     NS sqrt iter    2 1.00000000   0.325E+00       0.001       74.606
     NS sqrt iter    3 1.00000000   0.716E-01       0.001       74.708
     NS sqrt iter    4 1.00000000   0.159E-02       0.002       72.806
     NS sqrt iter    5 1.00000000   0.360E-07       0.001       47.710
     Final NS sqrt iter    5 1.00000000   0.306E-08

     Est. extremal eigenvalues     -0.93654     1.68317  converged:  T
     TRS4 it   1 1.00000000   0.869E+00       0.001       16.128   0.100E-07
     TRS4 it   2 1.00000000   0.612E+00       0.001       32.256   0.100E-07
     TRS4 it   3 1.00000000   0.415E+00       0.001       32.256   0.100E-07
     TRS4 it   4 1.00000000   0.208E+00       0.001       32.256   0.100E-07
     TRS4 it   5 1.00000000   0.646E-01       0.001       32.256   0.100E-07
     TRS4 it   6 1.00000000   0.779E-02       0.001       27.757   0.100E-07
     TRS4 it   7 1.00000000   0.148E-03       0.001       31.322   0.100E-07
     TRS4 it   8 1.00000000   0.735E-07       0.001       29.720   0.100E-07
     Final TRS4 iteration    8 1.00000000   0.735E-07
     Chemical potential (mu):       0.01372
 
 PAO| energy:  -7.7952050275319031      penalty:   1.5911294596218287E-005
 PAO|LS| adapt:  T T T
 PAO|LS| adapt: scan_steps:    0.0000000000000000       0.29415638949776041       0.58831277899552081     
 PAO|LS| adapt: energies:   -7.7937878349606304       -7.7958626569036893       -7.7952050275319031     
 PAO|LS| adapt: suggested step_size:   0.37043885567086277     
 PAO|LS| adapt: predicted energy  -7.7959545357037419     
 PAO| ======================= Iteration:        15 =============================

     Lanczos converged:  T threshold:   0.100E-02
     Est. extremal eigenvalues:    0.277E+01   0.182E+00
     Est. condition number :    0.152E+02
     NS sqrt iter    1 1.00000000   0.707E+00       0.002       40.024
     NS sqrt iter    2 1.00000000   0.330E+00       0.002       63.642
     NS sqrt iter    3 1.00000000   0.747E-01       0.002       63.576
     NS sqrt iter    4 1.00000000   0.179E-02       0.002       62.338
     NS sqrt iter    5 1.00000000   0.510E-07       0.002       42.684
     Final NS sqrt iter    5 1.00000000   0.438E-09

     Est. extremal eigenvalues     -0.93661     1.68729  converged:  T
     TRS4 it   1 1.00000000   0.869E+00       0.001       16.128   0.100E-07
     TRS4 it   2 1.00000000   0.614E+00       0.001       31.222   0.100E-07
     TRS4 it   3 1.00000000   0.418E+00       0.001       31.647   0.100E-07
     TRS4 it   4 1.00000000   0.211E+00       0.001       31.534   0.100E-07
     TRS4 it   5 1.00000000   0.670E-01       0.001       32.089   0.100E-07
     TRS4 it   6 1.00000000   0.842E-02       0.001       31.259   0.100E-07
     TRS4 it   7 1.00000000   0.175E-03       0.001       31.618   0.100E-07
     TRS4 it   8 1.00000000   0.105E-06       0.001       32.040   0.100E-07
     TRS4 it   9 1.00000000   0.462E-13       0.001       31.964   0.100E-07
     Final TRS4 iteration    9 1.00000000   0.462E-13
     Chemical potential (mu):       0.01315
 
 PAO| energy:  -7.7959514968460946      penalty:   1.5271815131700653E-005
 PAO|CG| trace_G_new    2.6206081878202871E-003
 PAO|CG| trace_G_prev    1.1852123348962173E-002
 PAO|CG| trace_G_mix    6.4350535352978100E-005
 PAO|CG| trace_D    1.6683952685245994E-002
 PAO|CG| trace_D_Gnew   3.4081968939765893E-005
 PAO|CG| beta:   0.21567929873857977     
 PAO| norm of gradient:   5.1191876189687430E-002
 PAO| energy improvement:  -2.1636618854641299E-003
 PAO| step     15                   -7.795951497  0.320E-02  0.370E+00     0.080
 PAO|LS| adapt:  T F F
 PAO|LS| adapt: scan_steps:    0.0000000000000000        0.0000000000000000        0.0000000000000000     
 PAO|LS| adapt: energies:   -7.7959514968460946        0.0000000000000000        0.0000000000000000     
 PAO| ======================= Iteration:        16 =============================

     Lanczos converged:  T threshold:   0.100E-02
     Est. extremal eigenvalues:    0.276E+01   0.183E+00
     Est. condition number :    0.151E+02
     NS sqrt iter    1 1.00000000   0.705E+00       0.002       37.046
     NS sqrt iter    2 1.00000000   0.328E+00       0.002       47.556
     NS sqrt iter    3 1.00000000   0.740E-01       0.002       61.464
     NS sqrt iter    4 1.00000000   0.173E-02       0.002       58.342
     NS sqrt iter    5 1.00000000   0.465E-07       0.002       42.287
     Final NS sqrt iter    5 1.00000000   0.345E-09

     Est. extremal eigenvalues     -0.93664     1.68708  converged:  T
     TRS4 it   1 1.00000000   0.869E+00       0.001       16.128   0.100E-07
     TRS4 it   2 1.00000000   0.613E+00       0.001       31.804   0.100E-07
     TRS4 it   3 1.00000000   0.417E+00       0.001       31.694   0.100E-07
     TRS4 it   4 1.00000000   0.210E+00       0.001       32.256   0.100E-07
     TRS4 it   5 1.00000000   0.659E-01       0.001       32.256   0.100E-07
     TRS4 it   6 1.00000000   0.816E-02       0.001       32.256   0.100E-07
     TRS4 it   7 1.00000000   0.165E-03       0.001       32.204   0.100E-07
     TRS4 it   8 1.00000000   0.941E-07       0.001       32.236   0.100E-07
     TRS4 it   9 1.00000000   0.379E-13       0.001       31.740   0.100E-07
     Final TRS4 iteration    9 1.00000000   0.379E-13
     Chemical potential (mu):       0.01399
 
 PAO| energy:  -7.7960780479293819      penalty:   1.5053305951716993E-005
 PAO|LS| adapt:  T T F
 PAO|LS| adapt: scan_steps:    0.0000000000000000       0.37043885567086277        0.0000000000000000     
 PAO|LS| adapt: energies:   -7.7959514968460946       -7.7960780479293819        0.0000000000000000     
 PAO| ======================= Iteration:        17 =============================

     Lanczos converged:  T threshold:   0.100E-02
     Est. extremal eigenvalues:    0.275E+01   0.183E+00
     Est. condition number :    0.150E+02
     NS sqrt iter    1 1.00000000   0.703E+00       0.002       37.592
     NS sqrt iter    2 1.00000000   0.327E+00       0.002       60.424
     NS sqrt iter    3 1.00000000   0.734E-01       0.002       61.223
     NS sqrt iter    4 1.00000000   0.168E-02       0.002       61.998
     NS sqrt iter    5 1.00000000   0.425E-07       0.002       42.974
     Final NS sqrt iter    5 1.00000000   0.350E-09

     Est. extremal eigenvalues     -0.93654     1.68696  converged:  T
     TRS4 it   1 1.00000000   0.870E+00       0.001       16.128   0.100E-07
     TRS4 it   2 1.00000000   0.612E+00       0.001       32.256   0.100E-07
     TRS4 it   3 1.00000000   0.416E+00       0.001       32.256   0.100E-07
     TRS4 it   4 1.00000000   0.208E+00       0.001       32.256   0.100E-07
     TRS4 it   5 1.00000000   0.649E-01       0.001       32.256   0.100E-07
     TRS4 it   6 1.00000000   0.790E-02       0.001       31.890   0.100E-07
     TRS4 it   7 1.00000000   0.156E-03       0.001       32.035   0.100E-07
     TRS4 it   8 1.00000000   0.846E-07       0.001       31.881   0.100E-07
     TRS4 it   9 1.00000000   0.310E-13       0.001       31.710   0.100E-07
     Final TRS4 iteration    9 1.00000000   0.310E-13
     Chemical potential (mu):       0.01481
 
 PAO| energy:  -7.7945158428703003      penalty:   1.4960542453623118E-005
 PAO|LS| adapt:  T T T
 PAO|LS| adapt: scan_steps:    0.0000000000000000       0.37043885567086277       0.74087771134172553     
 PAO|LS| adapt: energies:   -7.7959514968460946       -7.7960780479293819       -7.7945158428703003     
 PAO|LS| adapt: suggested step_size:   0.21297917200494501     
 PAO|LS| adapt: predicted energy  -7.7962306086134339     
 PAO| ======================= Iteration:        18 =============================

     Lanczos converged:  T threshold:   0.100E-02
     Est. extremal eigenvalues:    0.276E+01   0.182E+00
     Est. condition number :    0.151E+02
     NS sqrt iter    1 1.00000000   0.706E+00       0.002       39.315
     NS sqrt iter    2 1.00000000   0.329E+00       0.002       61.577
     NS sqrt iter    3 1.00000000   0.743E-01       0.002       60.317
     NS sqrt iter    4 1.00000000   0.176E-02       0.002       62.154
     NS sqrt iter    5 1.00000000   0.484E-07       0.002       42.560
     Final NS sqrt iter    5 1.00000000   0.356E-09

     Est. extremal eigenvalues     -0.93664     1.68716  converged:  T
     TRS4 it   1 1.00000000   0.869E+00       0.001       16.128   0.100E-07
     TRS4 it   2 1.00000000   0.613E+00       0.001       31.550   0.100E-07
     TRS4 it   3 1.00000000   0.417E+00       0.001       31.539   0.100E-07
     TRS4 it   4 1.00000000   0.210E+00       0.001       31.078   0.100E-07
     TRS4 it   5 1.00000000   0.664E-01       0.001       31.286   0.100E-07
     TRS4 it   6 1.00000000   0.827E-02       0.001       32.068   0.100E-07
     TRS4 it   7 1.00000000   0.169E-03       0.001       32.114   0.100E-07
     TRS4 it   8 1.00000000   0.985E-07       0.001       32.056   0.100E-07
     TRS4 it   9 1.00000000   0.406E-13       0.001       32.256   0.100E-07
     Final TRS4 iteration    9 1.00000000   0.406E-13
     Chemical potential (mu):       0.01364
 
 PAO| energy:  -7.7962301323844274      penalty:   1.5131091346106937E-005
 PAO|CG| trace_G_new    7.3238601197826714E-004
 PAO|CG| trace_G_prev    2.6206081878202871E-003
 PAO|CG| trace_G_mix    1.7373438765060177E-006
 PAO|CG| trace_D    3.3820034059767004E-003
 PAO|CG| trace_D_Gnew  -1.8184839946490515E-006
 PAO|CG| beta:   0.27880881678442909     
 PAO| norm of gradient:   2.7062631283344699E-002
 PAO| energy improvement:  -2.7863553833284982E-004
 PAO| step     18                   -7.796230132  0.169E-02  0.213E+00     0.087
 PAO|LS| adapt:  T F F
 PAO|LS| adapt: scan_steps:    0.0000000000000000        0.0000000000000000        0.0000000000000000     
 PAO|LS| adapt: energies:   -7.7962301323844274        0.0000000000000000        0.0000000000000000     
 PAO| ======================= Iteration:        19 =============================

     Lanczos converged:  T threshold:   0.100E-02
     Est. extremal eigenvalues:    0.276E+01   0.182E+00
     Est. condition number :    0.151E+02
     NS sqrt iter    1 1.00000000   0.706E+00       0.002       38.659
     NS sqrt iter    2 1.00000000   0.329E+00       0.002       61.927
     NS sqrt iter    3 1.00000000   0.745E-01       0.002       61.499
     NS sqrt iter    4 1.00000000   0.177E-02       0.002       62.110
     NS sqrt iter    5 1.00000000   0.488E-07       0.002       43.134
     Final NS sqrt iter    5 1.00000000   0.434E-09

     Est. extremal eigenvalues     -0.93664     1.68746  converged:  T
     TRS4 it   1 1.00000000   0.869E+00       0.001       16.128   0.100E-07
     TRS4 it   2 1.00000000   0.613E+00       0.001       32.157   0.100E-07
     TRS4 it   3 1.00000000   0.417E+00       0.001       32.256   0.100E-07
     TRS4 it   4 1.00000000   0.210E+00       0.001       32.256   0.100E-07
     TRS4 it   5 1.00000000   0.663E-01       0.001       32.161   0.100E-07
     TRS4 it   6 1.00000000   0.826E-02       0.001       32.256   0.100E-07
     TRS4 it   7 1.00000000   0.170E-03       0.001       32.256   0.100E-07
     TRS4 it   8 1.00000000   0.100E-06       0.001       32.256   0.100E-07
     TRS4 it   9 1.00000000   0.434E-13       0.001       32.033   0.100E-07
     Final TRS4 iteration    9 1.00000000   0.434E-13
     Chemical potential (mu):       0.01337
 
 PAO| energy:  -7.7963491407546943      penalty:   1.4840835312525277E-005
 PAO|LS| adapt:  T T F
 PAO|LS| adapt: scan_steps:    0.0000000000000000       0.21297917200494501        0.0000000000000000     
 PAO|LS| adapt: energies:   -7.7962301323844274       -7.7963491407546943        0.0000000000000000     
 PAO| ======================= Iteration:        20 =============================

     Lanczos converged:  T threshold:   0.100E-02
     Est. extremal eigenvalues:    0.276E+01   0.182E+00
     Est. condition number :    0.152E+02
     NS sqrt iter    1 1.00000000   0.706E+00       0.002       38.465
     NS sqrt iter    2 1.00000000   0.329E+00       0.002       62.534
     NS sqrt iter    3 1.00000000   0.747E-01       0.002       64.179
     NS sqrt iter    4 1.00000000   0.177E-02       0.002       64.130
     NS sqrt iter    5 1.00000000   0.493E-07       0.002       44.557
     Final NS sqrt iter    5 1.00000000   0.437E-09

     Est. extremal eigenvalues     -0.93664     1.68776  converged:  T
     TRS4 it   1 1.00000000   0.869E+00       0.001       16.128   0.100E-07
     TRS4 it   2 1.00000000   0.613E+00       0.001       32.256   0.100E-07
     TRS4 it   3 1.00000000   0.417E+00       0.001       32.256   0.100E-07
     TRS4 it   4 1.00000000   0.210E+00       0.001       32.256   0.100E-07
     TRS4 it   5 1.00000000   0.662E-01       0.001       28.159   0.100E-07
     TRS4 it   6 1.00000000   0.825E-02       0.001       32.256   0.100E-07
     TRS4 it   7 1.00000000   0.170E-03       0.001       31.648   0.100E-07
     TRS4 it   8 1.00000000   0.102E-06       0.001       32.256   0.100E-07
     TRS4 it   9 1.00000000   0.446E-13       0.001       32.256   0.100E-07
     Final TRS4 iteration    9 1.00000000   0.446E-13
     Chemical potential (mu):       0.01310
 
 PAO| energy:  -7.7963935622924980      penalty:   1.4563118952773868E-005
 PAO|LS| adapt:  T T F
 PAO|LS| adapt: scan_steps:    0.0000000000000000       0.42595834400989002        0.0000000000000000     
 PAO|LS| adapt: energies:   -7.7962301323844274       -7.7963935622924980        0.0000000000000000     
 PAO| ======================= Iteration:        21 =============================

     Lanczos converged:  T threshold:   0.100E-02
     Est. extremal eigenvalues:    0.276E+01   0.182E+00
     Est. condition number :    0.152E+02
     NS sqrt iter    1 1.00000000   0.705E+00       0.002       38.915
     NS sqrt iter    2 1.00000000   0.330E+00       0.002       63.729
     NS sqrt iter    3 1.00000000   0.752E-01       0.002       63.654
     NS sqrt iter    4 1.00000000   0.180E-02       0.002       63.034
     NS sqrt iter    5 1.00000000   0.505E-07       0.002       44.659
     Final NS sqrt iter    5 1.00000000   0.518E-09

     Est. extremal eigenvalues     -0.93663     1.68837  converged:  T
     TRS4 it   1 1.00000000   0.869E+00       0.001       16.128   0.100E-07
     TRS4 it   2 1.00000000   0.613E+00       0.001       32.256   0.100E-07
     TRS4 it   3 1.00000000   0.417E+00       0.001       32.256   0.100E-07
     TRS4 it   4 1.00000000   0.210E+00       0.001       32.256   0.100E-07
     TRS4 it   5 1.00000000   0.660E-01       0.001       32.256   0.100E-07
     TRS4 it   6 1.00000000   0.824E-02       0.001       32.256   0.100E-07
     TRS4 it   7 1.00000000   0.171E-03       0.001       32.256   0.100E-07
     TRS4 it   8 1.00000000   0.105E-06       0.001       32.256   0.100E-07
     TRS4 it   9 1.00000000   0.472E-13       0.001       32.242   0.100E-07
     Final TRS4 iteration    9 1.00000000   0.472E-13
     Chemical potential (mu):       0.01256
 
 PAO| energy:  -7.7962562030462541      penalty:   1.4044730151262366E-005
 PAO|LS| Need extra step
 PAO|LS| adapt:  T T T
 PAO|LS| adapt: scan_steps:    0.0000000000000000       0.42595834400989002       0.85191668801978004     
 PAO|LS| adapt: energies:   -7.7962301323844274       -7.7963935622924980       -7.7962562030462541     
 PAO|LS| adapt: suggested step_size:   0.44441814513577765     
 PAO|LS| adapt: predicted energy  -7.7963938447492440     
 PAO| ======================= Iteration:        22 =============================

     Lanczos converged:  T threshold:   0.100E-02
     Est. extremal eigenvalues:    0.276E+01   0.182E+00
     Est. condition number :    0.152E+02
     NS sqrt iter    1 1.00000000   0.706E+00       0.002       40.004
     NS sqrt iter    2 1.00000000   0.329E+00       0.002       63.922
     NS sqrt iter    3 1.00000000   0.747E-01       0.002       63.440
     NS sqrt iter    4 1.00000000   0.178E-02       0.002       63.881
     NS sqrt iter    5 1.00000000   0.494E-07       0.002       44.178
     Final NS sqrt iter    5 1.00000000   0.438E-09

     Est. extremal eigenvalues     -0.93664     1.68779  converged:  T
     TRS4 it   1 1.00000000   0.869E+00       0.001       16.128   0.100E-07
     TRS4 it   2 1.00000000   0.613E+00       0.001       32.256   0.100E-07
     TRS4 it   3 1.00000000   0.417E+00       0.001       32.256   0.100E-07
     TRS4 it   4 1.00000000   0.210E+00       0.001       32.256   0.100E-07
     TRS4 it   5 1.00000000   0.662E-01       0.001       32.256   0.100E-07
     TRS4 it   6 1.00000000   0.825E-02       0.001       32.256   0.100E-07
     TRS4 it   7 1.00000000   0.170E-03       0.001       32.256   0.100E-07
     TRS4 it   8 1.00000000   0.102E-06       0.001       32.256   0.100E-07
     TRS4 it   9 1.00000000   0.444E-13       0.001       32.256   0.100E-07
     Final TRS4 iteration    9 1.00000000   0.444E-13
     Chemical potential (mu):       0.01308
 
 PAO| energy:  -7.7963938800997177      penalty:   1.4539632837641979E-005
 PAO|CG| trace_G_new    2.2588761385341710E-004
 PAO|CG| trace_G_prev    7.3238601197826714E-004
 PAO|CG| trace_G_mix    3.1130873544421380E-006
 PAO|CG| trace_D    9.9629788854464492E-004
 PAO|CG| trace_D_Gnew  -1.9084231381361420E-006
 PAO|CG| beta:   0.30417638083670229     
 PAO| norm of gradient:   1.5029558005923430E-002
 PAO| energy improvement:  -1.6374771529026333E-004
 PAO| step     22                   -7.796393880  0.939E-03  0.444E+00     0.110
 PAO|LS| adapt:  T F F
 PAO|LS| adapt: scan_steps:    0.0000000000000000        0.0000000000000000        0.0000000000000000     
 PAO|LS| adapt: energies:   -7.7963938800997177        0.0000000000000000        0.0000000000000000     
 PAO| ======================= Iteration:        23 =============================

     Lanczos converged:  T threshold:   0.100E-02
     Est. extremal eigenvalues:    0.276E+01   0.182E+00
     Est. condition number :    0.152E+02
     NS sqrt iter    1 1.00000000   0.705E+00       0.002       40.317
     NS sqrt iter    2 1.00000000   0.329E+00       0.002       63.351
     NS sqrt iter    3 1.00000000   0.748E-01       0.002       63.679
     NS sqrt iter    4 1.00000000   0.178E-02       0.002       63.712
     NS sqrt iter    5 1.00000000   0.495E-07       0.002       44.398
     Final NS sqrt iter    5 1.00000000   0.497E-09

     Est. extremal eigenvalues     -0.93664     1.68759  converged:  T
     TRS4 it   1 1.00000000   0.869E+00       0.001       16.128   0.100E-07
     TRS4 it   2 1.00000000   0.613E+00       0.001       32.256   0.100E-07
     TRS4 it   3 1.00000000   0.417E+00       0.001       32.256   0.100E-07
     TRS4 it   4 1.00000000   0.210E+00       0.001       32.256   0.100E-07
     TRS4 it   5 1.00000000   0.663E-01       0.001       32.256   0.100E-07
     TRS4 it   6 1.00000000   0.829E-02       0.001       32.256   0.100E-07
     TRS4 it   7 1.00000000   0.172E-03       0.001       32.256   0.100E-07
     TRS4 it   8 1.00000000   0.104E-06       0.001       32.256   0.100E-07
     TRS4 it   9 1.00000000   0.466E-13       0.001       32.256   0.100E-07
     Final TRS4 iteration    9 1.00000000   0.466E-13
     Chemical potential (mu):       0.01279
 
 PAO| energy:  -7.7964440776933319      penalty:   1.3855340733710578E-005
 PAO|LS| adapt:  T T F
 PAO|LS| adapt: scan_steps:    0.0000000000000000       0.44441814513577765        0.0000000000000000     
 PAO|LS| adapt: energies:   -7.7963938800997177       -7.7964440776933319        0.0000000000000000     
 PAO| ======================= Iteration:        24 =============================

     Lanczos converged:  T threshold:   0.100E-02
     Est. extremal eigenvalues:    0.276E+01   0.182E+00
     Est. condition number :    0.152E+02
     NS sqrt iter    1 1.00000000   0.705E+00       0.002       41.599
     NS sqrt iter    2 1.00000000   0.330E+00       0.002       63.306
     NS sqrt iter    3 1.00000000   0.748E-01       0.002       65.011
     NS sqrt iter    4 1.00000000   0.178E-02       0.002       65.162
     NS sqrt iter    5 1.00000000   0.495E-07       0.002       46.205
     Final NS sqrt iter    5 1.00000000   0.498E-09

     Est. extremal eigenvalues     -0.93664     1.68740  converged:  T
     TRS4 it   1 1.00000000   0.869E+00       0.001       16.128   0.100E-07
     TRS4 it   2 1.00000000   0.613E+00       0.001       32.256   0.100E-07
     TRS4 it   3 1.00000000   0.417E+00       0.001       32.256   0.100E-07
     TRS4 it   4 1.00000000   0.210E+00       0.001       32.256   0.100E-07
     TRS4 it   5 1.00000000   0.663E-01       0.001       32.256   0.100E-07
     TRS4 it   6 1.00000000   0.832E-02       0.001       32.256   0.100E-07
     TRS4 it   7 1.00000000   0.174E-03       0.001       32.256   0.100E-07
     TRS4 it   8 1.00000000   0.106E-06       0.001       32.256   0.100E-07
     TRS4 it   9 1.00000000   0.490E-13       0.001       32.256   0.100E-07
     Final TRS4 iteration    9 1.00000000   0.490E-13
     Chemical potential (mu):       0.01250
 
 PAO| energy:  -7.7963927144885883      penalty:   1.3199668687004487E-005
 PAO|LS| adapt:  T T T
 PAO|LS| adapt: scan_steps:    0.0000000000000000       0.44441814513577765       0.88883629027155531     
 PAO|LS| adapt: energies:   -7.7963938800997177       -7.7964440776933319       -7.7963927144885883     
 PAO|LS| adapt: suggested step_size:   0.44186785632133901     
 PAO|LS| adapt: predicted energy  -7.7964440793655427     
 PAO| ======================= Iteration:        25 =============================

     Lanczos converged:  T threshold:   0.100E-02
     Est. extremal eigenvalues:    0.276E+01   0.182E+00
     Est. condition number :    0.152E+02
     NS sqrt iter    1 1.00000000   0.705E+00       0.002       41.906
     NS sqrt iter    2 1.00000000   0.329E+00       0.002       65.046
     NS sqrt iter    3 1.00000000   0.748E-01       0.002       66.131
     NS sqrt iter    4 1.00000000   0.178E-02       0.002       64.452
     NS sqrt iter    5 1.00000000   0.495E-07       0.002       46.457
     Final NS sqrt iter    5 1.00000000   0.497E-09

     Est. extremal eigenvalues     -0.93664     1.68760  converged:  T
     TRS4 it   1 1.00000000   0.869E+00       0.001       16.128   0.100E-07
     TRS4 it   2 1.00000000   0.613E+00       0.001       32.256   0.100E-07
     TRS4 it   3 1.00000000   0.417E+00       0.001       32.256   0.100E-07
     TRS4 it   4 1.00000000   0.210E+00       0.001       32.256   0.100E-07
     TRS4 it   5 1.00000000   0.663E-01       0.001       32.256   0.100E-07
     TRS4 it   6 1.00000000   0.829E-02       0.001       32.256   0.100E-07
     TRS4 it   7 1.00000000   0.172E-03       0.001       32.256   0.100E-07
     TRS4 it   8 1.00000000   0.104E-06       0.001       32.256   0.100E-07
     TRS4 it   9 1.00000000   0.466E-13       0.001       32.256   0.100E-07
     Final TRS4 iteration    9 1.00000000   0.466E-13
     Chemical potential (mu):       0.01279
 
 PAO| energy:  -7.7964440784274656      penalty:   1.3859185301673296E-005
 PAO|CG| trace_G_new    8.1922228079193437E-005
 PAO|CG| trace_G_prev    2.2588761385341710E-004
 PAO|CG| trace_G_mix    7.4201454534457002E-007
 PAO|CG| trace_D    3.1922934753866481E-004
 PAO|CG| trace_D_Gnew  -3.6781495999632065E-007
 PAO|CG| beta:   0.35938320011883562     
 PAO| norm of gradient:   9.0510898834998566E-003
 PAO| energy improvement:  -5.0198327747885685E-005
 PAO| step     25                   -7.796444078  0.566E-03  0.442E+00     0.081
 PAO|LS| adapt:  T F F
 PAO|LS| adapt: scan_steps:    0.0000000000000000        0.0000000000000000        0.0000000000000000     
 PAO|LS| adapt: energies:   -7.7964440784274656        0.0000000000000000        0.0000000000000000     
 PAO| ======================= Iteration:        26 =============================

     Lanczos converged:  T threshold:   0.100E-02
     Est. extremal eigenvalues:    0.276E+01   0.182E+00
     Est. condition number :    0.152E+02
     NS sqrt iter    1 1.00000000   0.705E+00       0.002       41.341
     NS sqrt iter    2 1.00000000   0.329E+00       0.002       63.956
     NS sqrt iter    3 1.00000000   0.747E-01       0.002       65.292
     NS sqrt iter    4 1.00000000   0.177E-02       0.002       65.094
     NS sqrt iter    5 1.00000000   0.491E-07       0.002       46.070
     Final NS sqrt iter    5 1.00000000   0.446E-09

     Est. extremal eigenvalues     -0.93664     1.68725  converged:  T
     TRS4 it   1 1.00000000   0.869E+00       0.001       16.128   0.100E-07
     TRS4 it   2 1.00000000   0.613E+00       0.001       32.256   0.100E-07
     TRS4 it   3 1.00000000   0.417E+00       0.001       32.256   0.100E-07
     TRS4 it   4 1.00000000   0.210E+00       0.001       32.256   0.100E-07
     TRS4 it   5 1.00000000   0.662E-01       0.001       32.256   0.100E-07
     TRS4 it   6 1.00000000   0.826E-02       0.001       32.256   0.100E-07
     TRS4 it   7 1.00000000   0.171E-03       0.001       32.256   0.100E-07
     TRS4 it   8 1.00000000   0.102E-06       0.001       32.256   0.100E-07
     TRS4 it   9 1.00000000   0.449E-13       0.001       32.256   0.100E-07
     Final TRS4 iteration    9 1.00000000   0.449E-13
     Chemical potential (mu):       0.01294
 
 PAO| energy:  -7.7964485410042581      penalty:   1.3132518748109524E-005
 PAO|LS| adapt:  T T F
 PAO|LS| adapt: scan_steps:    0.0000000000000000       0.44186785632133901        0.0000000000000000     
 PAO|LS| adapt: energies:   -7.7964440784274656       -7.7964485410042581        0.0000000000000000     
 PAO| ======================= Iteration:        27 =============================

     Lanczos converged:  T threshold:   0.100E-02
     Est. extremal eigenvalues:    0.276E+01   0.182E+00
     Est. condition number :    0.151E+02
     NS sqrt iter    1 1.00000000   0.705E+00       0.002       40.614
     NS sqrt iter    2 1.00000000   0.329E+00       0.002       64.180
     NS sqrt iter    3 1.00000000   0.746E-01       0.002       65.224
     NS sqrt iter    4 1.00000000   0.177E-02       0.002       65.020
     NS sqrt iter    5 1.00000000   0.488E-07       0.002       45.228
     Final NS sqrt iter    5 1.00000000   0.445E-09

     Est. extremal eigenvalues     -0.93664     1.68690  converged:  T
     TRS4 it   1 1.00000000   0.869E+00       0.001       16.128   0.100E-07
     TRS4 it   2 1.00000000   0.613E+00       0.001       32.256   0.100E-07
     TRS4 it   3 1.00000000   0.417E+00       0.001       32.256   0.100E-07
     TRS4 it   4 1.00000000   0.210E+00       0.001       32.256   0.100E-07
     TRS4 it   5 1.00000000   0.661E-01       0.001       32.256   0.100E-07
     TRS4 it   6 1.00000000   0.824E-02       0.001       32.256   0.100E-07
     TRS4 it   7 1.00000000   0.170E-03       0.001       32.256   0.100E-07
     TRS4 it   8 1.00000000   0.101E-06       0.001       32.256   0.100E-07
     TRS4 it   9 1.00000000   0.440E-13       0.001       32.256   0.100E-07
     Final TRS4 iteration    9 1.00000000   0.440E-13
     Chemical potential (mu):       0.01308
 
 PAO| energy:  -7.7963893081529179      penalty:   1.2429878726241442E-005
 PAO|LS| adapt:  T T T
 PAO|LS| adapt: scan_steps:    0.0000000000000000       0.44186785632133901       0.88373571264267803     
 PAO|LS| adapt: energies:   -7.7964440784274656       -7.7964485410042581       -7.7963893081529179     
 PAO|LS| adapt: suggested step_size:   0.25189171114124442     
 PAO|LS| adapt: predicted energy  -7.7964544279710744     
 PAO| ======================= Iteration:        28 =============================

     Lanczos converged:  T threshold:   0.100E-02
     Est. extremal eigenvalues:    0.276E+01   0.182E+00
     Est. condition number :    0.152E+02
     NS sqrt iter    1 1.00000000   0.705E+00       0.002       41.166
     NS sqrt iter    2 1.00000000   0.329E+00       0.002       64.453
     NS sqrt iter    3 1.00000000   0.747E-01       0.002       65.520
     NS sqrt iter    4 1.00000000   0.177E-02       0.002       65.500
     NS sqrt iter    5 1.00000000   0.493E-07       0.002       46.025
     Final NS sqrt iter    5 1.00000000   0.447E-09

     Est. extremal eigenvalues     -0.93664     1.68740  converged:  T
     TRS4 it   1 1.00000000   0.869E+00       0.001       16.128   0.100E-07
     TRS4 it   2 1.00000000   0.613E+00       0.001       32.256   0.100E-07
     TRS4 it   3 1.00000000   0.417E+00       0.001       32.256   0.100E-07
     TRS4 it   4 1.00000000   0.210E+00       0.001       32.256   0.100E-07
     TRS4 it   5 1.00000000   0.662E-01       0.001       32.256   0.100E-07
     TRS4 it   6 1.00000000   0.827E-02       0.001       32.256   0.100E-07
     TRS4 it   7 1.00000000   0.171E-03       0.001       32.256   0.100E-07
     TRS4 it   8 1.00000000   0.103E-06       0.001       32.256   0.100E-07
     TRS4 it   9 1.00000000   0.459E-13       0.001       32.256   0.100E-07
     Final TRS4 iteration    9 1.00000000   0.459E-13
     Chemical potential (mu):       0.01287
 
 PAO| energy:  -7.7964544179527007      penalty:   1.3441976877482088E-005
 PAO|CG| trace_G_new    3.3197806257151612E-005
 PAO|CG| trace_G_prev    8.1922228079193437E-005
 PAO|CG| trace_G_mix    6.1186023910978171E-008
 PAO|CG| trace_D    1.2341707755422502E-004
 PAO|CG| trace_D_Gnew  -3.0318193632652911E-008
 PAO|CG| beta:   0.40448875732734935     
 PAO| norm of gradient:   5.7617537483956750E-003
 PAO| energy improvement:  -1.0339525235103508E-005
 PAO| step     28                   -7.796454418  0.360E-03  0.252E+00     0.081
 PAO|LS| adapt:  T F F
 PAO|LS| adapt: scan_steps:    0.0000000000000000        0.0000000000000000        0.0000000000000000     
 PAO|LS| adapt: energies:   -7.7964544179527007        0.0000000000000000        0.0000000000000000     
 PAO| ======================= Iteration:        29 =============================

     Lanczos converged:  T threshold:   0.100E-02
     Est. extremal eigenvalues:    0.276E+01   0.182E+00
     Est. condition number :    0.152E+02
     NS sqrt iter    1 1.00000000   0.705E+00       0.002       41.814
     NS sqrt iter    2 1.00000000   0.329E+00       0.002       65.000
     NS sqrt iter    3 1.00000000   0.746E-01       0.002       65.032
     NS sqrt iter    4 1.00000000   0.177E-02       0.002       65.224
     NS sqrt iter    5 1.00000000   0.492E-07       0.002       45.734
     Final NS sqrt iter    5 1.00000000   0.447E-09

     Est. extremal eigenvalues     -0.93664     1.68732  converged:  T
     TRS4 it   1 1.00000000   0.869E+00       0.001       16.128   0.100E-07
     TRS4 it   2 1.00000000   0.613E+00       0.001       32.256   0.100E-07
     TRS4 it   3 1.00000000   0.417E+00       0.001       32.256   0.100E-07
     TRS4 it   4 1.00000000   0.210E+00       0.001       32.256   0.100E-07
     TRS4 it   5 1.00000000   0.661E-01       0.001       32.256   0.100E-07
     TRS4 it   6 1.00000000   0.825E-02       0.001       32.256   0.100E-07
     TRS4 it   7 1.00000000   0.170E-03       0.001       32.256   0.100E-07
     TRS4 it   8 1.00000000   0.102E-06       0.001       32.256   0.100E-07
     TRS4 it   9 1.00000000   0.443E-13       0.001       32.256   0.100E-07
     Final TRS4 iteration    9 1.00000000   0.443E-13
     Chemical potential (mu):       0.01302
 
 PAO| energy:  -7.7964617823143296      penalty:   1.3002893935475965E-005
 PAO|LS| adapt:  T T F
 PAO|LS| adapt: scan_steps:    0.0000000000000000       0.25189171114124442        0.0000000000000000     
 PAO|LS| adapt: energies:   -7.7964544179527007       -7.7964617823143296        0.0000000000000000     
 PAO| ======================= Iteration:        30 =============================

     Lanczos converged:  T threshold:   0.100E-02
     Est. extremal eigenvalues:    0.276E+01   0.182E+00
     Est. condition number :    0.152E+02
     NS sqrt iter    1 1.00000000   0.705E+00       0.002       41.502
     NS sqrt iter    2 1.00000000   0.329E+00       0.002       64.803
     NS sqrt iter    3 1.00000000   0.746E-01       0.002       65.169
     NS sqrt iter    4 1.00000000   0.177E-02       0.002       65.819
     NS sqrt iter    5 1.00000000   0.491E-07       0.002       46.135
     Final NS sqrt iter    5 1.00000000   0.446E-09

     Est. extremal eigenvalues     -0.93664     1.68724  converged:  T
     TRS4 it   1 1.00000000   0.869E+00       0.001       16.128   0.100E-07
     TRS4 it   2 1.00000000   0.613E+00       0.001       32.256   0.100E-07
     TRS4 it   3 1.00000000   0.417E+00       0.001       32.256   0.100E-07
     TRS4 it   4 1.00000000   0.210E+00       0.001       32.256   0.100E-07
     TRS4 it   5 1.00000000   0.660E-01       0.001       32.256   0.100E-07
     TRS4 it   6 1.00000000   0.823E-02       0.001       32.256   0.100E-07
     TRS4 it   7 1.00000000   0.169E-03       0.001       32.256   0.100E-07
     TRS4 it   8 1.00000000   0.100E-06       0.001       32.256   0.100E-07
     TRS4 it   9 1.00000000   0.434E-13       0.001       32.256   0.100E-07
     Final TRS4 iteration    9 1.00000000   0.434E-13
     Chemical potential (mu):       0.01317
 
 PAO| energy:  -7.7964671450852325      penalty:   1.2571984587322461E-005
 PAO|LS| adapt:  T T F
 PAO|LS| adapt: scan_steps:    0.0000000000000000       0.50378342228248885        0.0000000000000000     
 PAO|LS| adapt: energies:   -7.7964544179527007       -7.7964671450852325        0.0000000000000000     
 PAO| ======================= Iteration:        31 =============================

     Lanczos converged:  T threshold:   0.100E-02
     Est. extremal eigenvalues:    0.276E+01   0.182E+00
     Est. condition number :    0.152E+02
     NS sqrt iter    1 1.00000000   0.704E+00       0.002       41.219
     NS sqrt iter    2 1.00000000   0.329E+00       0.002       64.864
     NS sqrt iter    3 1.00000000   0.744E-01       0.002       65.159
     NS sqrt iter    4 1.00000000   0.176E-02       0.002       65.847
     NS sqrt iter    5 1.00000000   0.490E-07       0.002       46.125
     Final NS sqrt iter    5 1.00000000   0.446E-09

     Est. extremal eigenvalues     -0.93665     1.68708  converged:  T
     TRS4 it   1 1.00000000   0.869E+00       0.001       16.128   0.100E-07
     TRS4 it   2 1.00000000   0.613E+00       0.001       32.256   0.100E-07
     TRS4 it   3 1.00000000   0.417E+00       0.001       32.256   0.100E-07
     TRS4 it   4 1.00000000   0.209E+00       0.001       32.256   0.100E-07
     TRS4 it   5 1.00000000   0.658E-01       0.001       32.256   0.100E-07
     TRS4 it   6 1.00000000   0.818E-02       0.001       32.256   0.100E-07
     TRS4 it   7 1.00000000   0.167E-03       0.001       32.256   0.100E-07
     TRS4 it   8 1.00000000   0.974E-07       0.001       32.256   0.100E-07
     TRS4 it   9 1.00000000   0.403E-13       0.001       32.256   0.100E-07
     Final TRS4 iteration    9 1.00000000   0.403E-13
     Chemical potential (mu):       0.01347
 
 PAO| energy:  -7.7964718680532288      penalty:   1.1734510173882210E-005
 PAO|LS| Need extra step
 PAO|LS| adapt:  T T F
 PAO|LS| adapt: scan_steps:    0.0000000000000000        1.0075668445649777        0.0000000000000000     
 PAO|LS| adapt: energies:   -7.7964544179527007       -7.7964718680532288        0.0000000000000000     
 PAO| ======================= Iteration:        32 =============================

     Lanczos converged:  T threshold:   0.100E-02
     Est. extremal eigenvalues:    0.276E+01   0.182E+00
     Est. condition number :    0.151E+02
     NS sqrt iter    1 1.00000000   0.704E+00       0.002       41.763
     NS sqrt iter    2 1.00000000   0.328E+00       0.002       65.020
     NS sqrt iter    3 1.00000000   0.742E-01       0.002       65.151
     NS sqrt iter    4 1.00000000   0.176E-02       0.002       65.522
     NS sqrt iter    5 1.00000000   0.488E-07       0.002       45.633
     Final NS sqrt iter    5 1.00000000   0.449E-09

     Est. extremal eigenvalues     -0.93665     1.68673  converged:  T
     TRS4 it   1 1.00000000   0.870E+00       0.001       16.128   0.100E-07
     TRS4 it   2 1.00000000   0.613E+00       0.001       32.256   0.100E-07
     TRS4 it   3 1.00000000   0.416E+00       0.001       32.256   0.100E-07
     TRS4 it   4 1.00000000   0.209E+00       0.001       32.256   0.100E-07
     TRS4 it   5 1.00000000   0.655E-01       0.001       32.256   0.100E-07
     TRS4 it   6 1.00000000   0.809E-02       0.001       32.256   0.100E-07
     TRS4 it   7 1.00000000   0.163E-03       0.001       32.256   0.100E-07
     TRS4 it   8 1.00000000   0.920E-07       0.001       32.256   0.100E-07
     TRS4 it   9 1.00000000   0.369E-13       0.001       32.256   0.100E-07
     Final TRS4 iteration    9 1.00000000   0.369E-13
     Chemical potential (mu):       0.01406
 
 PAO| energy:  -7.7964573116684619      penalty:   1.0155715212742627E-005
 PAO|LS| Need extra step
 PAO|LS| adapt:  T T T
 PAO|LS| adapt: scan_steps:    0.0000000000000000        1.0075668445649777        2.0151336891299554     
 PAO|LS| adapt: energies:   -7.7964544179527007       -7.7964718680532288       -7.7964573116684619     
 PAO|LS| adapt: suggested step_size:    1.0531140521346236     
 PAO|LS| adapt: predicted energy  -7.7964719007559404     
 PAO| ======================= Iteration:        33 =============================

     Lanczos converged:  T threshold:   0.100E-02
     Est. extremal eigenvalues:    0.276E+01   0.182E+00
     Est. condition number :    0.152E+02
     NS sqrt iter    1 1.00000000   0.704E+00       0.002       40.577
     NS sqrt iter    2 1.00000000   0.329E+00       0.002       63.364
     NS sqrt iter    3 1.00000000   0.744E-01       0.002       63.720
     NS sqrt iter    4 1.00000000   0.176E-02       0.002       64.237
     NS sqrt iter    5 1.00000000   0.490E-07       0.002       44.435
     Final NS sqrt iter    5 1.00000000   0.446E-09

     Est. extremal eigenvalues     -0.93665     1.68706  converged:  T
     TRS4 it   1 1.00000000   0.869E+00       0.001       16.128   0.100E-07
     TRS4 it   2 1.00000000   0.613E+00       0.001       32.256   0.100E-07
     TRS4 it   3 1.00000000   0.417E+00       0.001       32.256   0.100E-07
     TRS4 it   4 1.00000000   0.209E+00       0.001       32.256   0.100E-07
     TRS4 it   5 1.00000000   0.658E-01       0.001       32.256   0.100E-07
     TRS4 it   6 1.00000000   0.817E-02       0.001       32.256   0.100E-07
     TRS4 it   7 1.00000000   0.167E-03       0.001       32.256   0.100E-07
[...]
     NS sqrt iter    3 1.00000000   0.493E-01       0.002       69.141
     NS sqrt iter    4 1.00000000   0.793E-03       0.002       68.558
     NS sqrt iter    5 1.00000000   0.656E-08       0.001       29.376
     Final NS sqrt iter    5 1.00000000   0.386E-09

     Est. extremal eigenvalues     -0.93633     1.63162  converged:  T
     TRS4 it   1 1.00000000   0.878E+00       0.001       16.128   0.100E-07
     TRS4 it   2 1.00000000   0.632E+00       0.001       32.256   0.100E-07
     TRS4 it   3 1.00000000   0.455E+00       0.001       28.411   0.100E-07
     TRS4 it   4 1.00000000   0.277E+00       0.001       32.256   0.100E-07
     TRS4 it   5 1.00000000   0.137E+00       0.001       32.256   0.100E-07
     TRS4 it   6 1.00000000   0.425E-01       0.001       32.256   0.100E-07
     TRS4 it   7 1.00000000   0.572E-02       0.001       32.256   0.100E-07
     TRS4 it   8 1.00000000   0.138E-03       0.001       32.256   0.100E-07
     TRS4 it   9 1.00000000   0.857E-07       0.001       30.055   0.100E-07
     TRS4 it  10 1.00000000   0.337E-13       0.001       32.256   0.100E-07
     Final TRS4 iteration   10 1.00000000   0.337E-13
     Chemical potential (mu):      -0.07444
 
 PAO| energy:  -7.7957529295865013      penalty:   3.5021368211479296E-008
 PAO|LS| Need extra step
 PAO|LS| adapt:  T T T
 PAO|LS| adapt: scan_steps:    0.0000000000000000       0.20000000000000001       0.40000000000000002     
 PAO|LS| adapt: energies:   -7.7957529256169380       -7.7957529308839559       -7.7957529295865013     
 PAO|LS| adapt: suggested step_size:   0.26047040842848251     
 PAO|LS| adapt: predicted energy  -7.7957529311840075     
 PAO| ======================= Iteration:       410 =============================

     Lanczos converged:  T threshold:   0.100E-02
     Est. extremal eigenvalues:    0.251E+01   0.190E+00
     Est. condition number :    0.132E+02
     NS sqrt iter    1 1.00000000   0.637E+00       0.002       40.590
     NS sqrt iter    2 1.00000000   0.277E+00       0.002       67.284
     NS sqrt iter    3 1.00000000   0.493E-01       0.002       47.713
     NS sqrt iter    4 1.00000000   0.793E-03       0.002       65.931
     NS sqrt iter    5 1.00000000   0.656E-08       0.001       28.256
     Final NS sqrt iter    5 1.00000000   0.386E-09

     Est. extremal eigenvalues     -0.93633     1.63162  converged:  T
     TRS4 it   1 1.00000000   0.878E+00       0.001       16.128   0.100E-07
     TRS4 it   2 1.00000000   0.632E+00       0.001       32.256   0.100E-07
     TRS4 it   3 1.00000000   0.455E+00       0.001       32.256   0.100E-07
     TRS4 it   4 1.00000000   0.277E+00       0.001       32.256   0.100E-07
     TRS4 it   5 1.00000000   0.137E+00       0.001       32.256   0.100E-07
     TRS4 it   6 1.00000000   0.425E-01       0.001       32.256   0.100E-07
     TRS4 it   7 1.00000000   0.572E-02       0.001       32.256   0.100E-07
     TRS4 it   8 1.00000000   0.138E-03       0.001       32.256   0.100E-07
     TRS4 it   9 1.00000000   0.857E-07       0.001       32.256   0.100E-07
     TRS4 it  10 1.00000000   0.326E-13       0.001       32.256   0.100E-07
     Final TRS4 iteration   10 1.00000000   0.326E-13
     Chemical potential (mu):      -0.07444
 
 PAO| energy:  -7.7957529311840146      penalty:   3.5419458056089266E-008
 PAO|CG| warming up with steepest descent
 PAO|CG| beta:    0.0000000000000000     
 PAO| norm of gradient:   1.2996100090535958E-004
 PAO| energy improvement:  -5.5670765775062137E-009
 PAO| step    410                   -7.795752931  0.812E-05  0.260E+00     0.107
 PAO| converged after          410  steps :-)
 PAO| Recalculating energy after mixing.

     Lanczos converged:  T threshold:   0.100E-02
     Est. extremal eigenvalues:    0.251E+01   0.190E+00
     Est. condition number :    0.132E+02
     NS sqrt iter    1 1.00000000   0.637E+00       0.001       43.301
     NS sqrt iter    2 1.00000000   0.277E+00       0.002       68.135
     NS sqrt iter    3 1.00000000   0.493E-01       0.002       69.622
     NS sqrt iter    4 1.00000000   0.793E-03       0.002       66.392
     NS sqrt iter    5 1.00000000   0.656E-08       0.001       27.662
     Final NS sqrt iter    5 1.00000000   0.386E-09

     Est. extremal eigenvalues     -0.93633     1.63162  converged:  T
     TRS4 it   1 1.00000000   0.878E+00       0.001       16.128   0.100E-07
     TRS4 it   2 1.00000000   0.632E+00       0.001       32.256   0.100E-07
     TRS4 it   3 1.00000000   0.455E+00       0.001       32.256   0.100E-07
     TRS4 it   4 1.00000000   0.277E+00       0.001       32.256   0.100E-07
     TRS4 it   5 1.00000000   0.137E+00       0.001       32.256   0.100E-07
     TRS4 it   6 1.00000000   0.425E-01       0.001       32.256   0.100E-07
     TRS4 it   7 1.00000000   0.572E-02       0.001       32.256   0.100E-07
     TRS4 it   8 1.00000000   0.138E-03       0.001       32.256   0.100E-07
     TRS4 it   9 1.00000000   0.857E-07       0.001       32.256   0.100E-07
     TRS4 it  10 1.00000000   0.328E-13       0.001       32.256   0.100E-07
     Final TRS4 iteration   10 1.00000000   0.328E-13
     Chemical potential (mu):      -0.07444
 
 PAO| energy:  -7.7957529297922354      penalty:   3.5793054330255776E-008
 PAO| Writing restart file.
     Est. extremal eigenvalues     -0.93633     1.63162  converged:  T
     TRS4 it   1 1.00000000   0.878E+00       0.001       16.128   0.100E-07
     TRS4 it   2 1.00000000   0.632E+00       0.001       32.256   0.100E-07
     TRS4 it   3 1.00000000   0.455E+00       0.001       32.256   0.100E-07
     TRS4 it   4 1.00000000   0.277E+00       0.001       32.256   0.100E-07
     TRS4 it   5 1.00000000   0.137E+00       0.001       32.256   0.100E-07
     TRS4 it   6 1.00000000   0.425E-01       0.001       32.256   0.100E-07
     TRS4 it   7 1.00000000   0.572E-02       0.001       32.256   0.100E-07
     TRS4 it   8 1.00000000   0.138E-03       0.001       32.256   0.100E-07
     TRS4 it   9 1.00000000   0.857E-07       0.001       32.256   0.100E-07
     TRS4 it  10 1.00000000   0.328E-13       0.001       32.256   0.100E-07
     Final TRS4 iteration   10 1.00000000   0.328E-13
     Chemical potential (mu):      -0.07444

 SCF     1       -34.450107209       -34.450107209    2.371951

*********************************************************
 Using MIXING_FRACTION=0.450 to mix KS matrix:  iscf=  2
 KS_nw=0.450*KS + 0.550*KS_old
*********************************************************
     Est. extremal eigenvalues     -0.93634     1.63162  converged:  T
     TRS4 it   1 1.00000000   0.878E+00       0.001       16.128   0.100E-07
     TRS4 it   2 1.00000000   0.632E+00       0.001       23.082   0.100E-07
     TRS4 it   3 1.00000000   0.455E+00       0.001       32.256   0.100E-07
     TRS4 it   4 1.00000000   0.277E+00       0.001       32.256   0.100E-07
     TRS4 it   5 1.00000000   0.137E+00       0.001       26.610   0.100E-07
     TRS4 it   6 1.00000000   0.425E-01       0.001       28.737   0.100E-07
     TRS4 it   7 1.00000000   0.572E-02       0.002       17.677   0.100E-07
     TRS4 it   8 1.00000000   0.138E-03       0.002       19.102   0.100E-07
     TRS4 it   9 1.00000000   0.858E-07       0.001       30.936   0.100E-07
     TRS4 it  10 1.00000000   0.336E-13       0.001       30.281   0.100E-07
     Final TRS4 iteration   10 1.00000000   0.336E-13
     Chemical potential (mu):      -0.07444

 SCF     2       -34.450107209        -0.000000000    2.554665

 PAO| Storing density matrix for ASPC guess in slot:           1

 ENERGY| Total FORCE_EVAL ( QS ) energy (a.u.):              -34.450107208906530


 -------------------------------------------------------------------------------
 -                                                                             -
 -                                DBCSR STATISTICS                             -
 -                                                                             -
 -------------------------------------------------------------------------------
 COUNTER                                    TOTAL       BLAS       SMM       ACC
 flops     5 x     5 x     4                20000     100.0%      0.0%      0.0%
 flops    13 x     5 x     4                20800     100.0%      0.0%      0.0%
 flops     5 x    13 x     4                20800     100.0%      0.0%      0.0%
 flops    13 x    13 x     4                40560     100.0%      0.0%      0.0%
 flops     4 x     4 x     5              3221760     100.0%      0.0%      0.0%
 flops     5 x     4 x     5              3942400     100.0%      0.0%      0.0%
 flops     4 x     4 x    13              4188288     100.0%      0.0%      0.0%
 flops    13 x     4 x     5              5125120     100.0%      0.0%      0.0%
 flops     5 x     4 x    13              5125120     100.0%      0.0%      0.0%
 flops     5 x     4 x     4              6353120     100.0%      0.0%      0.0%
 flops    13 x     4 x    13              6662656     100.0%      0.0%      0.0%
 flops    13 x     4 x     4              8462688     100.0%      0.0%      0.0%
 flops     4 x     4 x     4            414884736     100.0%      0.0%      0.0%
 flops inhomo. stacks                           0       0.0%      0.0%      0.0%
 flops total                       458.068048E+06     100.0%      0.0%      0.0%
 flops max/rank                    458.068048E+06     100.0%      0.0%      0.0%
 matmuls inhomo. stacks                         0       0.0%      0.0%      0.0%
 matmuls total                            3376103     100.0%      0.0%      0.0%
 number of processed stacks                 26928     100.0%      0.0%      0.0%
 average stack size                                   125.4       0.0       0.0
 marketing flops                   744.674688E+06
 -------------------------------------------------------------------------------
 # multiplications                          22475
 max memory usage/rank             328.261632E+06
 # max total images/rank                        1
 # max 3D layers                                1
 # MPI messages exchanged                       0
 MPI messages size (bytes):
  total size                         0.000000E+00
  min size                           0.000000E+00
  max size                           0.000000E+00
  average size                       0.000000E+00
 MPI breakdown and total messages size (bytes):
             size <=      128                   0                        0
       128 < size <=     8192                   0                        0
      8192 < size <=    32768                   0                        0
     32768 < size <=   131072                   0                        0
    131072 < size <=  4194304                   0                        0
   4194304 < size <= 16777216                   0                        0
  16777216 < size                               0                        0
 -------------------------------------------------------------------------------

 MEMORY| Estimated peak process memory [MiB]                                 314

 -------------------------------------------------------------------------------
 -                                                                             -
 -                           R E F E R E N C E S                               -
 -                                                                             -
 -------------------------------------------------------------------------------
 
 CP2K version 7.0 (Development Version), the CP2K developers group (2018).
 CP2K is freely available from https://www.cp2k.org/ .

 Schuett, O; VandeVondele, J. 
 Journal of Chemical Theory and Computation, 14, (2018). 
 Machine Learning Adaptive Basis Sets for Efficient Large Scale Density Functional Theory Simulation.
 https://dx.doi.org/10.1021/acs.jctc.8b00378


 Schuett, Ole; Messmer, Peter; Hutter, Juerg; VandeVondele, Joost. 
 Electronic Structure Calculations on Graphics Processing Units, John Wiley & Sons, Ltd, 173-190 (2016). 
 GPU-Accelerated Sparse Matrix-Matrix Multiplication for Linear Scaling Density Functional Theory.
 https://dx.doi.org/10.1002/9781118670712.ch8


 Borstnik, U; VandeVondele, J; Weber, V; Hutter, J. 
 PARALLEL COMPUTING, 40 (5-6), 47-58 (2014). 
 Sparse matrix multiplication: The distributed block-compressed sparse
 row library.
 https://dx.doi.org/10.1016/j.parco.2014.03.012


 Hutter, J; Iannuzzi, M; Schiffmann, F; VandeVondele, J. 
 WILEY INTERDISCIPLINARY REVIEWS-COMPUTATIONAL MOLECULAR SCIENCE, 4 (1), 15-25 (2014). 
 CP2K: atomistic simulations of condensed matter systems.
 https://dx.doi.org/10.1002/wcms.1159


 VandeVondele, J; Borstnik, U; Hutter, J. 
 JOURNAL OF CHEMICAL THEORY AND COMPUTATION, 8 (10), 3565-3573 (2012). 
 Linear Scaling Self-Consistent Field Calculations with Millions of Atoms
 in the Condensed Phase.
 https://dx.doi.org/10.1021/ct200897x


 VandeVondele, J; Hutter, J. 
 JOURNAL OF CHEMICAL PHYSICS, 127 (11), 114105 (2007). 
 Gaussian basis sets for accurate calculations on molecular systems in
 gas and condensed phases.
 https://dx.doi.org/10.1063/1.2770708


 Krack, M. 
 THEORETICAL CHEMISTRY ACCOUNTS, 114 (1-3), 145-152 (2005). 
 Pseudopotentials for H to Kr optimized for gradient-corrected
 exchange-correlation functionals.
 https://dx.doi.org/10.1007/s00214-005-0655-y


 VandeVondele, J; Krack, M; Mohamed, F; Parrinello, M; Chassaing, T;
 Hutter, J. COMPUTER PHYSICS COMMUNICATIONS, 167 (2), 103-128 (2005). 
 QUICKSTEP: Fast and accurate density functional calculations using a
 mixed Gaussian and plane waves approach.
 https://dx.doi.org/10.1016/j.cpc.2004.12.014


 Frigo, M; Johnson, SG. 
 PROCEEDINGS OF THE IEEE, 93 (2), 216-231 (2005). 
 The design and implementation of FFTW3.
 https://dx.doi.org/10.1109/JPROC.2004.840301


 Niklasson, AMN; Tymczak, CJ; Challacombe, M. 
 JOURNAL OF CHEMICAL PHYSICS, 118 (19), 8611-8620 (2003). 
 Trace resetting density matrix purification in O(N)
 self-consistent-field theory.
 https://dx.doi.org/10.1063/1.1559913


 Hartwigsen, C; Goedecker, S; Hutter, J. 
 PHYSICAL REVIEW B, 58 (7), 3641-3662 (1998). 
 Relativistic separable dual-space Gaussian pseudopotentials from H to Rn.
 https://dx.doi.org/10.1103/PhysRevB.58.3641


 Lippert, G; Hutter, J; Parrinello, M. 
 MOLECULAR PHYSICS, 92 (3), 477-487 (1997). 
 A hybrid Gaussian and plane wave density functional scheme.
 https://dx.doi.org/10.1080/002689797170220


 Perdew, JP; Burke, K; Ernzerhof, M. 
 PHYSICAL REVIEW LETTERS, 77 (18), 3865-3868 (1996). 
 Generalized gradient approximation made simple.
 https://dx.doi.org/10.1103/PhysRevLett.77.3865


 Goedecker, S; Teter, M; Hutter, J. 
 PHYSICAL REVIEW B, 54 (3), 1703-1710 (1996). 
 Separable dual-space Gaussian pseudopotentials.
 https://dx.doi.org/10.1103/PhysRevB.54.1703


 -------------------------------------------------------------------------------
 -                                                                             -
 -                                T I M I N G                                  -
 -                                                                             -
 -------------------------------------------------------------------------------
 SUBROUTINE                       CALLS  ASD         SELF TIME        TOTAL TIME
                                MAXIMUM       AVERAGE  MAXIMUM  AVERAGE  MAXIMUM
 CP2K                                 1  1.0    0.017    0.017   35.645   35.645
 qs_energies                          1  2.0    0.000    0.000   35.058   35.058
 ls_scf                               1  3.0    0.000    0.000   34.922   34.922
 ls_scf_main                          4  4.0    0.001    0.001   21.149   21.149
 ls_scf_dm_to_ks                      9  5.0    0.000    0.000   21.023   21.023
 qs_ks_update_qs_env                 10  6.0    0.000    0.000   16.456   16.456
 rebuild_ks_matrix                   10  7.0    0.000    0.000   16.456   16.456
 qs_ks_build_kohn_sham_matrix        10  8.0    0.001    0.001   16.456   16.456
 pao_update                           4  4.0    0.011    0.011   11.363   11.363
 pao_calc_energy                    413  5.0    0.005    0.005   10.223   10.223
 qs_vxc_create                       10  9.0    0.000    0.000    9.850    9.850
 xc_vxc_pw_create                    10 10.0    0.124    0.124    9.849    9.849
 dbcsr_multiply_generic           22475  8.4    0.547    0.547    8.791    8.791
 xc_rho_set_and_dset_create          10 11.0    0.035    0.035    7.231    7.231
 qs_rho_update_rho                   10  6.0    0.000    0.000    6.900    6.900
 calculate_rho_elec                  10  7.0    5.553    5.553    6.900    6.900
 pw_transfer                        191 10.6    0.013    0.013    6.665    6.665
 fft_wrap_pw1pw2                    171 11.7    0.002    0.002    6.579    6.579
 fft_wrap_pw1pw2_200                111 12.8    0.335    0.335    6.295    6.295
 sum_up_and_integrate                10  9.0    0.021    0.021    5.670    5.670
 integrate_v_rspace                  10 10.0    4.789    4.789    5.649    5.649
 pao_dm_trs4                        413  6.0    0.004    0.004    5.265    5.265
 xc_functional_eval                  10 12.0    0.000    0.000    5.138    5.138
 pbe_lda_eval                        10 13.0    5.138    5.138    5.138    5.138
 density_matrix_trs4                422  7.0    0.186    0.186    5.087    5.087
 ls_scf_init_matrix_S               417  7.0    0.004    0.004    4.953    4.953
 pao_rebuild_S                      413  6.0    0.003    0.003    4.909    4.909
 matrix_sqrt_Newton_Schulz          417  8.0    0.117    0.117    4.476    4.476
 multiply_cannon                  22475  9.4    1.390    1.390    4.139    4.139
 fft3d_s                            172 13.6    3.623    3.623    3.643    3.643
 make_m2s                         44950  9.4    0.206    0.206    2.794    2.794
 make_images                      44950 10.4    0.660    0.660    2.461    2.461
 pao_guess_initial_P                  1  4.0    0.000    0.000    2.340    2.340
 pao_read_preopt_dm                   1  5.0    0.000    0.000    2.340    2.340
 multiply_cannon_multrec          22475 10.4    1.472    1.472    1.605    1.605
 pw_gather_s                         81 13.1    1.477    1.477    1.477    1.477
 density_rs2pw                       10  8.0    0.001    0.001    1.332    1.332
 arnoldi_extremal                   839  8.5    0.004    0.004    1.238    1.238
 arnoldi_normal_ev                  839  9.5    0.014    0.014    1.234    1.234
 pao_calc_AB                        545  5.8    0.001    0.001    1.120    1.120
 pao_calc_AB_direct                 545  6.8    0.031    0.031    1.119    1.119
 pw_scatter_s                        90 14.2    1.115    1.115    1.115    1.115
 pao_calc_grad_lnv_wrt_AB           131  7.0    0.009    0.009    1.055    1.055
 build_subspace                     839 10.5    0.065    0.065    0.921    0.921
 potential_pw2rs                     10 11.0    0.003    0.003    0.858    0.858
 dbcsr_matrix_vector_mult         20088 11.5    0.126    0.126    0.827    0.827
 dbcsr_finalize                   53404  9.6    0.132    0.132    0.808    0.808
 dbcsr_create_new                171895 10.7    0.394    0.394    0.756    0.756
 -------------------------------------------------------------------------------

 The number of warnings for this run is : 0
 
 -------------------------------------------------------------------------------
  **** **** ******  **  PROGRAM ENDED AT                 2019-03-28 17:34:02.876
 ***** ** ***  *** **   PROGRAM RAN ON            oleschuett.zrh.corp.google.com
 **    ****   ******    PROGRAM RAN BY                                oleschuett
 ***** **    ** ** **   PROGRAM PROCESS ID                                 34106
  **** **  *******  **  PROGRAM STOPPED IN /usr/local/google/home/oleschuett/git
                                           /pao_ml_equivar/2H2O_rotations/phi_34
