6
Properties=species:S:1:pos:R:3 i=0 time=0.0 E=-34.4504806384 pbc="F F F"
O        1.73886163       4.57043450       4.35000000
H        1.16102590       4.99914754       3.71000000
H        1.57155717       3.62740628       4.25600000
O        4.59647779       5.13779935       3.63500000
H        5.05233148       5.56607778       4.36500000
H        3.68983785       4.99257878       3.94700000
