 DBCSR| CPU Multiplication driver                                           XSMM
 DBCSR| Multrec recursion limit                                              512
 DBCSR| Multiplication stack size                                           1000
 DBCSR| Maximum elements for images                                    UNLIMITED
 DBCSR| Multiplicative factor virtual images                                   1
 DBCSR| Use multiplication densification                                       T
 DBCSR| Multiplication size stacks                                             3


  **** **** ******  **  PROGRAM STARTED AT               2019-02-14 01:20:50.762
 ***** ** ***  *** **   PROGRAM STARTED ON                                  otto
 **    ****   ******    PROGRAM STARTED BY                                   ole
 ***** **    ** ** **   PROGRAM PROCESS ID                                  6118
  **** **  *******  **  PROGRAM STARTED IN /home/ole/git/pao_ml_equivar/2H2O_MD/
                                           frame_0475

 CP2K| version string:                    CP2K version 7.0 (Development Version)
 CP2K| source code revision number:                                git:8bf305913
 CP2K| cp2kflags: libint fftw3 libxc xsmm libderiv_max_am1=5 libint_max_am=6    
 CP2K| is freely available from                            https://www.cp2k.org/
 CP2K| Program compiled at                           So Jan 13 00:02:37 CET 2019
 CP2K| Program compiled on                                                  otto
 CP2K| Program compiled for                                                local
 CP2K| Data directory path                               /home/ole/git/cp2k/data
 CP2K| Input file name                                            2H2O_pao44.inp

 GLOBAL| Force Environment number                                              1
 GLOBAL| Basis set file name                                        BASIS_MOLOPT
 GLOBAL| Potential file name                                      GTH_POTENTIALS
 GLOBAL| MM Potential file name                                     MM_POTENTIAL
 GLOBAL| Coordinate file name                                         coords.xyz
 GLOBAL| Method name                                                        CP2K
 GLOBAL| Project name                                                 2H2O_pao44
 GLOBAL| Preferred FFT library                                             FFTW3
 GLOBAL| Preferred diagonalization lib.                                       SL
 GLOBAL| Run type                                                         ENERGY
 GLOBAL| All-to-all communication in single precision                          F
 GLOBAL| FFTs using library dependent lengths                                  F
 GLOBAL| Global print level                                                  LOW
 GLOBAL| MPI I/O enabled                                                       T
 GLOBAL| Total number of message passing processes                             1
 GLOBAL| Number of threads for this process                                    1
 GLOBAL| This output is from process                                           0
 GLOBAL| CPU model name :  Intel(R) Core(TM) i5-3320M CPU @ 2.60GHz

 MEMORY| system memory details [Kb]
 MEMORY|                        rank 0           min           max       average
 MEMORY| MemTotal              7860772       7860772       7860772       7860772
 MEMORY| MemFree               2058256       2058256       2058256       2058256
 MEMORY| Buffers                282272        282272        282272        282272
 MEMORY| Cached                1978312       1978312       1978312       1978312
 MEMORY| Slab                   256984        256984        256984        256984
 MEMORY| SReclaimable           134672        134672        134672        134672
 MEMORY| MemLikelyFree         4453512       4453512       4453512       4453512


 GENERATE|  Preliminary Number of Bonds generated:                             0
 GENERATE|  Achieved consistency in connectivity generation.

 *******************************************************************************
 *******************************************************************************
 **                                                                           **
 **     #####                         ##              ##                      **
 **    ##   ##            ##          ##              ##                      **
 **   ##     ##                       ##            ######                    **
 **   ##     ##  ##   ##  ##   #####  ##  ##   ####   ##    #####    #####    **
 **   ##     ##  ##   ##  ##  ##      ## ##   ##      ##   ##   ##  ##   ##   **
 **   ##  ## ##  ##   ##  ##  ##      ####     ###    ##   ######   ######    **
 **    ##  ###   ##   ##  ##  ##      ## ##      ##   ##   ##       ##        **
 **     #######   #####   ##   #####  ##  ##  ####    ##    #####   ##        **
 **           ##                                                    ##        **
 **                                                                           **
 **                                                ... make the atoms dance   **
 **                                                                           **
 **            Copyright (C) by CP2K developers group (2000 - 2018)           **
 **                                                                           **
 *******************************************************************************


 TOTAL NUMBERS AND MAXIMUM NUMBERS

  Total number of            - Atomic kinds:                                   2
                             - Atoms:                                          6
                             - Shell sets:                                     6
                             - Shells:                                        22
                             - Primitive Cartesian functions:                 42
                             - Cartesian basis functions:                     48
                             - Spherical basis functions:                     46

  Maximum angular momentum of- Orbital basis functions:                        2
                             - Local part of the GTH pseudopotential:          2
                             - Non-local part of the GTH pseudopotential:      0

 ------------------------------ Linear scaling SCF -----------------------------
 eps_scf:                                       0.100E-07
 eps_filter:                                    0.100E-07
 mixing_fraction:                               0.450E+00
 max_scf:                                              25
 fixed chemical potential (mu)                          F
 has unit metric:                                       F
 Computing inv(S):                                      T
 Computing sqrt(S):                                     T
 Computing s preconditioner                             F
 sign sqrt order:                                       3
 Extrapolation order:                                   1
 Use single precision matrices                          F
 S preconditioner type                               NONE
 Polarized Atomic Orbitals (PAO)                        T
 Purification method                      Trace resetting 4th order
 Cluster type                                      ATOMIC
 Computing Chebyshev                                FALSE
 Using PAO                                              T
 -------------------------------------------------------------------------------

 
 PAO|                                  EPS_PAO                           0.5E-06
 PAO|                                  MIXING                            0.5E+00
 PAO|                                  MAX_PAO                              1000
 PAO|                                  MAX_CYCLES                           1000
 PAO|                                  PARAMETERIZATION                   DIRECT
 PAO|                                  PRECONDITION                            F
 PAO|                                  REGULARIZATION                    0.0E+00
 PAO|                                  EPS_PGF                           0.1E-09
 PAO|                                  PENALTY_DISTANCE                  0.1E+00
 PAO|                                  PENALTY_STRENGTH                  0.5E-02
 PAO|                                  LINPOT_PRECONDITION_DELTA         0.0E+00
 PAO|                                  LINPOT_INITGUESS_DELT             0.0E+00
 PAO|                                  LINPOT_REGULARIZATION_DELTA       0.0E+00
 PAO|                                  LINPOT_REGULARIZATION_STRENGTH    0.0E+00
 PAO|                                  OPTIMIZER                              CG
 PAO|                                  CG_INIT_STEPS                           2
 PAO|                                  CG_RESET_LIMIT                    0.1E+00
 PAO|                                  CHECK_UNITARY_TOL                -0.1E+01
 PAO|                                  CHECK_GRADIENT_TOL               -0.1E+01
 PAO|                                  NUM_GRADIENT_ORDER                      2
 PAO|                                  NUM_GRADIENT_EPS                  0.1E-07
 PAO|                                  PRINT%RESTART%WRITE_CYCLES            100
 PAO|                                  RESTART_FILE 
 PAO|                                  PREOPT_DM_FILE 2H2O_ref_LS_DM_SPIN_1_RESTART.dm
 PAO|                                  MACHINE_LEARNING%METHOD        GAUSSIAN_P
 PAO|                                  MACHINE_LEARNING%PRIOR               ZERO
 PAO|                                  MACHINE_LEARNING%DESCRIPTOR     POTENTIAL
 PAO|                                  MACHINE_LEARNING%TOLERANCE        0.1E-01
 PAO|                                  MACHINE_LEARNING%GP_NOISE_VAR     0.1E+00
 PAO|                                  MACHINE_LEARNING%GP_SCALE         0.5E-01
 

 Calculating atomic Fock matrix for atomic kind: O

 Electronic structure
    Total number of core electrons                                          2.00
    Total number of valence electrons                                       6.00
    Total number of electrons                                               8.00
    Multiplicity                                                   not specified
    S   [  2.00] 2.00
    P      4.00


 *******************************************************************************
                  Iteration          Convergence                     Energy [au]
 *******************************************************************************
                          1        0.708315                     -15.576645311500
                          2        0.608879                     -15.587933561584
                          3        0.102828E-01                 -15.656849565404
                          4        0.113889E-02                 -15.656866888140
                          5        0.434197E-03                 -15.656867072159
                          6        0.263771E-03                 -15.656867091904
                          7        0.478536E-06                 -15.656867103452

 Energy components [Hartree]           Total Energy ::          -15.656867103452
                                        Band Energy ::           -3.000198112285
                                     Kinetic Energy ::           11.759971203220
                                   Potential Energy ::          -27.416838306672
                                      Virial (-V/T) ::            2.331369510426
                                        Core Energy ::          -26.140716385623
                                          XC Energy ::           -3.154051012914
                                     Coulomb Energy ::           13.637900295084
                       Total Pseudopotential Energy ::          -37.935781716540
                       Local Pseudopotential Energy ::          -39.218907440693
                    Nonlocal Pseudopotential Energy ::            1.283125724153
                                        Confinement ::            0.350941276976

 Orbital energies  State     L     Occupation   Energy[a.u.]          Energy[eV]

                       1     0          2.000      -0.864471          -23.523463

                       1     1          4.000      -0.317814           -8.648154


 Total Electron Density at R=0:                                         0.000068

 Calculating atomic Fock matrix for atomic kind: H

 Electronic structure
    Total number of core electrons                                          0.00
    Total number of valence electrons                                       1.00
    Total number of electrons                                               1.00
    Multiplicity                                                   not specified
    S      1.00


 *******************************************************************************
                  Iteration          Convergence                     Energy [au]
 *******************************************************************************
                          1        0.437545E-02                  -0.424159432110
                          2        0.531356E-03                  -0.424178438213
                          3        0.259176E-06                  -0.424178722480

 Energy components [Hartree]           Total Energy ::           -0.424178722480
                                        Band Energy ::           -0.199015229016
                                     Kinetic Energy ::            0.464007633961
                                   Potential Energy ::           -0.888186356441
                                      Virial (-V/T) ::            1.914163240935
                                        Core Energy ::           -0.479160803564
                                          XC Energy ::           -0.244352904054
                                     Coulomb Energy ::            0.299334985138
                       Total Pseudopotential Energy ::           -0.962295316385
                       Local Pseudopotential Energy ::           -0.962295316385
                    Nonlocal Pseudopotential Energy ::            0.000000000000
                                        Confinement ::            0.191268788606

 Orbital energies  State     L     Occupation   Energy[a.u.]          Energy[eV]

                       1     0          1.000      -0.199015           -5.415480


 Total Electron Density at R=0:                                         0.242907
 PAO| Made initial guess for matrix_X with norm:   4.8989794855663558     

     Lanczos converged:  T threshold:   0.100E-02
     Est. extremal eigenvalues:    0.336E+01   0.120E+00
     Est. condition number :    0.280E+02
     NS sqrt iter    1 1.00000000   0.822E+00       0.001       63.440
     NS sqrt iter    2 1.00000000   0.435E+00       0.001      110.592
     NS sqrt iter    3 1.00000000   0.163E+00       0.001      110.592
     NS sqrt iter    4 1.00000000   0.181E-01       0.001       74.209
     NS sqrt iter    5 1.00000000   0.362E-04       0.001       85.632
     Final NS sqrt iter    5 1.00000000   0.202E-08

 PAO| Read restart DM 2H2O_ref_LS_DM_SPIN_1_RESTART.dm with checksum:    56.414708457197072     
 PAO| Quickstep energy from restart density:  -34.449121349425077     
 PAO| ======================= Iteration:         1 =============================

     Lanczos converged:  T threshold:   0.100E-02
     Est. extremal eigenvalues:    0.336E+01   0.120E+00
     Est. condition number :    0.280E+02
     NS sqrt iter    1 1.00000000   0.822E+00       0.001       46.038
     NS sqrt iter    2 1.00000000   0.435E+00       0.002       45.744
     NS sqrt iter    3 1.00000000   0.163E+00       0.002       57.578
     NS sqrt iter    4 1.00000000   0.181E-01       0.001      110.040
     NS sqrt iter    5 1.00000000   0.362E-04       0.001       84.105
     Final NS sqrt iter    5 1.00000000   0.202E-08

     Est. extremal eigenvalues     -0.91257     1.79759  converged:  T
     TRS4 it   1 1.00000000   0.867E+00       0.000       16.128   0.100E-07
     TRS4 it   2 1.00000000   0.675E+00       0.001       32.256   0.100E-07
     TRS4 it   3 1.00000000   0.493E+00       0.001       32.256   0.100E-07
     TRS4 it   4 1.00000000   0.311E+00       0.001       32.256   0.100E-07
     TRS4 it   5 1.00000000   0.157E+00       0.001       32.256   0.100E-07
     TRS4 it   6 1.00000000   0.508E-01       0.001       32.256   0.100E-07
     TRS4 it   7 1.00000000   0.769E-02       0.001       32.256   0.100E-07
     TRS4 it   8 1.00000000   0.246E-03       0.001       32.256   0.100E-07
     TRS4 it   9 1.00000000   0.272E-06       0.001       32.256   0.100E-07
     TRS4 it  10 1.00000000   0.332E-12       0.001       32.256   0.100E-07
     Final TRS4 iteration   10 1.00000000   0.332E-12
     Chemical potential (mu):      -0.06829
 
 PAO| energy:  -7.5271978935032164      penalty:   3.5745259767827095E-033
 PAO|CG| warming up with steepest descent
 PAO|CG| beta:    0.0000000000000000     
 PAO| norm of gradient:  0.76917052756686533     
 PAO|LS| adapt:  T F F
 PAO|LS| adapt: scan_steps:    0.0000000000000000        0.0000000000000000        0.0000000000000000     
 PAO|LS| adapt: energies:   -7.5271978935032164        0.0000000000000000        0.0000000000000000     
 PAO| ======================= Iteration:         2 =============================

     Lanczos converged:  T threshold:   0.100E-02
     Est. extremal eigenvalues:    0.328E+01   0.134E+00
     Est. condition number :    0.244E+02
     NS sqrt iter    1 1.00000000   0.805E+00       0.001       64.512
     NS sqrt iter    2 1.00000000   0.419E+00       0.001       86.082
     NS sqrt iter    3 1.00000000   0.146E+00       0.001       93.278
     NS sqrt iter    4 1.00000000   0.124E-01       0.001      110.592
     NS sqrt iter    5 1.00000000   0.110E-04       0.001       82.944
     Final NS sqrt iter    5 1.00000000   0.183E-09

     Est. extremal eigenvalues     -0.91607     1.74368  converged:  T
     TRS4 it   1 1.00000000   0.862E+00       0.000       16.128   0.100E-07
     TRS4 it   2 1.00000000   0.656E+00       0.001       32.256   0.100E-07
     TRS4 it   3 1.00000000   0.476E+00       0.001       32.256   0.100E-07
     TRS4 it   4 1.00000000   0.290E+00       0.001       32.256   0.100E-07
     TRS4 it   5 1.00000000   0.136E+00       0.001       32.180   0.100E-07
     TRS4 it   6 1.00000000   0.390E-01       0.001       32.165   0.100E-07
     TRS4 it   7 1.00000000   0.464E-02       0.002       18.427   0.100E-07
     TRS4 it   8 1.00000000   0.900E-04       0.001       32.256   0.100E-07
     TRS4 it   9 1.00000000   0.363E-07       0.001       32.256   0.100E-07
     Final TRS4 iteration    9 1.00000000   0.363E-07
     Chemical potential (mu):      -0.05732
 
 PAO| energy:  -7.5807759298788717      penalty:   2.1212069507033304E-008
 PAO|LS| adapt:  T T F
 PAO|LS| adapt: scan_steps:    0.0000000000000000       0.10000000000000001        0.0000000000000000     
 PAO|LS| adapt: energies:   -7.5271978935032164       -7.5807759298788717        0.0000000000000000     
 PAO| ======================= Iteration:         3 =============================

     Lanczos converged:  T threshold:   0.100E-02
     Est. extremal eigenvalues:    0.318E+01   0.147E+00
     Est. condition number :    0.217E+02
     NS sqrt iter    1 1.00000000   0.788E+00       0.001       64.512
     NS sqrt iter    2 1.00000000   0.403E+00       0.001      110.592
     NS sqrt iter    3 1.00000000   0.129E+00       0.001      110.414
     NS sqrt iter    4 1.00000000   0.840E-02       0.001      110.592
     NS sqrt iter    5 1.00000000   0.337E-05       0.001       82.944
     Final NS sqrt iter    5 1.00000000   0.175E-10

     Est. extremal eigenvalues     -0.91932     1.70039  converged:  T
     TRS4 it   1 1.00000000   0.857E+00       0.000       16.128   0.100E-07
     TRS4 it   2 1.00000000   0.640E+00       0.001       32.256   0.100E-07
     TRS4 it   3 1.00000000   0.459E+00       0.001       32.256   0.100E-07
     TRS4 it   4 1.00000000   0.268E+00       0.001       32.256   0.100E-07
     TRS4 it   5 1.00000000   0.117E+00       0.001       32.256   0.100E-07
     TRS4 it   6 1.00000000   0.289E-01       0.001       32.256   0.100E-07
     TRS4 it   7 1.00000000   0.258E-02       0.001       32.256   0.100E-07
     TRS4 it   8 1.00000000   0.279E-04       0.001       32.256   0.100E-07
     TRS4 it   9 1.00000000   0.349E-08       0.001       32.256   0.100E-07
     Final TRS4 iteration    9 1.00000000   0.349E-08
     Chemical potential (mu):      -0.04536
 
 PAO| energy:  -7.6225307882067641      penalty:   3.3939310999492133E-007
 PAO|LS| adapt:  T T F
 PAO|LS| adapt: scan_steps:    0.0000000000000000       0.20000000000000001        0.0000000000000000     
 PAO|LS| adapt: energies:   -7.5271978935032164       -7.6225307882067641        0.0000000000000000     
 PAO| ======================= Iteration:         4 =============================

     Lanczos converged:  T threshold:   0.100E-02
     Est. extremal eigenvalues:    0.299E+01   0.167E+00
     Est. condition number :    0.179E+02
     NS sqrt iter    1 1.00000000   0.750E+00       0.001       55.710
     NS sqrt iter    2 1.00000000   0.368E+00       0.001      103.865
     NS sqrt iter    3 1.00000000   0.100E+00       0.001      110.592
     NS sqrt iter    4 1.00000000   0.395E-02       0.001      110.592
     NS sqrt iter    5 1.00000000   0.396E-06       0.001       82.688
     Final NS sqrt iter    5 1.00000000   0.119E-09

     Est. extremal eigenvalues     -0.92434     1.63904  converged:  T
     TRS4 it   1 1.00000000   0.851E+00       0.001       16.128   0.100E-07
     TRS4 it   2 1.00000000   0.612E+00       0.001       32.256   0.100E-07
     TRS4 it   3 1.00000000   0.426E+00       0.001       30.571   0.100E-07
     TRS4 it   4 1.00000000   0.229E+00       0.001       32.256   0.100E-07
     TRS4 it   5 1.00000000   0.843E-01       0.001       32.256   0.100E-07
     TRS4 it   6 1.00000000   0.147E-01       0.001       32.256   0.100E-07
     TRS4 it   7 1.00000000   0.649E-03       0.001       32.256   0.100E-07
     TRS4 it   8 1.00000000   0.174E-05       0.001       32.256   0.100E-07
     TRS4 it   9 1.00000000   0.136E-10       0.001       32.256   0.100E-07
     Final TRS4 iteration    9 1.00000000   0.136E-10
     Chemical potential (mu):      -0.01890
 
 PAO| energy:  -7.6689326892203011      penalty:   5.4302897429778908E-006
 PAO|LS| Need extra step
 PAO|LS| adapt:  T T F
 PAO|LS| adapt: scan_steps:    0.0000000000000000       0.40000000000000002        0.0000000000000000     
 PAO|LS| adapt: energies:   -7.5271978935032164       -7.6689326892203011        0.0000000000000000     
 PAO| ======================= Iteration:         5 =============================

     Lanczos converged:  T threshold:   0.100E-02
     Est. extremal eigenvalues:    0.263E+01   0.196E+00
     Est. condition number :    0.134E+02
     NS sqrt iter    1 1.00000000   0.685E+00       0.001       64.512
     NS sqrt iter    2 1.00000000   0.306E+00       0.001      110.592
     NS sqrt iter    3 1.00000000   0.606E-01       0.001      110.592
     NS sqrt iter    4 1.00000000   0.100E-02       0.001      110.592
     NS sqrt iter    5 1.00000000   0.606E-08       0.001       38.272
     Final NS sqrt iter    5 1.00000000   0.304E-08

     Est. extremal eigenvalues     -0.92531     1.57787  converged:  T
     TRS4 it   1 1.00000000   0.847E+00       0.001       16.128   0.100E-07
     TRS4 it   2 1.00000000   0.577E+00       0.001       30.834   0.100E-07
     TRS4 it   3 1.00000000   0.375E+00       0.001       32.256   0.100E-07
     TRS4 it   4 1.00000000   0.170E+00       0.001       32.256   0.100E-07
     TRS4 it   5 1.00000000   0.436E-01       0.001       32.256   0.100E-07
     TRS4 it   6 1.00000000   0.359E-02       0.001       32.256   0.100E-07
     TRS4 it   7 1.00000000   0.323E-04       0.001       32.256   0.100E-07
     TRS4 it   8 1.00000000   0.329E-08       0.001       32.256   0.100E-07
     Final TRS4 iteration    8 1.00000000   0.329E-08
     Chemical potential (mu):       0.03086
 
 PAO| energy:  -7.6191291482430508      penalty:   8.6884635752119816E-005
 PAO|LS| Need extra step
 PAO|LS| adapt:  T T T
 PAO|LS| adapt: scan_steps:    0.0000000000000000       0.40000000000000002       0.80000000000000004     
 PAO|LS| adapt: energies:   -7.5271978935032164       -7.6689326892203011       -7.6191291482430508     
 PAO|LS| adapt: suggested step_size:   0.49599253739635651     
 PAO|LS| adapt: predicted energy  -7.6744481357256191     
 PAO| ======================= Iteration:         6 =============================

     Lanczos converged:  T threshold:   0.100E-02
     Est. extremal eigenvalues:    0.290E+01   0.175E+00
     Est. condition number :    0.165E+02
     NS sqrt iter    1 1.00000000   0.733E+00       0.001       64.512
     NS sqrt iter    2 1.00000000   0.352E+00       0.001      110.592
     NS sqrt iter    3 1.00000000   0.886E-01       0.001      109.776
     NS sqrt iter    4 1.00000000   0.279E-02       0.001      110.592
     NS sqrt iter    5 1.00000000   0.154E-06       0.001       79.104
     Final NS sqrt iter    5 1.00000000   0.105E-08

     Est. extremal eigenvalues     -0.92578     1.61859  converged:  T
     TRS4 it   1 1.00000000   0.849E+00       0.000       16.128   0.100E-07
     TRS4 it   2 1.00000000   0.602E+00       0.001       32.256   0.100E-07
     TRS4 it   3 1.00000000   0.412E+00       0.001       32.256   0.100E-07
     TRS4 it   4 1.00000000   0.212E+00       0.001       32.256   0.100E-07
     TRS4 it   5 1.00000000   0.715E-01       0.001       32.256   0.100E-07
     TRS4 it   6 1.00000000   0.104E-01       0.001       32.256   0.100E-07
     TRS4 it   7 1.00000000   0.312E-03       0.001       32.256   0.100E-07
     TRS4 it   8 1.00000000   0.392E-06       0.001       32.256   0.100E-07
     TRS4 it   9 1.00000000   0.685E-12       0.001       32.256   0.100E-07
     Final TRS4 iteration    9 1.00000000   0.685E-12
     Chemical potential (mu):      -0.00540
 
 PAO| energy:  -7.6737318394260123      penalty:   1.2837593098604459E-005
 PAO|CG| warming up with steepest descent
 PAO|CG| beta:    0.0000000000000000     
 PAO| norm of gradient:  0.39960156715702366     
 PAO| energy improvement: -0.14653394592279589     
 PAO| step      6                   -7.673731839  0.250E-01  0.496E+00     0.088
 PAO|LS| adapt:  T F F
 PAO|LS| adapt: scan_steps:    0.0000000000000000        0.0000000000000000        0.0000000000000000     
 PAO|LS| adapt: energies:   -7.6737318394260123        0.0000000000000000        0.0000000000000000     
 PAO| ======================= Iteration:         7 =============================

     Lanczos converged:  T threshold:   0.100E-02
     Est. extremal eigenvalues:    0.281E+01   0.189E+00
     Est. condition number :    0.149E+02
     NS sqrt iter    1 1.00000000   0.715E+00       0.001       64.512
     NS sqrt iter    2 1.00000000   0.332E+00       0.001      104.754
     NS sqrt iter    3 1.00000000   0.741E-01       0.001      110.592
     NS sqrt iter    4 1.00000000   0.169E-02       0.001      110.592
     NS sqrt iter    5 1.00000000   0.385E-07       0.002       31.139
     Final NS sqrt iter    5 1.00000000   0.360E-09

     Est. extremal eigenvalues     -0.92748     1.61890  converged:  T
     TRS4 it   1 1.00000000   0.852E+00       0.000       16.128   0.100E-07
     TRS4 it   2 1.00000000   0.604E+00       0.001       32.256   0.100E-07
     TRS4 it   3 1.00000000   0.415E+00       0.001       32.256   0.100E-07
     TRS4 it   4 1.00000000   0.216E+00       0.001       32.256   0.100E-07
     TRS4 it   5 1.00000000   0.735E-01       0.001       32.256   0.100E-07
     TRS4 it   6 1.00000000   0.106E-01       0.001       32.256   0.100E-07
     TRS4 it   7 1.00000000   0.309E-03       0.001       32.256   0.100E-07
     TRS4 it   8 1.00000000   0.371E-06       0.001       32.256   0.100E-07
     TRS4 it   9 1.00000000   0.613E-12       0.001       32.256   0.100E-07
     Final TRS4 iteration    9 1.00000000   0.613E-12
     Chemical potential (mu):      -0.00382
 
 PAO| energy:  -7.6687137749813044      penalty:   1.8670665395577442E-005
 PAO|LS| adapt:  T F T
 PAO|LS| adapt: scan_steps:    0.0000000000000000        0.0000000000000000       0.49599253739635651     
 PAO|LS| adapt: energies:   -7.6737318394260123        0.0000000000000000       -7.6687137749813044     
 PAO| ======================= Iteration:         8 =============================

     Lanczos converged:  T threshold:   0.100E-02
     Est. extremal eigenvalues:    0.285E+01   0.182E+00
     Est. condition number :    0.157E+02
     NS sqrt iter    1 1.00000000   0.724E+00       0.001       60.880
     NS sqrt iter    2 1.00000000   0.342E+00       0.001       75.577
     NS sqrt iter    3 1.00000000   0.812E-01       0.001      103.471
     NS sqrt iter    4 1.00000000   0.218E-02       0.001      110.592
     NS sqrt iter    5 1.00000000   0.787E-07       0.001       73.728
     Final NS sqrt iter    5 1.00000000   0.702E-09

     Est. extremal eigenvalues     -0.92771     1.61818  converged:  T
     TRS4 it   1 1.00000000   0.850E+00       0.000       16.128   0.100E-07
     TRS4 it   2 1.00000000   0.603E+00       0.001       32.256   0.100E-07
     TRS4 it   3 1.00000000   0.413E+00       0.001       32.256   0.100E-07
     TRS4 it   4 1.00000000   0.214E+00       0.001       32.256   0.100E-07
     TRS4 it   5 1.00000000   0.724E-01       0.001       32.256   0.100E-07
     TRS4 it   6 1.00000000   0.106E-01       0.001       32.256   0.100E-07
     TRS4 it   7 1.00000000   0.320E-03       0.001       32.256   0.100E-07
     TRS4 it   8 1.00000000   0.409E-06       0.001       32.256   0.100E-07
     TRS4 it   9 1.00000000   0.747E-12       0.001       32.256   0.100E-07
     Final TRS4 iteration    9 1.00000000   0.747E-12
     Chemical potential (mu):      -0.00507
 
 PAO| energy:  -7.6920389167272587      penalty:   1.3779385356618711E-005
 PAO|LS| adapt:  T T T
 PAO|LS| adapt: scan_steps:    0.0000000000000000       0.24799626869817826       0.49599253739635651     
 PAO|LS| adapt: energies:   -7.6737318394260123       -7.6920389167272587       -7.6687137749813044     
 PAO|LS| adapt: suggested step_size:   0.23305037718848404     
 PAO|LS| adapt: predicted energy  -7.6921145221458138     
 PAO| ======================= Iteration:         9 =============================

     Lanczos converged:  T threshold:   0.100E-02
     Est. extremal eigenvalues:    0.286E+01   0.181E+00
     Est. condition number :    0.157E+02
     NS sqrt iter    1 1.00000000   0.724E+00       0.001       64.512
     NS sqrt iter    2 1.00000000   0.342E+00       0.001      109.438
     NS sqrt iter    3 1.00000000   0.816E-01       0.002       68.701
     NS sqrt iter    4 1.00000000   0.222E-02       0.001       78.515
     NS sqrt iter    5 1.00000000   0.820E-07       0.001       70.794
     Final NS sqrt iter    5 1.00000000   0.955E-09

     Est. extremal eigenvalues     -0.92766     1.61817  converged:  T
     TRS4 it   1 1.00000000   0.850E+00       0.000       16.128   0.100E-07
     TRS4 it   2 1.00000000   0.603E+00       0.001       32.256   0.100E-07
     TRS4 it   3 1.00000000   0.413E+00       0.001       32.256   0.100E-07
     TRS4 it   4 1.00000000   0.214E+00       0.001       32.256   0.100E-07
     TRS4 it   5 1.00000000   0.723E-01       0.001       32.256   0.100E-07
     TRS4 it   6 1.00000000   0.106E-01       0.001       32.256   0.100E-07
     TRS4 it   7 1.00000000   0.320E-03       0.001       32.256   0.100E-07
     TRS4 it   8 1.00000000   0.410E-06       0.001       32.256   0.100E-07
     TRS4 it   9 1.00000000   0.749E-12       0.001       32.256   0.100E-07
     Final TRS4 iteration    9 1.00000000   0.749E-12
     Chemical potential (mu):      -0.00512
 
 PAO| energy:  -7.6921361321448094      penalty:   1.3641470989731535E-005
 PAO|CG| trace_G_new    3.3197963580400940E-002
 PAO|CG| trace_G_prev   0.15968141247434928     
 PAO|CG| trace_G_mix   -1.4053004363023974E-003
 PAO|CG| trace_D   0.15968141247434928     
 PAO|CG| trace_D_Gnew   1.4053004363023974E-003
 PAO|CG| beta:   0.21670189084945560     
 PAO| norm of gradient:  0.18220308334493390     
 PAO| energy improvement:  -1.8404292718797066E-002
 PAO| step      9                   -7.692136132  0.114E-01  0.233E+00     0.057
 PAO|LS| adapt:  T F F
 PAO|LS| adapt: scan_steps:    0.0000000000000000        0.0000000000000000        0.0000000000000000     
 PAO|LS| adapt: energies:   -7.6921361321448094        0.0000000000000000        0.0000000000000000     
 PAO| ======================= Iteration:        10 =============================

     Lanczos converged:  T threshold:   0.100E-02
     Est. extremal eigenvalues:    0.282E+01   0.187E+00
     Est. condition number :    0.151E+02
     NS sqrt iter    1 1.00000000   0.717E+00       0.001       60.054
     NS sqrt iter    2 1.00000000   0.334E+00       0.001      108.867
     NS sqrt iter    3 1.00000000   0.764E-01       0.001      110.592
     NS sqrt iter    4 1.00000000   0.182E-02       0.001      110.592
     NS sqrt iter    5 1.00000000   0.452E-07       0.001       68.608
     Final NS sqrt iter    5 1.00000000   0.378E-09

     Est. extremal eigenvalues     -0.92840     1.61816  converged:  T
     TRS4 it   1 1.00000000   0.850E+00       0.000       16.128   0.100E-07
     TRS4 it   2 1.00000000   0.602E+00       0.001       32.256   0.100E-07
     TRS4 it   3 1.00000000   0.412E+00       0.001       32.256   0.100E-07
     TRS4 it   4 1.00000000   0.212E+00       0.001       32.256   0.100E-07
     TRS4 it   5 1.00000000   0.707E-01       0.001       32.256   0.100E-07
     TRS4 it   6 1.00000000   0.100E-01       0.001       32.256   0.100E-07
     TRS4 it   7 1.00000000   0.283E-03       0.001       26.341   0.100E-07
     TRS4 it   8 1.00000000   0.315E-06       0.001       32.256   0.100E-07
     TRS4 it   9 1.00000000   0.440E-12       0.001       32.256   0.100E-07
     Final TRS4 iteration    9 1.00000000   0.440E-12
     Chemical potential (mu):      -0.00213
 
 PAO| energy:  -7.6965096680383516      penalty:   1.4084051243503462E-005
 PAO|LS| adapt:  T T F
 PAO|LS| adapt: scan_steps:    0.0000000000000000       0.23305037718848404        0.0000000000000000     
 PAO|LS| adapt: energies:   -7.6921361321448094       -7.6965096680383516        0.0000000000000000     
 PAO| ======================= Iteration:        11 =============================

     Lanczos converged:  T threshold:   0.100E-02
     Est. extremal eigenvalues:    0.278E+01   0.193E+00
     Est. condition number :    0.144E+02
     NS sqrt iter    1 1.00000000   0.709E+00       0.001       64.512
     NS sqrt iter    2 1.00000000   0.326E+00       0.001      110.592
     NS sqrt iter    3 1.00000000   0.713E-01       0.001      110.592
     NS sqrt iter    4 1.00000000   0.149E-02       0.001      110.592
     NS sqrt iter    5 1.00000000   0.243E-07       0.001       58.752
     Final NS sqrt iter    5 1.00000000   0.396E-08

     Est. extremal eigenvalues     -0.92835     1.61963  converged:  T
     TRS4 it   1 1.00000000   0.851E+00       0.000       16.128   0.100E-07
     TRS4 it   2 1.00000000   0.602E+00       0.001       32.256   0.100E-07
     TRS4 it   3 1.00000000   0.411E+00       0.001       32.256   0.100E-07
     TRS4 it   4 1.00000000   0.210E+00       0.001       32.256   0.100E-07
     TRS4 it   5 1.00000000   0.693E-01       0.001       32.256   0.100E-07
     TRS4 it   6 1.00000000   0.954E-02       0.001       32.256   0.100E-07
     TRS4 it   7 1.00000000   0.251E-03       0.001       32.256   0.100E-07
     TRS4 it   8 1.00000000   0.242E-06       0.001       32.256   0.100E-07
     TRS4 it   9 1.00000000   0.260E-12       0.001       32.256   0.100E-07
     Final TRS4 iteration    9 1.00000000   0.260E-12
     Chemical potential (mu):       0.00096
 
 PAO| energy:  -7.6945322193064793      penalty:   1.5124330377160568E-005
 PAO|LS| adapt:  T T T
 PAO|LS| adapt: scan_steps:    0.0000000000000000       0.23305037718848404       0.46610075437696807     
 PAO|LS| adapt: energies:   -7.6921361321448094       -7.6965096680383516       -7.6945322193064793     
 PAO|LS| adapt: suggested step_size:   0.27701277433940064     
 PAO|LS| adapt: predicted energy  -7.6966226669279916     
 PAO| ======================= Iteration:        12 =============================

     Lanczos converged:  T threshold:   0.100E-02
     Est. extremal eigenvalues:    0.281E+01   0.188E+00
     Est. condition number :    0.149E+02
     NS sqrt iter    1 1.00000000   0.715E+00       0.001       50.690
     NS sqrt iter    2 1.00000000   0.333E+00       0.001      110.592
     NS sqrt iter    3 1.00000000   0.754E-01       0.001      110.592
     NS sqrt iter    4 1.00000000   0.175E-02       0.001      110.592
     NS sqrt iter    5 1.00000000   0.403E-07       0.001       68.224
     Final NS sqrt iter    5 1.00000000   0.348E-09

     Est. extremal eigenvalues     -0.92845     1.61833  converged:  T
     TRS4 it   1 1.00000000   0.850E+00       0.000       16.128   0.100E-07
     TRS4 it   2 1.00000000   0.602E+00       0.001       32.256   0.100E-07
     TRS4 it   3 1.00000000   0.412E+00       0.001       32.256   0.100E-07
     TRS4 it   4 1.00000000   0.211E+00       0.001       32.256   0.100E-07
     TRS4 it   5 1.00000000   0.704E-01       0.001       32.256   0.100E-07
     TRS4 it   6 1.00000000   0.994E-02       0.001       32.256   0.100E-07
     TRS4 it   7 1.00000000   0.277E-03       0.001       32.256   0.100E-07
     TRS4 it   8 1.00000000   0.300E-06       0.001       32.256   0.100E-07
     TRS4 it   9 1.00000000   0.399E-12       0.001       32.256   0.100E-07
     Final TRS4 iteration    9 1.00000000   0.399E-12
     Chemical potential (mu):      -0.00156
 
 PAO| energy:  -7.6966116928002997      penalty:   1.4229844538463248E-005
 PAO|CG| trace_G_new    1.0729278531436891E-002
 PAO|CG| trace_G_prev    3.3197963580400940E-002
 PAO|CG| trace_G_mix   -3.6832196989994162E-004
 PAO|CG| trace_D    4.0087493798866898E-002
 PAO|CG| trace_D_Gnew   2.3234374270634638E-004
 PAO|CG| beta:   0.33428557973021322     
 PAO| norm of gradient:  0.10358223077071128     
 PAO| energy improvement:  -4.4755606554902627E-003
 PAO| step     12                   -7.696611693  0.647E-02  0.277E+00     0.056
 PAO|LS| adapt:  T F F
 PAO|LS| adapt: scan_steps:    0.0000000000000000        0.0000000000000000        0.0000000000000000     
 PAO|LS| adapt: energies:   -7.6966116928002997        0.0000000000000000        0.0000000000000000     
 PAO| ======================= Iteration:        13 =============================

     Lanczos converged:  T threshold:   0.100E-02
     Est. extremal eigenvalues:    0.278E+01   0.193E+00
     Est. condition number :    0.144E+02
     NS sqrt iter    1 1.00000000   0.709E+00       0.001       51.036
     NS sqrt iter    2 1.00000000   0.326E+00       0.001      104.165
     NS sqrt iter    3 1.00000000   0.714E-01       0.001      110.592
     NS sqrt iter    4 1.00000000   0.149E-02       0.001      110.592
     NS sqrt iter    5 1.00000000   0.242E-07       0.001       58.752
     Final NS sqrt iter    5 1.00000000   0.394E-08

     Est. extremal eigenvalues     -0.92887     1.61117  converged:  T
     TRS4 it   1 1.00000000   0.849E+00       0.001       16.128   0.100E-07
     TRS4 it   2 1.00000000   0.599E+00       0.002       13.897   0.100E-07
     TRS4 it   3 1.00000000   0.407E+00       0.002       18.596   0.100E-07
     TRS4 it   4 1.00000000   0.206E+00       0.001       32.256   0.100E-07
     TRS4 it   5 1.00000000   0.668E-01       0.001       32.256   0.100E-07
     TRS4 it   6 1.00000000   0.888E-02       0.001       32.256   0.100E-07
     TRS4 it   7 1.00000000   0.218E-03       0.001       32.256   0.100E-07
     TRS4 it   8 1.00000000   0.183E-06       0.001       32.256   0.100E-07
     TRS4 it   9 1.00000000   0.148E-12       0.001       32.256   0.100E-07
     Final TRS4 iteration    9 1.00000000   0.148E-12
     Chemical potential (mu):       0.00267
 
 PAO| energy:  -7.6984514091096843      penalty:   1.4408714863474678E-005
 PAO|LS| adapt:  T T F
 PAO|LS| adapt: scan_steps:    0.0000000000000000       0.27701277433940064        0.0000000000000000     
 PAO|LS| adapt: energies:   -7.6966116928002997       -7.6984514091096843        0.0000000000000000     
 PAO| ======================= Iteration:        14 =============================

     Lanczos converged:  T threshold:   0.100E-02
     Est. extremal eigenvalues:    0.275E+01   0.197E+00
     Est. condition number :    0.139E+02
     NS sqrt iter    1 1.00000000   0.702E+00       0.001       64.512
     NS sqrt iter    2 1.00000000   0.320E+00       0.001      110.592
     NS sqrt iter    3 1.00000000   0.676E-01       0.001      110.592
     NS sqrt iter    4 1.00000000   0.127E-02       0.001       97.149
     NS sqrt iter    5 1.00000000   0.139E-07       0.001       43.505
     Final NS sqrt iter    5 1.00000000   0.469E-08

     Est. extremal eigenvalues     -0.92891     1.60446  converged:  T
     TRS4 it   1 1.00000000   0.848E+00       0.000       16.128   0.100E-07
     TRS4 it   2 1.00000000   0.596E+00       0.001       32.256   0.100E-07
     TRS4 it   3 1.00000000   0.403E+00       0.001       32.256   0.100E-07
     TRS4 it   4 1.00000000   0.201E+00       0.001       32.256   0.100E-07
     TRS4 it   5 1.00000000   0.633E-01       0.001       32.256   0.100E-07
     TRS4 it   6 1.00000000   0.793E-02       0.001       32.256   0.100E-07
     TRS4 it   7 1.00000000   0.171E-03       0.001       32.256   0.100E-07
     TRS4 it   8 1.00000000   0.111E-06       0.001       32.256   0.100E-07
     TRS4 it   9 1.00000000   0.536E-13       0.001       32.256   0.100E-07
     Final TRS4 iteration    9 1.00000000   0.536E-13
     Chemical potential (mu):       0.00684
 
 PAO| energy:  -7.6981027711241214      penalty:   1.4954846403859174E-005
 PAO|LS| adapt:  T T T
 PAO|LS| adapt: scan_steps:    0.0000000000000000       0.27701277433940064       0.55402554867880127     
 PAO|LS| adapt: energies:   -7.6966116928002997       -7.6984514091096843       -7.6981027711241214     
 PAO|LS| adapt: suggested step_size:   0.37138683072343148     
 PAO|LS| adapt: predicted energy  -7.6985784060596805     
 PAO| ======================= Iteration:        15 =============================

     Lanczos converged:  T threshold:   0.100E-02
     Est. extremal eigenvalues:    0.277E+01   0.195E+00
     Est. condition number :    0.142E+02
     NS sqrt iter    1 1.00000000   0.706E+00       0.001       64.512
     NS sqrt iter    2 1.00000000   0.324E+00       0.001      110.592
     NS sqrt iter    3 1.00000000   0.701E-01       0.001      110.592
     NS sqrt iter    4 1.00000000   0.141E-02       0.001      110.592
     NS sqrt iter    5 1.00000000   0.201E-07       0.001       54.528
     Final NS sqrt iter    5 1.00000000   0.451E-08

     Est. extremal eigenvalues     -0.92892     1.60884  converged:  T
     TRS4 it   1 1.00000000   0.849E+00       0.001       16.128   0.100E-07
     TRS4 it   2 1.00000000   0.598E+00       0.001       32.256   0.100E-07
     TRS4 it   3 1.00000000   0.406E+00       0.001       32.256   0.100E-07
     TRS4 it   4 1.00000000   0.205E+00       0.001       32.256   0.100E-07
     TRS4 it   5 1.00000000   0.656E-01       0.001       32.256   0.100E-07
     TRS4 it   6 1.00000000   0.854E-02       0.001       32.256   0.100E-07
     TRS4 it   7 1.00000000   0.201E-03       0.001       32.256   0.100E-07
     TRS4 it   8 1.00000000   0.154E-06       0.001       32.256   0.100E-07
     TRS4 it   9 1.00000000   0.106E-12       0.001       32.256   0.100E-07
     Final TRS4 iteration    9 1.00000000   0.106E-12
     Chemical potential (mu):       0.00410
 
 PAO| energy:  -7.6985758658663421      penalty:   1.4551162423572156E-005
 PAO|CG| trace_G_new    2.1870669684326111E-003
 PAO|CG| trace_G_prev    1.0729278531436891E-002
 PAO|CG| trace_G_mix    8.3150883226395980E-005
 PAO|CG| trace_D    1.5053591314919195E-002
 PAO|CG| trace_D_Gnew   1.9992554514443431E-005
 PAO|CG| beta:   0.19609110519796094     
 PAO| norm of gradient:   4.6766087803371055E-002
 PAO| energy improvement:  -1.9641730660424628E-003
 PAO| step     15                   -7.698575866  0.292E-02  0.371E+00     0.057
 PAO|LS| adapt:  T F F
 PAO|LS| adapt: scan_steps:    0.0000000000000000        0.0000000000000000        0.0000000000000000     
 PAO|LS| adapt: energies:   -7.6985758658663421        0.0000000000000000        0.0000000000000000     
 PAO| ======================= Iteration:        16 =============================

     Lanczos converged:  T threshold:   0.100E-02
     Est. extremal eigenvalues:    0.276E+01   0.195E+00
     Est. condition number :    0.141E+02
     NS sqrt iter    1 1.00000000   0.705E+00       0.001       46.243
     NS sqrt iter    2 1.00000000   0.323E+00       0.001      101.518
     NS sqrt iter    3 1.00000000   0.695E-01       0.001      102.350
     NS sqrt iter    4 1.00000000   0.137E-02       0.001      106.725
     NS sqrt iter    5 1.00000000   0.183E-07       0.001       54.272
     Final NS sqrt iter    5 1.00000000   0.378E-08

     Est. extremal eigenvalues     -0.92895     1.60822  converged:  T
     TRS4 it   1 1.00000000   0.849E+00       0.000       16.128   0.100E-07
     TRS4 it   2 1.00000000   0.597E+00       0.001       32.256   0.100E-07
     TRS4 it   3 1.00000000   0.404E+00       0.001       32.256   0.100E-07
     TRS4 it   4 1.00000000   0.203E+00       0.001       32.256   0.100E-07
     TRS4 it   5 1.00000000   0.645E-01       0.001       32.256   0.100E-07
     TRS4 it   6 1.00000000   0.827E-02       0.001       32.256   0.100E-07
     TRS4 it   7 1.00000000   0.189E-03       0.001       32.256   0.100E-07
     TRS4 it   8 1.00000000   0.138E-06       0.001       32.256   0.100E-07
     TRS4 it   9 1.00000000   0.836E-13       0.001       32.256   0.100E-07
     Final TRS4 iteration    9 1.00000000   0.836E-13
     Chemical potential (mu):       0.00492
 
 PAO| energy:  -7.6986945880071564      penalty:   1.4284325951820279E-005
 PAO|LS| adapt:  T T F
 PAO|LS| adapt: scan_steps:    0.0000000000000000       0.37138683072343148        0.0000000000000000     
 PAO|LS| adapt: energies:   -7.6985758658663421       -7.6986945880071564        0.0000000000000000     
 PAO| ======================= Iteration:        17 =============================

     Lanczos converged:  T threshold:   0.100E-02
     Est. extremal eigenvalues:    0.275E+01   0.196E+00
     Est. condition number :    0.141E+02
     NS sqrt iter    1 1.00000000   0.703E+00       0.001       46.184
     NS sqrt iter    2 1.00000000   0.322E+00       0.001       98.698
     NS sqrt iter    3 1.00000000   0.689E-01       0.001      110.592
     NS sqrt iter    4 1.00000000   0.133E-02       0.001      110.592
     NS sqrt iter    5 1.00000000   0.163E-07       0.001       50.304
     Final NS sqrt iter    5 1.00000000   0.540E-08

     Est. extremal eigenvalues     -0.92887     1.60768  converged:  T
     TRS4 it   1 1.00000000   0.849E+00       0.000       16.128   0.100E-07
     TRS4 it   2 1.00000000   0.596E+00       0.001       32.256   0.100E-07
     TRS4 it   3 1.00000000   0.403E+00       0.001       32.256   0.100E-07
     TRS4 it   4 1.00000000   0.201E+00       0.001       32.256   0.100E-07
     TRS4 it   5 1.00000000   0.634E-01       0.001       32.256   0.100E-07
     TRS4 it   6 1.00000000   0.801E-02       0.001       32.256   0.100E-07
     TRS4 it   7 1.00000000   0.178E-03       0.001       32.256   0.100E-07
     TRS4 it   8 1.00000000   0.123E-06       0.001       32.256   0.100E-07
     TRS4 it   9 1.00000000   0.671E-13       0.001       32.256   0.100E-07
     Final TRS4 iteration    9 1.00000000   0.671E-13
     Chemical potential (mu):       0.00573
 
 PAO| energy:  -7.6974241980683971      penalty:   1.4113597279955068E-005
 PAO|LS| adapt:  T T T
 PAO|LS| adapt: scan_steps:    0.0000000000000000       0.37138683072343148       0.74277366144686297     
 PAO|LS| adapt: energies:   -7.6985758658663421       -7.6986945880071564       -7.6974241980683971     
 PAO|LS| adapt: suggested step_size:   0.21743443918699432     
 PAO|LS| adapt: predicted energy  -7.6988139393122390     
 PAO| ======================= Iteration:        18 =============================

     Lanczos converged:  T threshold:   0.100E-02
     Est. extremal eigenvalues:    0.276E+01   0.195E+00
     Est. condition number :    0.142E+02
     NS sqrt iter    1 1.00000000   0.705E+00       0.001       64.512
     NS sqrt iter    2 1.00000000   0.323E+00       0.001       81.274
     NS sqrt iter    3 1.00000000   0.697E-01       0.002       49.078
     NS sqrt iter    4 1.00000000   0.139E-02       0.002       47.671
     NS sqrt iter    5 1.00000000   0.190E-07       0.001       54.400
     Final NS sqrt iter    5 1.00000000   0.389E-08

     Est. extremal eigenvalues     -0.92895     1.60847  converged:  T
     TRS4 it   1 1.00000000   0.849E+00       0.000       16.128   0.100E-07
     TRS4 it   2 1.00000000   0.597E+00       0.001       32.256   0.100E-07
     TRS4 it   3 1.00000000   0.405E+00       0.001       32.256   0.100E-07
     TRS4 it   4 1.00000000   0.204E+00       0.001       32.256   0.100E-07
     TRS4 it   5 1.00000000   0.649E-01       0.001       32.256   0.100E-07
     TRS4 it   6 1.00000000   0.838E-02       0.001       32.256   0.100E-07
     TRS4 it   7 1.00000000   0.194E-03       0.001       32.256   0.100E-07
     TRS4 it   8 1.00000000   0.144E-06       0.001       32.256   0.100E-07
     TRS4 it   9 1.00000000   0.911E-13       0.001       32.256   0.100E-07
     Final TRS4 iteration    9 1.00000000   0.911E-13
     Chemical potential (mu):       0.00459
 
 PAO| energy:  -7.6988135329368426      penalty:   1.4383416716652483E-005
 PAO|CG| trace_G_new    6.7593680400809190E-004
 PAO|CG| trace_G_prev    2.1870669684326111E-003
 PAO|CG| trace_G_mix    2.7251353275691023E-007
 PAO|CG| trace_D    2.7580627455961581E-003
 PAO|CG| trace_D_Gnew  -1.6476711380218014E-006
 PAO|CG| beta:   0.30893626040155425     
 PAO| norm of gradient:   2.5998784664058656E-002
 PAO| energy improvement:  -2.3766707050043578E-004
 PAO| step     18                   -7.698813533  0.162E-02  0.217E+00     0.056
 PAO|LS| adapt:  T F F
 PAO|LS| adapt: scan_steps:    0.0000000000000000        0.0000000000000000        0.0000000000000000     
 PAO|LS| adapt: energies:   -7.6988135329368426        0.0000000000000000        0.0000000000000000     
 PAO| ======================= Iteration:        19 =============================

     Lanczos converged:  T threshold:   0.100E-02
     Est. extremal eigenvalues:    0.276E+01   0.195E+00
     Est. condition number :    0.142E+02
     NS sqrt iter    1 1.00000000   0.705E+00       0.001       56.362
     NS sqrt iter    2 1.00000000   0.324E+00       0.001      110.592
     NS sqrt iter    3 1.00000000   0.699E-01       0.001      110.592
     NS sqrt iter    4 1.00000000   0.139E-02       0.001       98.440
     NS sqrt iter    5 1.00000000   0.191E-07       0.001       49.940
     Final NS sqrt iter    5 1.00000000   0.444E-08

     Est. extremal eigenvalues     -0.92895     1.60861  converged:  T
     TRS4 it   1 1.00000000   0.849E+00       0.000       16.128   0.100E-07
     TRS4 it   2 1.00000000   0.597E+00       0.001       32.256   0.100E-07
     TRS4 it   3 1.00000000   0.405E+00       0.001       32.256   0.100E-07
     TRS4 it   4 1.00000000   0.203E+00       0.001       32.256   0.100E-07
     TRS4 it   5 1.00000000   0.648E-01       0.001       32.256   0.100E-07
     TRS4 it   6 1.00000000   0.836E-02       0.001       32.256   0.100E-07
     TRS4 it   7 1.00000000   0.194E-03       0.001       32.256   0.100E-07
     TRS4 it   8 1.00000000   0.145E-06       0.001       32.256   0.100E-07
     TRS4 it   9 1.00000000   0.935E-13       0.001       32.256   0.100E-07
     Final TRS4 iteration    9 1.00000000   0.935E-13
     Chemical potential (mu):       0.00441
 
 PAO| energy:  -7.6989242399465541      penalty:   1.4087684477908974E-005
 PAO|LS| adapt:  T T F
 PAO|LS| adapt: scan_steps:    0.0000000000000000       0.21743443918699432        0.0000000000000000     
 PAO|LS| adapt: energies:   -7.6988135329368426       -7.6989242399465541        0.0000000000000000     
 PAO| ======================= Iteration:        20 =============================

     Lanczos converged:  T threshold:   0.100E-02
     Est. extremal eigenvalues:    0.276E+01   0.195E+00
     Est. condition number :    0.142E+02
     NS sqrt iter    1 1.00000000   0.705E+00       0.001       64.512
     NS sqrt iter    2 1.00000000   0.324E+00       0.001      110.592
     NS sqrt iter    3 1.00000000   0.701E-01       0.001      110.454
     NS sqrt iter    4 1.00000000   0.140E-02       0.001      110.592
     NS sqrt iter    5 1.00000000   0.193E-07       0.001       54.528
     Final NS sqrt iter    5 1.00000000   0.457E-08

     Est. extremal eigenvalues     -0.92895     1.60875  converged:  T
     TRS4 it   1 1.00000000   0.849E+00       0.000       16.128   0.100E-07
     TRS4 it   2 1.00000000   0.597E+00       0.001       32.256   0.100E-07
     TRS4 it   3 1.00000000   0.404E+00       0.001       32.256   0.100E-07
     TRS4 it   4 1.00000000   0.203E+00       0.001       32.256   0.100E-07
     TRS4 it   5 1.00000000   0.646E-01       0.001       32.256   0.100E-07
     TRS4 it   6 1.00000000   0.835E-02       0.001       32.256   0.100E-07
     TRS4 it   7 1.00000000   0.194E-03       0.001       32.256   0.100E-07
     TRS4 it   8 1.00000000   0.146E-06       0.001       32.256   0.100E-07
     TRS4 it   9 1.00000000   0.951E-13       0.001       32.256   0.100E-07
     Final TRS4 iteration    9 1.00000000   0.951E-13
     Chemical potential (mu):       0.00423
 
 PAO| energy:  -7.6989617778893189      penalty:   1.3804242422388192E-005
 PAO|LS| adapt:  T T F
 PAO|LS| adapt: scan_steps:    0.0000000000000000       0.43486887837398863        0.0000000000000000     
 PAO|LS| adapt: energies:   -7.6988135329368426       -7.6989617778893189        0.0000000000000000     
 PAO| ======================= Iteration:        21 =============================

     Lanczos converged:  T threshold:   0.100E-02
     Est. extremal eigenvalues:    0.276E+01   0.194E+00
     Est. condition number :    0.142E+02
     NS sqrt iter    1 1.00000000   0.705E+00       0.001       64.512
     NS sqrt iter    2 1.00000000   0.324E+00       0.001      110.592
     NS sqrt iter    3 1.00000000   0.705E-01       0.001      110.592
     NS sqrt iter    4 1.00000000   0.142E-02       0.001      110.592
     NS sqrt iter    5 1.00000000   0.199E-07       0.001       56.320
     Final NS sqrt iter    5 1.00000000   0.419E-08

     Est. extremal eigenvalues     -0.92894     1.60904  converged:  T
     TRS4 it   1 1.00000000   0.849E+00       0.000       16.128   0.100E-07
     TRS4 it   2 1.00000000   0.597E+00       0.001       32.256   0.100E-07
     TRS4 it   3 1.00000000   0.404E+00       0.001       32.256   0.100E-07
     TRS4 it   4 1.00000000   0.203E+00       0.001       32.256   0.100E-07
     TRS4 it   5 1.00000000   0.644E-01       0.001       32.256   0.100E-07
     TRS4 it   6 1.00000000   0.831E-02       0.001       32.256   0.100E-07
     TRS4 it   7 1.00000000   0.194E-03       0.001       32.256   0.100E-07
     TRS4 it   8 1.00000000   0.148E-06       0.001       32.256   0.100E-07
     TRS4 it   9 1.00000000   0.978E-13       0.001       32.256   0.100E-07
     Final TRS4 iteration    9 1.00000000   0.978E-13
     Chemical potential (mu):       0.00387
 
 PAO| energy:  -7.6988148141682338      penalty:   1.3273612806401926E-005
 PAO|LS| Need extra step
 PAO|LS| adapt:  T T T
 PAO|LS| adapt: scan_steps:    0.0000000000000000       0.43486887837398863       0.86973775674797726     
 PAO|LS| adapt: energies:   -7.6988135329368426       -7.6989617778893189       -7.6988148141682338     
 PAO|LS| adapt: suggested step_size:   0.43581256280457875     
 PAO|LS| adapt: predicted energy  -7.6989617785844029     
 PAO| ======================= Iteration:        22 =============================

     Lanczos converged:  T threshold:   0.100E-02
     Est. extremal eigenvalues:    0.276E+01   0.195E+00
     Est. condition number :    0.142E+02
     NS sqrt iter    1 1.00000000   0.705E+00       0.001       62.238
     NS sqrt iter    2 1.00000000   0.324E+00       0.001      110.592
     NS sqrt iter    3 1.00000000   0.701E-01       0.001      110.592
     NS sqrt iter    4 1.00000000   0.140E-02       0.001      110.592
     NS sqrt iter    5 1.00000000   0.193E-07       0.001       53.973
     Final NS sqrt iter    5 1.00000000   0.457E-08

     Est. extremal eigenvalues     -0.92895     1.60875  converged:  T
     TRS4 it   1 1.00000000   0.849E+00       0.000       16.128   0.100E-07
     TRS4 it   2 1.00000000   0.597E+00       0.001       32.256   0.100E-07
     TRS4 it   3 1.00000000   0.404E+00       0.001       32.256   0.100E-07
     TRS4 it   4 1.00000000   0.203E+00       0.001       32.256   0.100E-07
     TRS4 it   5 1.00000000   0.646E-01       0.001       32.256   0.100E-07
     TRS4 it   6 1.00000000   0.835E-02       0.001       32.256   0.100E-07
     TRS4 it   7 1.00000000   0.194E-03       0.001       32.256   0.100E-07
     TRS4 it   8 1.00000000   0.146E-06       0.001       32.193   0.100E-07
     TRS4 it   9 1.00000000   0.951E-13       0.001       27.870   0.100E-07
     Final TRS4 iteration    9 1.00000000   0.951E-13
     Chemical potential (mu):       0.00423
 
 PAO| energy:  -7.6989617804199098      penalty:   1.3803038772556968E-005
 PAO|CG| trace_G_new    2.3531654803085942E-004
 PAO|CG| trace_G_prev    6.7593680400809190E-004
 PAO|CG| trace_G_mix    3.5495801376584454E-006
 PAO|CG| trace_D    9.4018881189739502E-004
 PAO|CG| trace_D_Gnew  -1.9467152282926407E-006
 PAO|CG| beta:   0.34288259866735471     
 PAO| norm of gradient:   1.5340030900583591E-002
 PAO| energy improvement:  -1.4824748306718760E-004
 PAO| step     22                   -7.698961780  0.959E-03  0.436E+00     0.072
 PAO|LS| adapt:  T F F
 PAO|LS| adapt: scan_steps:    0.0000000000000000        0.0000000000000000        0.0000000000000000     
 PAO|LS| adapt: energies:   -7.6989617804199098        0.0000000000000000        0.0000000000000000     
 PAO| ======================= Iteration:        23 =============================

     Lanczos converged:  T threshold:   0.100E-02
     Est. extremal eigenvalues:    0.276E+01   0.195E+00
     Est. condition number :    0.142E+02
     NS sqrt iter    1 1.00000000   0.705E+00       0.001       64.512
     NS sqrt iter    2 1.00000000   0.324E+00       0.001      110.592
     NS sqrt iter    3 1.00000000   0.701E-01       0.001      110.592
     NS sqrt iter    4 1.00000000   0.140E-02       0.001      110.592
     NS sqrt iter    5 1.00000000   0.194E-07       0.001       45.929
     Final NS sqrt iter    5 1.00000000   0.461E-08

     Est. extremal eigenvalues     -0.92895     1.60877  converged:  T
     TRS4 it   1 1.00000000   0.849E+00       0.000       16.128   0.100E-07
     TRS4 it   2 1.00000000   0.597E+00       0.001       32.256   0.100E-07
     TRS4 it   3 1.00000000   0.404E+00       0.001       32.256   0.100E-07
     TRS4 it   4 1.00000000   0.203E+00       0.001       32.256   0.100E-07
     TRS4 it   5 1.00000000   0.647E-01       0.001       32.256   0.100E-07
     TRS4 it   6 1.00000000   0.836E-02       0.001       32.256   0.100E-07
     TRS4 it   7 1.00000000   0.195E-03       0.001       32.256   0.100E-07
     TRS4 it   8 1.00000000   0.148E-06       0.001       32.256   0.100E-07
     TRS4 it   9 1.00000000   0.969E-13       0.001       32.256   0.100E-07
     Final TRS4 iteration    9 1.00000000   0.969E-13
     Chemical potential (mu):       0.00413
 
 PAO| energy:  -7.6990132335614714      penalty:   1.3136546993262812E-005
 PAO|LS| adapt:  T T F
 PAO|LS| adapt: scan_steps:    0.0000000000000000       0.43581256280457875        0.0000000000000000     
 PAO|LS| adapt: energies:   -7.6989617804199098       -7.6990132335614714        0.0000000000000000     
 PAO| ======================= Iteration:        24 =============================

     Lanczos converged:  T threshold:   0.100E-02
     Est. extremal eigenvalues:    0.276E+01   0.195E+00
     Est. condition number :    0.142E+02
     NS sqrt iter    1 1.00000000   0.705E+00       0.001       56.048
     NS sqrt iter    2 1.00000000   0.324E+00       0.001      110.592
     NS sqrt iter    3 1.00000000   0.702E-01       0.001      110.592
     NS sqrt iter    4 1.00000000   0.140E-02       0.001      110.592
     NS sqrt iter    5 1.00000000   0.194E-07       0.001       54.528
     Final NS sqrt iter    5 1.00000000   0.466E-08

     Est. extremal eigenvalues     -0.92895     1.60880  converged:  T
     TRS4 it   1 1.00000000   0.849E+00       0.000       16.128   0.100E-07
     TRS4 it   2 1.00000000   0.597E+00       0.001       32.256   0.100E-07
     TRS4 it   3 1.00000000   0.404E+00       0.001       32.256   0.100E-07
     TRS4 it   4 1.00000000   0.203E+00       0.001       32.256   0.100E-07
     TRS4 it   5 1.00000000   0.647E-01       0.001       32.256   0.100E-07
     TRS4 it   6 1.00000000   0.837E-02       0.001       32.256   0.100E-07
     TRS4 it   7 1.00000000   0.196E-03       0.001       32.256   0.100E-07
     TRS4 it   8 1.00000000   0.149E-06       0.001       32.256   0.100E-07
     TRS4 it   9 1.00000000   0.989E-13       0.001       32.256   0.100E-07
     Final TRS4 iteration    9 1.00000000   0.989E-13
     Chemical potential (mu):       0.00401
 
 PAO| energy:  -7.6989612259518321      penalty:   1.2498847978438406E-005
 PAO|LS| adapt:  T T T
 PAO|LS| adapt: scan_steps:    0.0000000000000000       0.43581256280457875       0.87162512560915750     
 PAO|LS| adapt: energies:   -7.6989617804199098       -7.6990132335614714       -7.6989612259518321     
 PAO|LS| adapt: suggested step_size:   0.43464475689209808     
 PAO|LS| adapt: predicted energy  -7.6990132339329103     
 PAO| ======================= Iteration:        25 =============================

     Lanczos converged:  T threshold:   0.100E-02
     Est. extremal eigenvalues:    0.276E+01   0.195E+00
     Est. condition number :    0.142E+02
     NS sqrt iter    1 1.00000000   0.705E+00       0.001       64.512
     NS sqrt iter    2 1.00000000   0.324E+00       0.001      108.444
     NS sqrt iter    3 1.00000000   0.701E-01       0.001      110.592
     NS sqrt iter    4 1.00000000   0.140E-02       0.001      110.592
     NS sqrt iter    5 1.00000000   0.194E-07       0.001       54.528
     Final NS sqrt iter    5 1.00000000   0.461E-08

     Est. extremal eigenvalues     -0.92895     1.60877  converged:  T
     TRS4 it   1 1.00000000   0.849E+00       0.001       16.128   0.100E-07
     TRS4 it   2 1.00000000   0.597E+00       0.001       32.256   0.100E-07
     TRS4 it   3 1.00000000   0.404E+00       0.001       32.256   0.100E-07
     TRS4 it   4 1.00000000   0.203E+00       0.001       32.256   0.100E-07
     TRS4 it   5 1.00000000   0.647E-01       0.001       32.256   0.100E-07
     TRS4 it   6 1.00000000   0.836E-02       0.001       32.256   0.100E-07
     TRS4 it   7 1.00000000   0.195E-03       0.001       32.256   0.100E-07
     TRS4 it   8 1.00000000   0.148E-06       0.001       32.256   0.100E-07
     TRS4 it   9 1.00000000   0.969E-13       0.001       32.256   0.100E-07
     Final TRS4 iteration    9 1.00000000   0.969E-13
     Chemical potential (mu):       0.00413
 
 PAO| energy:  -7.6990132334770829      penalty:   1.3138294170693102E-005
 PAO|CG| trace_G_new    1.0276730675437589E-004
 PAO|CG| trace_G_prev    2.3531654803085942E-004
 PAO|CG| trace_G_mix    7.9164473948609437E-007
 PAO|CG| trace_D    3.4718810379140571E-004
 PAO|CG| trace_D_Gnew  -3.9228971568292762E-007
 PAO|CG| beta:   0.43335525218361060     
 PAO| norm of gradient:   1.0137421109649923E-002
 PAO| energy improvement:  -5.1453057173134198E-005
 PAO| step     25                   -7.699013233  0.634E-03  0.435E+00     0.054
 PAO|LS| adapt:  T F F
 PAO|LS| adapt: scan_steps:    0.0000000000000000        0.0000000000000000        0.0000000000000000     
 PAO|LS| adapt: energies:   -7.6990132334770829        0.0000000000000000        0.0000000000000000     
 PAO| ======================= Iteration:        26 =============================

     Lanczos converged:  T threshold:   0.100E-02
     Est. extremal eigenvalues:    0.276E+01   0.195E+00
     Est. condition number :    0.142E+02
     NS sqrt iter    1 1.00000000   0.705E+00       0.002       34.169
     NS sqrt iter    2 1.00000000   0.324E+00       0.001       74.281
     NS sqrt iter    3 1.00000000   0.700E-01       0.002       73.170
     NS sqrt iter    4 1.00000000   0.140E-02       0.001      102.558
     NS sqrt iter    5 1.00000000   0.193E-07       0.001       54.528
     Final NS sqrt iter    5 1.00000000   0.449E-08

     Est. extremal eigenvalues     -0.92896     1.60909  converged:  T
     TRS4 it   1 1.00000000   0.849E+00       0.001       16.128   0.100E-07
     TRS4 it   2 1.00000000   0.597E+00       0.001       32.256   0.100E-07
     TRS4 it   3 1.00000000   0.404E+00       0.001       32.256   0.100E-07
     TRS4 it   4 1.00000000   0.203E+00       0.001       32.256   0.100E-07
     TRS4 it   5 1.00000000   0.646E-01       0.001       32.256   0.100E-07
     TRS4 it   6 1.00000000   0.834E-02       0.001       32.256   0.100E-07
     TRS4 it   7 1.00000000   0.193E-03       0.001       32.256   0.100E-07
     TRS4 it   8 1.00000000   0.145E-06       0.001       32.256   0.100E-07
     TRS4 it   9 1.00000000   0.932E-13       0.001       32.256   0.100E-07
     Final TRS4 iteration    9 1.00000000   0.932E-13
     Chemical potential (mu):       0.00437
 
 PAO| energy:  -7.6990233053993835      penalty:   1.2404699564004602E-005
 PAO|LS| adapt:  T T F
 PAO|LS| adapt: scan_steps:    0.0000000000000000       0.43464475689209808        0.0000000000000000     
 PAO|LS| adapt: energies:   -7.6990132334770829       -7.6990233053993835        0.0000000000000000     
 PAO| ======================= Iteration:        27 =============================

     Lanczos converged:  T threshold:   0.100E-02
     Est. extremal eigenvalues:    0.276E+01   0.195E+00
     Est. condition number :    0.142E+02
     NS sqrt iter    1 1.00000000   0.704E+00       0.001       45.714
     NS sqrt iter    2 1.00000000   0.323E+00       0.001       96.528
     NS sqrt iter    3 1.00000000   0.699E-01       0.001      110.592
     NS sqrt iter    4 1.00000000   0.139E-02       0.001      110.592
     NS sqrt iter    5 1.00000000   0.192E-07       0.001       54.400
     Final NS sqrt iter    5 1.00000000   0.442E-08

     Est. extremal eigenvalues     -0.92896     1.60940  converged:  T
     TRS4 it   1 1.00000000   0.850E+00       0.000       16.128   0.100E-07
     TRS4 it   2 1.00000000   0.597E+00       0.001       32.256   0.100E-07
     TRS4 it   3 1.00000000   0.404E+00       0.001       32.256   0.100E-07
     TRS4 it   4 1.00000000   0.203E+00       0.001       32.256   0.100E-07
     TRS4 it   5 1.00000000   0.645E-01       0.001       32.256   0.100E-07
     TRS4 it   6 1.00000000   0.832E-02       0.001       32.256   0.100E-07
     TRS4 it   7 1.00000000   0.192E-03       0.001       32.256   0.100E-07
     TRS4 it   8 1.00000000   0.143E-06       0.001       32.256   0.100E-07
     TRS4 it   9 1.00000000   0.902E-13       0.001       32.256   0.100E-07
     Final TRS4 iteration    9 1.00000000   0.902E-13
     Chemical potential (mu):       0.00462
 
 PAO| energy:  -7.6989638973909873      penalty:   1.1698057433852881E-005
 PAO|LS| adapt:  T T T
 PAO|LS| adapt: scan_steps:    0.0000000000000000       0.43464475689209808       0.86928951378419617     
 PAO|LS| adapt: energies:   -7.6990132334770829       -7.6990233053993835       -7.6989638973909873     
 PAO|LS| adapt: suggested step_size:   0.28032918020716041     
 PAO|LS| adapt: predicted energy  -7.6990276844505843     
 PAO| ======================= Iteration:        28 =============================

     Lanczos converged:  T threshold:   0.100E-02
     Est. extremal eigenvalues:    0.276E+01   0.195E+00
     Est. condition number :    0.142E+02
     NS sqrt iter    1 1.00000000   0.705E+00       0.001       63.358
     NS sqrt iter    2 1.00000000   0.324E+00       0.001      110.592
     NS sqrt iter    3 1.00000000   0.701E-01       0.001      106.966
     NS sqrt iter    4 1.00000000   0.140E-02       0.001      110.592
     NS sqrt iter    5 1.00000000   0.193E-07       0.001       54.528
     Final NS sqrt iter    5 1.00000000   0.454E-08

     Est. extremal eigenvalues     -0.92895     1.60898  converged:  T
     TRS4 it   1 1.00000000   0.849E+00       0.000       16.128   0.100E-07
     TRS4 it   2 1.00000000   0.597E+00       0.001       32.256   0.100E-07
     TRS4 it   3 1.00000000   0.404E+00       0.001       32.256   0.100E-07
     TRS4 it   4 1.00000000   0.203E+00       0.001       32.256   0.100E-07
     TRS4 it   5 1.00000000   0.646E-01       0.001       32.256   0.100E-07
     TRS4 it   6 1.00000000   0.835E-02       0.001       32.256   0.100E-07
     TRS4 it   7 1.00000000   0.194E-03       0.001       32.256   0.100E-07
     TRS4 it   8 1.00000000   0.146E-06       0.001       32.256   0.100E-07
     TRS4 it   9 1.00000000   0.945E-13       0.001       32.256   0.100E-07
     Final TRS4 iteration    9 1.00000000   0.945E-13
     Chemical potential (mu):       0.00429
 
 PAO| energy:  -7.6990276734249843      penalty:   1.2662043957314500E-005
 PAO|CG| trace_G_new    4.5641063926696685E-005
 PAO|CG| trace_G_prev    1.0276730675437589E-004
 PAO|CG| trace_G_mix    1.6810295378818549E-007
 PAO|CG| trace_D    1.6830811444153550E-004
 PAO|CG| trace_D_Gnew  -5.1617567308076415E-008
 PAO|CG| beta:   0.44248470071900797     
 PAO| norm of gradient:   6.7558170436074335E-003
 PAO| energy improvement:  -1.4439947901401240E-005
 PAO| step     28                   -7.699027673  0.422E-03  0.280E+00     0.058
 PAO|LS| adapt:  T F F
 PAO|LS| adapt: scan_steps:    0.0000000000000000        0.0000000000000000        0.0000000000000000     
 PAO|LS| adapt: energies:   -7.6990276734249843        0.0000000000000000        0.0000000000000000     
 PAO| ======================= Iteration:        29 =============================

     Lanczos converged:  T threshold:   0.100E-02
     Est. extremal eigenvalues:    0.276E+01   0.195E+00
     Est. condition number :    0.142E+02
     NS sqrt iter    1 1.00000000   0.704E+00       0.001       64.512
     NS sqrt iter    2 1.00000000   0.323E+00       0.001      110.592
     NS sqrt iter    3 1.00000000   0.700E-01       0.001      110.592
     NS sqrt iter    4 1.00000000   0.139E-02       0.001      110.592
     NS sqrt iter    5 1.00000000   0.193E-07       0.001       54.528
     Final NS sqrt iter    5 1.00000000   0.443E-08

     Est. extremal eigenvalues     -0.92896     1.60910  converged:  T
     TRS4 it   1 1.00000000   0.849E+00       0.000       16.128   0.100E-07
     TRS4 it   2 1.00000000   0.597E+00       0.001       24.620   0.100E-07
     TRS4 it   3 1.00000000   0.404E+00       0.001       32.256   0.100E-07
     TRS4 it   4 1.00000000   0.203E+00       0.001       32.256   0.100E-07
     TRS4 it   5 1.00000000   0.645E-01       0.001       32.256   0.100E-07
     TRS4 it   6 1.00000000   0.831E-02       0.001       32.256   0.100E-07
     TRS4 it   7 1.00000000   0.192E-03       0.001       32.256   0.100E-07
     TRS4 it   8 1.00000000   0.143E-06       0.001       32.256   0.100E-07
     TRS4 it   9 1.00000000   0.905E-13       0.001       32.256   0.100E-07
     Final TRS4 iteration    9 1.00000000   0.905E-13
     Chemical potential (mu):       0.00450
 
 PAO| energy:  -7.6990388320176804      penalty:   1.2170301505361861E-005
 PAO|LS| adapt:  T T F
 PAO|LS| adapt: scan_steps:    0.0000000000000000       0.28032918020716041        0.0000000000000000     
 PAO|LS| adapt: energies:   -7.6990276734249843       -7.6990388320176804        0.0000000000000000     
 PAO| ======================= Iteration:        30 =============================

     Lanczos converged:  T threshold:   0.100E-02
     Est. extremal eigenvalues:    0.276E+01   0.195E+00
     Est. condition number :    0.142E+02
     NS sqrt iter    1 1.00000000   0.704E+00       0.001       64.512
     NS sqrt iter    2 1.00000000   0.323E+00       0.001      109.539
     NS sqrt iter    3 1.00000000   0.699E-01       0.001       99.811
     NS sqrt iter    4 1.00000000   0.139E-02       0.001       93.912
     NS sqrt iter    5 1.00000000   0.192E-07       0.001       54.400
     Final NS sqrt iter    5 1.00000000   0.437E-08

     Est. extremal eigenvalues     -0.92896     1.60923  converged:  T
     TRS4 it   1 1.00000000   0.850E+00       0.000       16.128   0.100E-07
     TRS4 it   2 1.00000000   0.597E+00       0.001       32.256   0.100E-07
     TRS4 it   3 1.00000000   0.404E+00       0.001       32.256   0.100E-07
     TRS4 it   4 1.00000000   0.203E+00       0.001       30.693   0.100E-07
     TRS4 it   5 1.00000000   0.644E-01       0.001       32.256   0.100E-07
     TRS4 it   6 1.00000000   0.828E-02       0.001       32.256   0.100E-07
     TRS4 it   7 1.00000000   0.190E-03       0.001       32.256   0.100E-07
     TRS4 it   8 1.00000000   0.140E-06       0.001       32.256   0.100E-07
     TRS4 it   9 1.00000000   0.876E-13       0.001       32.256   0.100E-07
     Final TRS4 iteration    9 1.00000000   0.876E-13
     Chemical potential (mu):       0.00473
 
 PAO| energy:  -7.6990467065829904      penalty:   1.1689845740630226E-005
 PAO|LS| adapt:  T T F
 PAO|LS| adapt: scan_steps:    0.0000000000000000       0.56065836041432082        0.0000000000000000     
 PAO|LS| adapt: energies:   -7.6990276734249843       -7.6990467065829904        0.0000000000000000     
 PAO| ======================= Iteration:        31 =============================

     Lanczos converged:  T threshold:   0.100E-02
     Est. extremal eigenvalues:    0.276E+01   0.194E+00
     Est. condition number :    0.142E+02
     NS sqrt iter    1 1.00000000   0.703E+00       0.001       64.512
     NS sqrt iter    2 1.00000000   0.323E+00       0.001      110.592
     NS sqrt iter    3 1.00000000   0.697E-01       0.001      110.592
     NS sqrt iter    4 1.00000000   0.138E-02       0.001      110.592
     NS sqrt iter    5 1.00000000   0.191E-07       0.001       54.272
     Final NS sqrt iter    5 1.00000000   0.351E-08

     Est. extremal eigenvalues     -0.92897     1.60948  converged:  T
     TRS4 it   1 1.00000000   0.850E+00       0.000       16.128   0.100E-07
     TRS4 it   2 1.00000000   0.597E+00       0.001       32.256   0.100E-07
     TRS4 it   3 1.00000000   0.404E+00       0.001       32.256   0.100E-07
     TRS4 it   4 1.00000000   0.202E+00       0.001       32.256   0.100E-07
     TRS4 it   5 1.00000000   0.642E-01       0.001       32.256   0.100E-07
     TRS4 it   6 1.00000000   0.821E-02       0.001       32.256   0.100E-07
     TRS4 it   7 1.00000000   0.187E-03       0.001       32.256   0.100E-07
     TRS4 it   8 1.00000000   0.135E-06       0.001       32.256   0.100E-07
     TRS4 it   9 1.00000000   0.808E-13       0.001       32.256   0.100E-07
     Final TRS4 iteration    9 1.00000000   0.808E-13
     Chemical potential (mu):       0.00517
 
 PAO| energy:  -7.6990526022340937      penalty:   1.0762427750047979E-005
 PAO|LS| Need extra step
 PAO|LS| adapt:  T T F
 PAO|LS| adapt: scan_steps:    0.0000000000000000        1.1213167208286416        0.0000000000000000     
 PAO|LS| adapt: energies:   -7.6990276734249843       -7.6990526022340937        0.0000000000000000     
 PAO| ======================= Iteration:        32 =============================

     Lanczos converged:  T threshold:   0.100E-02
     Est. extremal eigenvalues:    0.275E+01   0.194E+00
     Est. condition number :    0.142E+02
     NS sqrt iter    1 1.00000000   0.702E+00       0.001       64.512
     NS sqrt iter    2 1.00000000   0.322E+00       0.001      110.592
     NS sqrt iter    3 1.00000000   0.693E-01       0.001      110.592
     NS sqrt iter    4 1.00000000   0.137E-02       0.001      110.592
     NS sqrt iter    5 1.00000000   0.190E-07       0.001       54.272
     Final NS sqrt iter    5 1.00000000   0.382E-08

     Est. extremal eigenvalues     -0.92898     1.60996  converged:  T
     TRS4 it   1 1.00000000   0.850E+00       0.000       16.128   0.100E-07
     TRS4 it   2 1.00000000   0.597E+00       0.001       32.256   0.100E-07
     TRS4 it   3 1.00000000   0.404E+00       0.001       32.256   0.100E-07
     TRS4 it   4 1.00000000   0.202E+00       0.001       32.256   0.100E-07
     TRS4 it   5 1.00000000   0.637E-01       0.001       32.256   0.100E-07
     TRS4 it   6 1.00000000   0.808E-02       0.001       32.256   0.100E-07
     TRS4 it   7 1.00000000   0.180E-03       0.001       32.256   0.100E-07
     TRS4 it   8 1.00000000   0.125E-06       0.001       32.256   0.100E-07
     TRS4 it   9 1.00000000   0.691E-13       0.001       32.256   0.100E-07
     Final TRS4 iteration    9 1.00000000   0.691E-13
     Chemical potential (mu):       0.00606
 
 PAO| energy:  -7.6990249494202558      penalty:   9.0390413046905547E-006
 PAO|LS| Need extra step
 PAO|LS| adapt:  T T T
 PAO|LS| adapt: scan_steps:    0.0000000000000000        1.1213167208286416        2.2426334416572833     
 PAO|LS| adapt: energies:   -7.6990276734249843       -7.6990526022340937       -7.6990249494202558     
 PAO|LS| adapt: suggested step_size:    1.0922716678384758     
 PAO|LS| adapt: predicted energy  -7.6990526198738172     
 PAO| ======================= Iteration:        33 =============================

     Lanczos converged:  T threshold:   0.100E-02
     Est. extremal eigenvalues:    0.276E+01   0.194E+00
     Est. condition number :    0.142E+02
     NS sqrt iter    1 1.00000000   0.703E+00       0.001       64.512
     NS sqrt iter    2 1.00000000   0.323E+00       0.001      110.592
     NS sqrt iter    3 1.00000000   0.697E-01       0.001      110.592
     NS sqrt iter    4 1.00000000   0.138E-02       0.001      104.572
     NS sqrt iter    5 1.00000000   0.191E-07       0.001       52.091
     Final NS sqrt iter    5 1.00000000   0.351E-08

     Est. extremal eigenvalues     -0.92897     1.60947  converged:  T
     TRS4 it   1 1.00000000   0.850E+00       0.000       16.128   0.100E-07
     TRS4 it   2 1.00000000   0.597E+00       0.001       32.256   0.100E-07
     TRS4 it   3 1.00000000   0.404E+00       0.001       32.256   0.100E-07
     TRS4 it   4 1.00000000   0.202E+00       0.001       32.256   0.100E-07
     TRS4 it   5 1.00000000   0.642E-01       0.001       32.256   0.100E-07
     TRS4 it   6 1.00000000   0.822E-02       0.001       32.256   0.100E-07
     TRS4 it   7 1.00000000   0.187E-03       0.001       24.839   0.100E-07
     TRS4 it   8 1.00000000   0.135E-06       0.001       32.256   0.100E-07
     TRS4 it   9 1.00000000   0.808E-13       0.002       17.923   0.100E-07
     Final TRS4 iteration    9 1.00000000   0.808E-13
     Chemical potential (mu):       0.00515
 
 PAO| energy:  -7.6990526195497440      penalty:   1.0809384670334183E-005
 PAO|CG| trace_G_new    1.1200508886003663E-004
[...]
     NS sqrt iter    3 1.00000000   0.432E-01       0.001      110.592
     NS sqrt iter    4 1.00000000   0.523E-03       0.001      110.336
     NS sqrt iter    5 1.00000000   0.133E-08       0.001       36.864
     Final NS sqrt iter    5 1.00000000   0.844E-10

     Est. extremal eigenvalues     -0.92888     1.55933  converged:  T
     TRS4 it   1 1.00000000   0.862E+00       0.000       16.128   0.100E-07
     TRS4 it   2 1.00000000   0.617E+00       0.001       32.256   0.100E-07
     TRS4 it   3 1.00000000   0.443E+00       0.001       32.256   0.100E-07
     TRS4 it   4 1.00000000   0.270E+00       0.001       32.256   0.100E-07
     TRS4 it   5 1.00000000   0.133E+00       0.001       32.256   0.100E-07
     TRS4 it   6 1.00000000   0.414E-01       0.001       32.256   0.100E-07
     TRS4 it   7 1.00000000   0.567E-02       0.001       32.256   0.100E-07
     TRS4 it   8 1.00000000   0.141E-03       0.001       32.256   0.100E-07
     TRS4 it   9 1.00000000   0.902E-07       0.001       32.256   0.100E-07
     TRS4 it  10 1.00000000   0.363E-13       0.001       32.256   0.100E-07
     Final TRS4 iteration   10 1.00000000   0.363E-13
     Chemical potential (mu):      -0.07459
 
 PAO| energy:  -7.6986018628091522      penalty:   3.5189056039288799E-011
 PAO|LS| Need extra step
 PAO|LS| adapt:  T T T
 PAO|LS| adapt: scan_steps:    0.0000000000000000       0.20000000000000001       0.40000000000000002     
 PAO|LS| adapt: energies:   -7.6986018627952459       -7.6986018628150381       -7.6986018628091522     
 PAO|LS| adapt: suggested step_size:   0.25415585763204318     
 PAO|LS| adapt: predicted energy  -7.6986018628159796     
 PAO| ======================= Iteration:       987 =============================

     Lanczos converged:  T threshold:   0.100E-02
     Est. extremal eigenvalues:    0.247E+01   0.202E+00
     Est. condition number :    0.122E+02
     NS sqrt iter    1 1.00000000   0.627E+00       0.002       41.443
     NS sqrt iter    2 1.00000000   0.265E+00       0.001       82.536
     NS sqrt iter    3 1.00000000   0.432E-01       0.001      110.592
     NS sqrt iter    4 1.00000000   0.523E-03       0.001      110.336
     NS sqrt iter    5 1.00000000   0.133E-08       0.001       36.864
     Final NS sqrt iter    5 1.00000000   0.844E-10

     Est. extremal eigenvalues     -0.92888     1.55933  converged:  T
     TRS4 it   1 1.00000000   0.862E+00       0.000       16.128   0.100E-07
     TRS4 it   2 1.00000000   0.617E+00       0.001       32.256   0.100E-07
     TRS4 it   3 1.00000000   0.443E+00       0.001       32.256   0.100E-07
     TRS4 it   4 1.00000000   0.270E+00       0.001       32.256   0.100E-07
     TRS4 it   5 1.00000000   0.133E+00       0.001       32.256   0.100E-07
     TRS4 it   6 1.00000000   0.414E-01       0.001       32.256   0.100E-07
     TRS4 it   7 1.00000000   0.567E-02       0.001       32.256   0.100E-07
     TRS4 it   8 1.00000000   0.141E-03       0.001       32.256   0.100E-07
     TRS4 it   9 1.00000000   0.902E-07       0.001       32.256   0.100E-07
     TRS4 it  10 1.00000000   0.373E-13       0.001       32.256   0.100E-07
     Final TRS4 iteration   10 1.00000000   0.373E-13
     Chemical potential (mu):      -0.07459
 
 PAO| energy:  -7.6986018628159840      penalty:   3.5246365332247255E-011
 PAO|CG| warming up with steepest descent
 PAO|CG| beta:    0.0000000000000000     
 PAO| norm of gradient:   7.5684973858241416E-006
 PAO| energy improvement:  -2.0738077921578224E-011
 PAO| step    987                   -7.698601863  0.473E-06  0.254E+00     0.076
 PAO| converged after          987  steps :-)
 PAO| Recalculating energy after mixing.

     Lanczos converged:  T threshold:   0.100E-02
     Est. extremal eigenvalues:    0.247E+01   0.202E+00
     Est. condition number :    0.122E+02
     NS sqrt iter    1 1.00000000   0.627E+00       0.001       64.365
     NS sqrt iter    2 1.00000000   0.265E+00       0.001      110.592
     NS sqrt iter    3 1.00000000   0.432E-01       0.001      110.592
     NS sqrt iter    4 1.00000000   0.523E-03       0.001      110.336
     NS sqrt iter    5 1.00000000   0.133E-08       0.001       36.864
     Final NS sqrt iter    5 1.00000000   0.844E-10

     Est. extremal eigenvalues     -0.92888     1.55933  converged:  T
     TRS4 it   1 1.00000000   0.862E+00       0.000       16.128   0.100E-07
     TRS4 it   2 1.00000000   0.617E+00       0.001       32.256   0.100E-07
     TRS4 it   3 1.00000000   0.443E+00       0.001       32.256   0.100E-07
     TRS4 it   4 1.00000000   0.270E+00       0.001       32.256   0.100E-07
     TRS4 it   5 1.00000000   0.133E+00       0.001       32.256   0.100E-07
     TRS4 it   6 1.00000000   0.414E-01       0.001       32.256   0.100E-07
     TRS4 it   7 1.00000000   0.567E-02       0.001       32.256   0.100E-07
     TRS4 it   8 1.00000000   0.141E-03       0.001       32.256   0.100E-07
     TRS4 it   9 1.00000000   0.902E-07       0.001       32.256   0.100E-07
     TRS4 it  10 1.00000000   0.372E-13       0.001       32.256   0.100E-07
     Final TRS4 iteration   10 1.00000000   0.372E-13
     Chemical potential (mu):      -0.07460
 
 PAO| energy:  -7.6986018628107988      penalty:   3.5296578727036537E-011
 PAO| Writing restart file.
     Est. extremal eigenvalues     -0.92888     1.55933  converged:  T
     TRS4 it   1 1.00000000   0.862E+00       0.000       16.128   0.100E-07
     TRS4 it   2 1.00000000   0.617E+00       0.001       32.256   0.100E-07
     TRS4 it   3 1.00000000   0.443E+00       0.001       32.256   0.100E-07
     TRS4 it   4 1.00000000   0.270E+00       0.001       32.256   0.100E-07
     TRS4 it   5 1.00000000   0.133E+00       0.001       32.256   0.100E-07
     TRS4 it   6 1.00000000   0.414E-01       0.001       32.256   0.100E-07
     TRS4 it   7 1.00000000   0.567E-02       0.001       32.256   0.100E-07
     TRS4 it   8 1.00000000   0.141E-03       0.001       32.256   0.100E-07
     TRS4 it   9 1.00000000   0.902E-07       0.001       32.256   0.100E-07
     TRS4 it  10 1.00000000   0.372E-13       0.001       32.256   0.100E-07
     Final TRS4 iteration   10 1.00000000   0.372E-13
     Chemical potential (mu):      -0.07460

 SCF     1       -34.448459015       -34.448459015    2.279037

*********************************************************
 Using MIXING_FRACTION=0.450 to mix KS matrix:  iscf=  2
 KS_nw=0.450*KS + 0.550*KS_old
*********************************************************
     Est. extremal eigenvalues     -0.92888     1.55933  converged:  T
     TRS4 it   1 1.00000000   0.862E+00       0.000       16.128   0.100E-07
     TRS4 it   2 1.00000000   0.617E+00       0.001       32.256   0.100E-07
     TRS4 it   3 1.00000000   0.443E+00       0.001       32.256   0.100E-07
     TRS4 it   4 1.00000000   0.270E+00       0.001       32.256   0.100E-07
     TRS4 it   5 1.00000000   0.133E+00       0.001       32.256   0.100E-07
     TRS4 it   6 1.00000000   0.414E-01       0.001       32.256   0.100E-07
     TRS4 it   7 1.00000000   0.567E-02       0.001       32.256   0.100E-07
     TRS4 it   8 1.00000000   0.141E-03       0.001       32.256   0.100E-07
     TRS4 it   9 1.00000000   0.902E-07       0.001       32.256   0.100E-07
     TRS4 it  10 1.00000000   0.359E-13       0.001       32.256   0.100E-07
     Final TRS4 iteration   10 1.00000000   0.359E-13
     Chemical potential (mu):      -0.07460

 SCF     2       -34.448459015         0.000000000    2.278116

 PAO| Storing density matrix for ASPC guess in slot:           1

 ENERGY| Total FORCE_EVAL ( QS ) energy (a.u.):              -34.448459015339196


 -------------------------------------------------------------------------------
 -                                                                             -
 -                                DBCSR STATISTICS                             -
 -                                                                             -
 -------------------------------------------------------------------------------
 COUNTER                                    TOTAL       BLAS       SMM       ACC
 flops     5 x     5 x     4                32000       0.0%    100.0%      0.0%
 flops    13 x     5 x     4                33280       0.0%    100.0%      0.0%
 flops     5 x    13 x     4                33280       0.0%    100.0%      0.0%
 flops    13 x    13 x     4                64896       0.0%    100.0%      0.0%
 flops     4 x     4 x     5              7710720       0.0%    100.0%      0.0%
 flops     5 x     4 x     5              9382400       0.0%    100.0%      0.0%
 flops     4 x     4 x    13             10023936       0.0%    100.0%      0.0%
 flops    13 x     4 x     5             12197120       0.0%    100.0%      0.0%
 flops     5 x     4 x    13             12197120       0.0%    100.0%      0.0%
 flops     5 x     4 x     4             14860160       0.0%    100.0%      0.0%
 flops    13 x     4 x    13             15856256       0.0%    100.0%      0.0%
 flops    13 x     4 x     4             19853184       0.0%    100.0%      0.0%
 flops     4 x     4 x     4            998481536       0.0%    100.0%      0.0%
 flops inhomo. stacks                           0       0.0%      0.0%      0.0%
 flops total                         1.100726E+09       0.0%    100.0%      0.0%
 flops max/rank                      1.100726E+09       0.0%    100.0%      0.0%
 matmuls inhomo. stacks                         0       0.0%      0.0%      0.0%
 matmuls total                            8119413       0.0%    100.0%      0.0%
 number of processed stacks                 65184       0.0%    100.0%      0.0%
 average stack size                                     0.0     124.6       0.0
 marketing flops                     1.797863E+09
 -------------------------------------------------------------------------------
 # multiplications                          54440
 max memory usage/rank             321.052672E+06
 # max total images/rank                        1
 # max 3D layers                                1
 # MPI messages exchanged                       0
 MPI messages size (bytes):
  total size                         0.000000E+00
  min size                           0.000000E+00
  max size                           0.000000E+00
  average size                       0.000000E+00
 MPI breakdown and total messages size (bytes):
             size <=      128                   0                        0
       128 < size <=     8192                   0                        0
      8192 < size <=    32768                   0                        0
     32768 < size <=   131072                   0                        0
    131072 < size <=  4194304                   0                        0
   4194304 < size <= 16777216                   0                        0
  16777216 < size                               0                        0
 -------------------------------------------------------------------------------

 MEMORY| Estimated peak process memory [MiB]                                 307

 -------------------------------------------------------------------------------
 -                                                                             -
 -                           R E F E R E N C E S                               -
 -                                                                             -
 -------------------------------------------------------------------------------
 
 CP2K version 7.0 (Development Version), the CP2K developers group (2018).
 CP2K is freely available from https://www.cp2k.org/ .

 Schuett, O; VandeVondele, J. 
 Journal of Chemical Theory and Computation, 14, (2018). 
 Machine Learning Adaptive Basis Sets for Efficient Large Scale Density Functional Theory Simulation.
 https://dx.doi.org/10.1021/acs.jctc.8b00378


 Schuett, Ole; Messmer, Peter; Hutter, Juerg; VandeVondele, Joost. 
 Electronic Structure Calculations on Graphics Processing Units, John Wiley & Sons, Ltd, 173-190 (2016). 
 GPU-Accelerated Sparse Matrix-Matrix Multiplication for Linear Scaling Density Functional Theory.
 https://dx.doi.org/10.1002/9781118670712.ch8


 Borstnik, U; VandeVondele, J; Weber, V; Hutter, J. 
 PARALLEL COMPUTING, 40 (5-6), 47-58 (2014). 
 Sparse matrix multiplication: The distributed block-compressed sparse
 row library.
 https://dx.doi.org/10.1016/j.parco.2014.03.012


 Hutter, J; Iannuzzi, M; Schiffmann, F; VandeVondele, J. 
 WILEY INTERDISCIPLINARY REVIEWS-COMPUTATIONAL MOLECULAR SCIENCE, 4 (1), 15-25 (2014). 
 CP2K: atomistic simulations of condensed matter systems.
 https://dx.doi.org/10.1002/wcms.1159


 VandeVondele, J; Borstnik, U; Hutter, J. 
 JOURNAL OF CHEMICAL THEORY AND COMPUTATION, 8 (10), 3565-3573 (2012). 
 Linear Scaling Self-Consistent Field Calculations with Millions of Atoms
 in the Condensed Phase.
 https://dx.doi.org/10.1021/ct200897x


 VandeVondele, J; Hutter, J. 
 JOURNAL OF CHEMICAL PHYSICS, 127 (11), 114105 (2007). 
 Gaussian basis sets for accurate calculations on molecular systems in
 gas and condensed phases.
 https://dx.doi.org/10.1063/1.2770708


 Krack, M. 
 THEORETICAL CHEMISTRY ACCOUNTS, 114 (1-3), 145-152 (2005). 
 Pseudopotentials for H to Kr optimized for gradient-corrected
 exchange-correlation functionals.
 https://dx.doi.org/10.1007/s00214-005-0655-y


 VandeVondele, J; Krack, M; Mohamed, F; Parrinello, M; Chassaing, T;
 Hutter, J. COMPUTER PHYSICS COMMUNICATIONS, 167 (2), 103-128 (2005). 
 QUICKSTEP: Fast and accurate density functional calculations using a
 mixed Gaussian and plane waves approach.
 https://dx.doi.org/10.1016/j.cpc.2004.12.014


 Frigo, M; Johnson, SG. 
 PROCEEDINGS OF THE IEEE, 93 (2), 216-231 (2005). 
 The design and implementation of FFTW3.
 https://dx.doi.org/10.1109/JPROC.2004.840301


 Niklasson, AMN; Tymczak, CJ; Challacombe, M. 
 JOURNAL OF CHEMICAL PHYSICS, 118 (19), 8611-8620 (2003). 
 Trace resetting density matrix purification in O(N)
 self-consistent-field theory.
 https://dx.doi.org/10.1063/1.1559913


 Hartwigsen, C; Goedecker, S; Hutter, J. 
 PHYSICAL REVIEW B, 58 (7), 3641-3662 (1998). 
 Relativistic separable dual-space Gaussian pseudopotentials from H to Rn.
 https://dx.doi.org/10.1103/PhysRevB.58.3641


 Lippert, G; Hutter, J; Parrinello, M. 
 MOLECULAR PHYSICS, 92 (3), 477-487 (1997). 
 A hybrid Gaussian and plane wave density functional scheme.
 https://dx.doi.org/10.1080/002689797170220


 Perdew, JP; Burke, K; Ernzerhof, M. 
 PHYSICAL REVIEW LETTERS, 77 (18), 3865-3868 (1996). 
 Generalized gradient approximation made simple.
 https://dx.doi.org/10.1103/PhysRevLett.77.3865


 Goedecker, S; Teter, M; Hutter, J. 
 PHYSICAL REVIEW B, 54 (3), 1703-1710 (1996). 
 Separable dual-space Gaussian pseudopotentials.
 https://dx.doi.org/10.1103/PhysRevB.54.1703


 -------------------------------------------------------------------------------
 -                                                                             -
 -                                T I M I N G                                  -
 -                                                                             -
 -------------------------------------------------------------------------------
 SUBROUTINE                       CALLS  ASD         SELF TIME        TOTAL TIME
                                MAXIMUM       AVERAGE  MAXIMUM  AVERAGE  MAXIMUM
 CP2K                                 1  1.0    0.030    0.030   56.273   56.273
 qs_energies                          1  2.0    0.000    0.000   55.843   55.843
 ls_scf                               1  3.0    0.000    0.000   55.718   55.718
 ls_scf_main                          7  4.0    0.001    0.001   34.203   34.203
 ls_scf_dm_to_ks                     15  5.0    0.000    0.000   34.053   34.053
 qs_ks_update_qs_env                 16  6.0    0.000    0.000   26.063   26.063
 rebuild_ks_matrix                   16  7.0    0.000    0.000   26.063   26.063
 qs_ks_build_kohn_sham_matrix        16  8.0    0.003    0.003   26.063   26.063
 pao_update                           7  4.0    0.028    0.028   19.132   19.132
 pao_calc_energy                    993  5.0    0.011    0.011   17.354   17.354
 qs_vxc_create                       16  9.0    0.000    0.000   15.014   15.014
 xc_vxc_pw_create                    16 10.0    0.296    0.296   15.014   15.014
 dbcsr_multiply_generic           54440  8.4    1.076    1.076   13.896   13.896
 xc_rho_set_and_dset_create          16 11.0    0.103    0.103   10.459   10.459
 qs_rho_update_rho                   16  6.0    0.000    0.000   10.290   10.290
 calculate_rho_elec                  16  7.0    8.050    8.050   10.290   10.290
 pw_transfer                        305 10.6    0.027    0.027   10.058   10.058
 fft_wrap_pw1pw2                    273 11.7    0.004    0.004    9.772    9.772
 fft_wrap_pw1pw2_200                177 12.8    0.990    0.990    9.341    9.341
 pao_dm_trs4                        993  6.0    0.011    0.011    9.193    9.193
 sum_up_and_integrate                16  9.0    0.059    0.059    9.130    9.130
 integrate_v_rspace                  16 10.0    7.841    7.841    9.071    9.071
 density_matrix_trs4               1008  7.0    0.564    0.564    8.798    8.798
 ls_scf_init_matrix_S              1000  7.0    0.010    0.010    8.097    8.097
 pao_rebuild_S                      993  6.0    0.008    0.008    8.054    8.054
 matrix_sqrt_Newton_Schulz         1000  8.0    0.370    0.370    7.262    7.262
 xc_functional_eval                  16 12.0    0.000    0.000    6.622    6.622
 pbe_lda_eval                        16 13.0    6.621    6.621    6.621    6.621
 multiply_cannon                  54440  9.4    2.509    2.509    5.416    5.416
 fft3d_s                            274 13.6    5.071    5.071    5.086    5.086
 make_m2s                        108880  9.4    0.366    0.366    5.073    5.073
 make_images                     108880 10.4    1.310    1.310    4.496    4.496
 pao_guess_initial_P                  1  4.0    0.000    0.000    2.309    2.309
 pao_read_preopt_dm                   1  5.0    0.000    0.000    2.309    2.309
 arnoldi_extremal                  2008  8.5    0.014    0.014    2.226    2.226
 arnoldi_normal_ev                 2008  9.5    0.032    0.032    2.211    2.211
 density_rs2pw                       16  8.0    0.001    0.001    2.193    2.193
 pw_scatter_s                       144 14.2    1.923    1.923    1.923    1.923
 pao_calc_AB                       1302  5.8    0.003    0.003    1.735    1.735
 pao_calc_AB_direct                1302  6.8    0.063    0.063    1.732    1.732
 pw_gather_s                        129 13.1    1.728    1.728    1.728    1.728
 pao_calc_grad_lnv_wrt_AB           308  7.0    0.019    0.019    1.594    1.594
 build_subspace                    2008 10.5    0.135    0.135    1.587    1.587
 dbcsr_finalize                  130259  9.6    0.272    0.272    1.453    1.453
 dbcsr_create_new                416204 10.7    0.809    0.809    1.444    1.444
 dbcsr_matrix_vector_mult         48186 11.5    0.255    0.255    1.404    1.404
 pw_derive                           96 11.5    1.339    1.339    1.339    1.339
 potential_pw2rs                     16 11.0    0.007    0.007    1.227    1.227
 -------------------------------------------------------------------------------

 The number of warnings for this run is : 0
 
 -------------------------------------------------------------------------------
  **** **** ******  **  PROGRAM ENDED AT                 2019-02-14 01:21:47.106
 ***** ** ***  *** **   PROGRAM RAN ON                                      otto
 **    ****   ******    PROGRAM RAN BY                                       ole
 ***** **    ** ** **   PROGRAM PROCESS ID                                  6118
  **** **  *******  **  PROGRAM STOPPED IN /home/ole/git/pao_ml_equivar/2H2O_MD/
                                           frame_0475
