 DBCSR| CPU Multiplication driver                                           XSMM (U)
 DBCSR| Multrec recursion limit                                              512 (U)
 DBCSR| Multiplication stack size                                           1000 (D)
 DBCSR| Maximum elements for images                                    UNLIMITED (U)
 DBCSR| Multiplicative factor virtual images                                   1 (U)
 DBCSR| Use multiplication densification                                       T (D)
 DBCSR| Multiplication size stacks                                             3 (U)
 DBCSR| Use memory pool for CPU allocation                                     F (U)
 DBCSR| OMP: Current number of threads                                         1
 DBCSR| OMP: Max number of threads                                             1
 DBCSR| Split modifier for TAS multiplication algorithm                  1.0E+00 (U)


  **** **** ******  **  PROGRAM STARTED AT               2023-02-01 10:45:19.727
 ***** ** ***  *** **   PROGRAM STARTED ON                                moritz
 **    ****   ******    PROGRAM STARTED BY                                   ole
 ***** **    ** ** **   PROGRAM PROCESS ID                                148600
  **** **  *******  **  PROGRAM STARTED IN /home/ole/git/pao_ml_equivar/2H2O_rot
                                           ations/phi_24

 CP2K| version string:                 CP2K version 2023.1 (Development Version)
 CP2K| source code revision number:                                  git:03b4147
 CP2K| cp2kflags: omp libint fftw3 libxc quip xsmm spglib libvori libbqb libtorc
 CP2K|            h
 CP2K| is freely available from                            https://www.cp2k.org/
 CP2K| Program compiled at                           Mi 01 Feb 2023 10:36:52 CET
 CP2K| Program compiled on                                                moritz
 CP2K| Program compiled for                                                local
 CP2K| Data directory path                               /home/ole/git/cp2k/data
 CP2K| Input file name                                            2H2O_pao44.inp

 GLOBAL| Force Environment number                                              1
 GLOBAL| Basis set file name                                        BASIS_MOLOPT
 GLOBAL| Potential file name                                      GTH_POTENTIALS
 GLOBAL| MM Potential file name                                     MM_POTENTIAL
 GLOBAL| Coordinate file name                                         coords.xyz
 GLOBAL| Method name                                                        CP2K
 GLOBAL| Project name                                                 2H2O_pao44
 GLOBAL| Run type                                                         ENERGY
 GLOBAL| FFT library                                                       FFTW3
 GLOBAL| Diagonalization library                                       ScaLAPACK
 GLOBAL| DGEMM library                                                      BLAS
 GLOBAL| Orthonormality check for eigenvectors                          DISABLED
 GLOBAL| Matrix multiplication library                                 ScaLAPACK
 GLOBAL| All-to-all communication in single precision                          F
 GLOBAL| FFTs using library dependent lengths                                  F
 GLOBAL| Grid backend                                                       AUTO
 GLOBAL| Global print level                                                  LOW
 GLOBAL| MPI I/O enabled                                                       T
 GLOBAL| Total number of message passing processes                             1
 GLOBAL| Number of threads for this process                                    1
 GLOBAL| This output is from process                                           0
 GLOBAL| Stack size for threads created by OpenMP (OMP_STACKSIZE)        default
 GLOBAL| CPU model name           AMD Ryzen Threadripper 3970X 32-Core Processor
 GLOBAL| CPUID                                                              1002
 GLOBAL| Compiled for CPUID                                                    0

 *** HINT in environment.F:884 :: The compiler target flags (generic) used ***
 *** to build this binary cannot exploit all extensions of this CPU model  ***
 *** (x86_avx2). Consider compiler target flags as part of FCFLAGS and     ***
 *** CFLAGS (ARCH file).                                                   ***


 MEMORY| system memory details [Kb]
 MEMORY|                        rank 0           min           max       average
 MEMORY| MemTotal            131773860     131773860     131773860     131773860
 MEMORY| MemFree             117050524     117050524     117050524     117050524
 MEMORY| Buffers                301580        301580        301580        301580
 MEMORY| Cached                7018548       7018548       7018548       7018548
 MEMORY| Slab                   776140        776140        776140        776140
 MEMORY| SReclaimable           331304        331304        331304        331304
 MEMORY| MemLikelyFree       124701956     124701956     124701956     124701956


 GENERATE|  Preliminary Number of Bonds generated:                             0
 GENERATE|  Achieved consistency in connectivity generation.

 *******************************************************************************
 *******************************************************************************
 **                                                                           **
 **     #####                         ##              ##                      **
 **    ##   ##            ##          ##              ##                      **
 **   ##     ##                       ##            ######                    **
 **   ##     ##  ##   ##  ##   #####  ##  ##   ####   ##    #####    #####    **
 **   ##     ##  ##   ##  ##  ##      ## ##   ##      ##   ##   ##  ##   ##   **
 **   ##  ## ##  ##   ##  ##  ##      ####     ###    ##   ######   ######    **
 **    ##  ###   ##   ##  ##  ##      ## ##      ##   ##   ##       ##        **
 **     #######   #####   ##   #####  ##  ##  ####    ##    #####   ##        **
 **           ##                                                    ##        **
 **                                                                           **
 **                                                ... make the atoms dance   **
 **                                                                           **
 **            Copyright (C) by CP2K developers group (2000-2023)             **
 **                      J. Chem. Phys. 152, 194103 (2020)                    **
 **                                                                           **
 *******************************************************************************


 TOTAL NUMBERS AND MAXIMUM NUMBERS

  Total number of            - Atomic kinds:                                   2
                             - Atoms:                                          6
                             - Shell sets:                                     6
                             - Shells:                                        22
                             - Primitive Cartesian functions:                 42
                             - Cartesian basis functions:                     48
                             - Spherical basis functions:                     46

  Maximum angular momentum of- Orbital basis functions:                        2
                             - Local part of the GTH pseudopotential:          2
                             - Non-local part of the GTH pseudopotential:      0

 ------------------------------ Linear scaling SCF -----------------------------
 eps_scf:                                                              0.100E-07
 eps_filter:                                                           0.100E-07
 mixing_fraction:                                                      0.450E+00
 max_scf:                                                                     25
 fixed chemical potential (mu)                                                 F
 has unit metric:                                                              F
 Computing inv(S):                                                             T
 Computing sqrt(S):                                                            T
 Computing S preconditioner                                                    F
 S sqrt method:                                                     NEWTONSCHULZ
 S sqrt order:                                                                 3
 Extrapolation order:                                                          1
 Use single precision matrices                                                 F
 S preconditioner type                                                      NONE
 Polarized Atomic Orbitals (PAO)                                               T
 Purification method                                   Trace resetting 4th order
 Cluster type                                                             ATOMIC
 Computing Chebyshev                                                       FALSE
 Using PAO                                                                     T
 -------------------------------------------------------------------------------

 
 PAO|                                  EPS_PAO                           0.1E-04
 PAO|                                  MIXING                            0.5E+00
 PAO|                                  MAX_PAO                              1000
 PAO|                                  MAX_CYCLES                           1000
 PAO|                                  PARAMETERIZATION              EQUIVARIANT
 PAO|                                  PRECONDITION                            F
 PAO|                                  REGULARIZATION                    0.0E+00
 PAO|                                  EPS_PGF                           0.1E-09
 PAO|                                  PENALTY_DISTANCE                  0.1E+00
 PAO|                                  PENALTY_STRENGTH                  0.5E-02
 PAO|                                  LINPOT_PRECONDITION_DELTA         0.0E+00
 PAO|                                  LINPOT_INITGUESS_DELT             0.0E+00
 PAO|                                  LINPOT_REGULARIZATION_DELTA       0.0E+00
 PAO|                                  LINPOT_REGULARIZATION_STRENGTH    0.0E+00
 PAO|                                  OPTIMIZER                              CG
 PAO|                                  CG_INIT_STEPS                           2
 PAO|                                  CG_RESET_LIMIT                    0.1E+00
 PAO|                                  CHECK_UNITARY_TOL                -0.1E+01
 PAO|                                  CHECK_GRADIENT_TOL               -0.1E+01
 PAO|                                  NUM_GRADIENT_ORDER                      2
 PAO|                                  NUM_GRADIENT_EPS                  0.1E-07
 PAO|                                  PRINT%RESTART%WRITE_CYCLES            100
 PAO|                                  RESTART_FILE 
 PAO|                                  PREOPT_DM_FILE 2H2O_ref_LS_DM_SPIN_1_RESTART.dm
 PAO|                                  MACHINE_LEARNING%METHOD       GAUSSIAN_PR
 PAO|                                  MACHINE_LEARNING%PRIOR               ZERO
 PAO|                                  MACHINE_LEARNING%DESCRIPTOR     POTENTIAL
 PAO|                                  MACHINE_LEARNING%TOLERANCE        0.1E-01
 PAO|                                  MACHINE_LEARNING%GP_NOISE_VAR     0.1E+00
 PAO|                                  MACHINE_LEARNING%GP_SCALE         0.5E-01
 

 Calculating atomic Fock matrix for atomic kind: O

 Electronic structure
    Total number of core electrons                                          2.00
    Total number of valence electrons                                       6.00
    Total number of electrons                                               8.00
    Multiplicity                                                   not specified
    S   [  2.00] 2.00
    P      4.00


 *******************************************************************************
                  Iteration          Convergence                     Energy [au]
 *******************************************************************************
                          1        0.708315                     -15.576645311500
                          2        0.608879                     -15.587933561584
                          3        0.102828E-01                 -15.656849565404
                          4        0.113889E-02                 -15.656866888140
                          5        0.434197E-03                 -15.656867072159
                          6        0.263771E-03                 -15.656867091904
                          7        0.478536E-06                 -15.656867103452

 Energy components [Hartree]           Total Energy ::          -15.656867103452
                                        Band Energy ::           -3.000198112285
                                     Kinetic Energy ::           11.759971203220
                                   Potential Energy ::          -27.416838306672
                                      Virial (-V/T) ::            2.331369510426
                                        Core Energy ::          -26.140716385623
                                          XC Energy ::           -3.154051012914
                                     Coulomb Energy ::           13.637900295084
                       Total Pseudopotential Energy ::          -37.935781716540
                       Local Pseudopotential Energy ::          -39.218907440693
                    Nonlocal Pseudopotential Energy ::            1.283125724153
                                        Confinement ::            0.350941276976

 Orbital energies  State     L     Occupation   Energy[a.u.]          Energy[eV]

                       1     0          2.000      -0.864471          -23.523463

                       1     1          4.000      -0.317814           -8.648154


 Total Electron Density at R=0:                                         0.000068

 Calculating atomic Fock matrix for atomic kind: H

 Electronic structure
    Total number of core electrons                                          0.00
    Total number of valence electrons                                       1.00
    Total number of electrons                                               1.00
    Multiplicity                                                   not specified
    S      1.00


 *******************************************************************************
                  Iteration          Convergence                     Energy [au]
 *******************************************************************************
                          1        0.437545E-02                  -0.424159432110
                          2        0.531356E-03                  -0.424178438213
                          3        0.259176E-06                  -0.424178722480

 Energy components [Hartree]           Total Energy ::           -0.424178722480
                                        Band Energy ::           -0.199015229016
                                     Kinetic Energy ::            0.464007633961
                                   Potential Energy ::           -0.888186356441
                                      Virial (-V/T) ::            1.914163240935
                                        Core Energy ::           -0.479160803564
                                          XC Energy ::           -0.244352904054
                                     Coulomb Energy ::            0.299334985138
                       Total Pseudopotential Energy ::           -0.962295316385
                       Local Pseudopotential Energy ::           -0.962295316385
                    Nonlocal Pseudopotential Energy ::            0.000000000000
                                        Confinement ::            0.191268788606

 Orbital energies  State     L     Occupation   Energy[a.u.]          Energy[eV]

                       1     0          1.000      -0.199015           -5.415480


 Total Electron Density at R=0:                                         0.242907
 PAO| Made initial guess for matrix_X with norm:   4.8989794855663558     

     Lanczos converged:  T threshold:   0.100E-02
     Est. extremal eigenvalues:    0.336E+01   0.114E+00
     Est. condition number :    0.294E+02

 Order=           3
     NS sqrt iter    1 1.00000000   0.822E+00       0.001       57.746
     NS sqrt iter    2 1.00000000   0.440E+00       0.001       99.652
     NS sqrt iter    3 1.00000000   0.171E+00       0.001       99.658
     NS sqrt iter    4 1.00000000   0.207E-01       0.001       99.137
     NS sqrt iter    5 1.00000000   0.541E-04       0.001       84.058
     Symmetrizing Results
     Final NS sqrt iter    5 1.00000000   0.367E-08

 PAO| Read restart DM 2H2O_ref_LS_DM_SPIN_1_RESTART.dm with checksum:    68.461521907355589     
 PAO| Quickstep energy from restart density:  -34.450822473428559     
 PAO| ======================= Iteration:         1 =============================

     Lanczos converged:  T threshold:   0.100E-02
     Est. extremal eigenvalues:    0.336E+01   0.114E+00
     Est. condition number :    0.294E+02

 Order=           3
     NS sqrt iter    1 1.00000000   0.822E+00       0.001       64.512
     NS sqrt iter    2 1.00000000   0.440E+00       0.001      110.592
     NS sqrt iter    3 1.00000000   0.171E+00       0.001      110.592
     NS sqrt iter    4 1.00000000   0.207E-01       0.001      110.592
     NS sqrt iter    5 1.00000000   0.541E-04       0.001       91.776
     Symmetrizing Results
     Final NS sqrt iter    5 1.00000000   0.367E-08

     Est. extremal eigenvalues     -0.91905     1.88902  converged:  T
     TRS4 it   1 1.00000000   0.887E+00       0.000       16.128   0.100E-07
     TRS4 it   2 1.00000000   0.693E+00       0.001       32.256   0.100E-07
     TRS4 it   3 1.00000000   0.499E+00       0.001       32.256   0.100E-07
     TRS4 it   4 1.00000000   0.312E+00       0.001       32.256   0.100E-07
     TRS4 it   5 1.00000000   0.154E+00       0.001       32.256   0.100E-07
     TRS4 it   6 1.00000000   0.481E-01       0.001       32.256   0.100E-07
     TRS4 it   7 1.00000000   0.644E-02       0.001       32.256   0.100E-07
     TRS4 it   8 1.00000000   0.163E-03       0.001       32.256   0.100E-07
     TRS4 it   9 1.00000000   0.118E-06       0.001       32.256   0.100E-07
     TRS4 it  10 1.00000000   0.629E-13       0.001       32.256   0.100E-07
     Final TRS4 iteration   10 1.00000000   0.629E-13
     Chemical potential (mu):      -0.06369
 
 PAO| energy:  -7.6138338303421156      penalty:   3.0198581527991854E-033
 PAO|CG| warming up with steepest descent
 PAO|CG| beta:    0.0000000000000000     
 PAO| norm of gradient:  0.78372313058041854     
 PAO|LS| adapt:  T F F
 PAO|LS| adapt: scan_steps:    0.0000000000000000        0.0000000000000000        0.0000000000000000     
 PAO|LS| adapt: energies:   -7.6138338303421156        0.0000000000000000        0.0000000000000000     
 PAO| ======================= Iteration:         2 =============================

     Lanczos converged:  T threshold:   0.100E-02
     Est. extremal eigenvalues:    0.328E+01   0.127E+00
     Est. condition number :    0.258E+02

 Order=           3
     NS sqrt iter    1 1.00000000   0.805E+00       0.001       61.345
     NS sqrt iter    2 1.00000000   0.425E+00       0.001      102.736
     NS sqrt iter    3 1.00000000   0.153E+00       0.001      102.283
     NS sqrt iter    4 1.00000000   0.143E-01       0.001      100.722
     NS sqrt iter    5 1.00000000   0.175E-04       0.001       78.843
     Symmetrizing Results
     Final NS sqrt iter    5 1.00000000   0.459E-09

     Est. extremal eigenvalues     -0.92272     1.83719  converged:  T
     TRS4 it   1 1.00000000   0.885E+00       0.000       16.128   0.100E-07
     TRS4 it   2 1.00000000   0.675E+00       0.001       32.256   0.100E-07
     TRS4 it   3 1.00000000   0.483E+00       0.001       32.256   0.100E-07
     TRS4 it   4 1.00000000   0.292E+00       0.001       32.256   0.100E-07
     TRS4 it   5 1.00000000   0.135E+00       0.001       32.256   0.100E-07
     TRS4 it   6 1.00000000   0.370E-01       0.001       32.256   0.100E-07
     TRS4 it   7 1.00000000   0.387E-02       0.001       32.256   0.100E-07
     TRS4 it   8 1.00000000   0.595E-04       0.001       32.256   0.100E-07
     TRS4 it   9 1.00000000   0.157E-07       0.001       32.256   0.100E-07
     Final TRS4 iteration    9 1.00000000   0.157E-07
     Chemical potential (mu):      -0.05174
 
 PAO| energy:  -7.6693705625476634      penalty:   2.2525018243971264E-008
 PAO|LS| adapt:  T T F
 PAO|LS| adapt: scan_steps:    0.0000000000000000       0.10000000000000001        0.0000000000000000     
 PAO|LS| adapt: energies:   -7.6138338303421156       -7.6693705625476634        0.0000000000000000     
 PAO| ======================= Iteration:         3 =============================

     Lanczos converged:  T threshold:   0.100E-02
     Est. extremal eigenvalues:    0.319E+01   0.138E+00
     Est. condition number :    0.231E+02

 Order=           3
     NS sqrt iter    1 1.00000000   0.788E+00       0.001       60.333
     NS sqrt iter    2 1.00000000   0.408E+00       0.001      100.563
     NS sqrt iter    3 1.00000000   0.136E+00       0.001      100.638
     NS sqrt iter    4 1.00000000   0.991E-02       0.001      101.852
     NS sqrt iter    5 1.00000000   0.599E-05       0.001       78.765
     Symmetrizing Results
     Final NS sqrt iter    5 1.00000000   0.550E-10

     Est. extremal eigenvalues     -0.92615     1.79575  converged:  T
     TRS4 it   1 1.00000000   0.883E+00       0.000       16.128   0.100E-07
     TRS4 it   2 1.00000000   0.659E+00       0.001       32.256   0.100E-07
     TRS4 it   3 1.00000000   0.468E+00       0.001       32.256   0.100E-07
     TRS4 it   4 1.00000000   0.273E+00       0.001       32.256   0.100E-07
     TRS4 it   5 1.00000000   0.117E+00       0.001       32.256   0.100E-07
     TRS4 it   6 1.00000000   0.277E-01       0.001       32.256   0.100E-07
     TRS4 it   7 1.00000000   0.217E-02       0.001       32.256   0.100E-07
     TRS4 it   8 1.00000000   0.186E-04       0.001       32.256   0.100E-07
     TRS4 it   9 1.00000000   0.155E-08       0.001       32.256   0.100E-07
     Final TRS4 iteration    9 1.00000000   0.155E-08
     Chemical potential (mu):      -0.03883
 
 PAO| energy:  -7.7124734386875993      penalty:   3.6040002610124856E-007
 PAO|LS| adapt:  T T F
 PAO|LS| adapt: scan_steps:    0.0000000000000000       0.20000000000000001        0.0000000000000000     
 PAO|LS| adapt: energies:   -7.6138338303421156       -7.7124734386875993        0.0000000000000000     
 PAO| ======================= Iteration:         4 =============================

     Lanczos converged:  T threshold:   0.100E-02
     Est. extremal eigenvalues:    0.299E+01   0.155E+00
     Est. condition number :    0.192E+02

 Order=           3
     NS sqrt iter    1 1.00000000   0.750E+00       0.001       60.771
     NS sqrt iter    2 1.00000000   0.374E+00       0.001      102.831
     NS sqrt iter    3 1.00000000   0.106E+00       0.001      102.695
     NS sqrt iter    4 1.00000000   0.488E-02       0.001      102.332
     NS sqrt iter    5 1.00000000   0.900E-06       0.001       79.008
     Symmetrizing Results
     Final NS sqrt iter    5 1.00000000   0.138E-11

     Est. extremal eigenvalues     -0.93148     1.73602  converged:  T
     TRS4 it   1 1.00000000   0.880E+00       0.000       16.128   0.100E-07
     TRS4 it   2 1.00000000   0.633E+00       0.001       32.256   0.100E-07
     TRS4 it   3 1.00000000   0.440E+00       0.001       32.256   0.100E-07
     TRS4 it   4 1.00000000   0.237E+00       0.001       32.256   0.100E-07
     TRS4 it   5 1.00000000   0.862E-01       0.001       32.256   0.100E-07
     TRS4 it   6 1.00000000   0.145E-01       0.001       32.256   0.100E-07
     TRS4 it   7 1.00000000   0.564E-03       0.001       32.256   0.100E-07
     TRS4 it   8 1.00000000   0.123E-05       0.001       32.256   0.100E-07
     TRS4 it   9 1.00000000   0.670E-11       0.001       32.256   0.100E-07
     Final TRS4 iteration    9 1.00000000   0.670E-11
     Chemical potential (mu):      -0.01045
 
 PAO| energy:  -7.7597569279826777      penalty:   5.7663982912109987E-006
 PAO|LS| Need extra step
 PAO|LS| adapt:  T T F
 PAO|LS| adapt: scan_steps:    0.0000000000000000       0.40000000000000002        0.0000000000000000     
 PAO|LS| adapt: energies:   -7.6138338303421156       -7.7597569279826777        0.0000000000000000     
 PAO| ======================= Iteration:         5 =============================

     Lanczos converged:  T threshold:   0.100E-02
     Est. extremal eigenvalues:    0.263E+01   0.182E+00
     Est. condition number :    0.145E+02

 Order=           3
     NS sqrt iter    1 1.00000000   0.685E+00       0.001       60.696
     NS sqrt iter    2 1.00000000   0.311E+00       0.001      101.414
     NS sqrt iter    3 1.00000000   0.655E-01       0.001      101.998
     NS sqrt iter    4 1.00000000   0.136E-02       0.001      102.411
     NS sqrt iter    5 1.00000000   0.260E-07       0.001       54.801
     Symmetrizing Results
     Final NS sqrt iter    5 1.00000000   0.249E-08

     Est. extremal eigenvalues     -0.93271     1.66996  converged:  T
     TRS4 it   1 1.00000000   0.878E+00       0.000       16.128   0.100E-07
     TRS4 it   2 1.00000000   0.599E+00       0.001       32.256   0.100E-07
     TRS4 it   3 1.00000000   0.394E+00       0.001       32.256   0.100E-07
     TRS4 it   4 1.00000000   0.182E+00       0.001       32.256   0.100E-07
     TRS4 it   5 1.00000000   0.471E-01       0.001       32.256   0.100E-07
     TRS4 it   6 1.00000000   0.394E-02       0.001       32.256   0.100E-07
     TRS4 it   7 1.00000000   0.353E-04       0.001       32.256   0.100E-07
     TRS4 it   8 1.00000000   0.360E-08       0.001       32.256   0.100E-07
     Final TRS4 iteration    8 1.00000000   0.360E-08
     Chemical potential (mu):       0.03798
 
 PAO| energy:  -7.7050257418421912      penalty:   9.2262355648140541E-005
 PAO|LS| Need extra step
 PAO|LS| adapt:  T T T
 PAO|LS| adapt: scan_steps:    0.0000000000000000       0.40000000000000002       0.80000000000000004     
 PAO|LS| adapt: energies:   -7.6138338303421156       -7.7597569279826777       -7.7050257418421912     
 PAO|LS| adapt: suggested step_size:   0.49089455732685294     
 PAO|LS| adapt: predicted energy  -7.7649374582499204     
 PAO| ======================= Iteration:         6 =============================

     Lanczos converged:  T threshold:   0.100E-02
     Est. extremal eigenvalues:    0.290E+01   0.162E+00
     Est. condition number :    0.179E+02

 Order=           3
     NS sqrt iter    1 1.00000000   0.734E+00       0.001       60.748
     NS sqrt iter    2 1.00000000   0.358E+00       0.001      102.921
     NS sqrt iter    3 1.00000000   0.948E-01       0.001      103.167
     NS sqrt iter    4 1.00000000   0.360E-02       0.001      103.555
     NS sqrt iter    5 1.00000000   0.399E-06       0.001       78.654
     Symmetrizing Results
     Final NS sqrt iter    5 1.00000000   0.226E-10

     Est. extremal eigenvalues     -0.93296     1.71622  converged:  T
     TRS4 it   1 1.00000000   0.879E+00       0.000       16.128   0.100E-07
     TRS4 it   2 1.00000000   0.624E+00       0.001       32.256   0.100E-07
     TRS4 it   3 1.00000000   0.428E+00       0.001       32.256   0.100E-07
     TRS4 it   4 1.00000000   0.222E+00       0.001       32.256   0.100E-07
     TRS4 it   5 1.00000000   0.747E-01       0.001       32.256   0.100E-07
     TRS4 it   6 1.00000000   0.106E-01       0.001       32.256   0.100E-07
     TRS4 it   7 1.00000000   0.290E-03       0.001       32.256   0.100E-07
     TRS4 it   8 1.00000000   0.310E-06       0.001       32.256   0.100E-07
     TRS4 it   9 1.00000000   0.424E-12       0.001       32.256   0.100E-07
     Final TRS4 iteration    9 1.00000000   0.424E-12
     Chemical potential (mu):       0.00321
 
 PAO| energy:  -7.7642062814194635      penalty:   1.3080294112305445E-005
 PAO|CG| warming up with steepest descent
 PAO|CG| beta:    0.0000000000000000     
 PAO| norm of gradient:  0.41771405984846272     
 PAO| energy improvement: -0.15037245107734787     
 PAO| step      6                   -7.764206281  0.261E-01  0.491E+00     0.090
 PAO|LS| adapt:  T F F
 PAO|LS| adapt: scan_steps:    0.0000000000000000        0.0000000000000000        0.0000000000000000     
 PAO|LS| adapt: energies:   -7.7642062814194635        0.0000000000000000        0.0000000000000000     
 PAO| ======================= Iteration:         7 =============================

     Lanczos converged:  T threshold:   0.100E-02
     Est. extremal eigenvalues:    0.281E+01   0.176E+00
     Est. condition number :    0.160E+02

 Order=           3
     NS sqrt iter    1 1.00000000   0.716E+00       0.001       61.802
     NS sqrt iter    2 1.00000000   0.337E+00       0.001      102.012
     NS sqrt iter    3 1.00000000   0.792E-01       0.001      101.837
     NS sqrt iter    4 1.00000000   0.218E-02       0.001      102.689
     NS sqrt iter    5 1.00000000   0.979E-07       0.001       72.939
     Symmetrizing Results
     Final NS sqrt iter    5 1.00000000   0.118E-08

     Est. extremal eigenvalues     -0.93466     1.70322  converged:  T
     TRS4 it   1 1.00000000   0.878E+00       0.000       16.128   0.100E-07
     TRS4 it   2 1.00000000   0.622E+00       0.001       32.256   0.100E-07
     TRS4 it   3 1.00000000   0.428E+00       0.001       32.256   0.100E-07
     TRS4 it   4 1.00000000   0.223E+00       0.001       32.256   0.100E-07
     TRS4 it   5 1.00000000   0.753E-01       0.001       32.256   0.100E-07
     TRS4 it   6 1.00000000   0.106E-01       0.001       32.256   0.100E-07
     TRS4 it   7 1.00000000   0.271E-03       0.001       32.256   0.100E-07
     TRS4 it   8 1.00000000   0.256E-06       0.001       32.256   0.100E-07
     TRS4 it   9 1.00000000   0.285E-12       0.001       32.256   0.100E-07
     Final TRS4 iteration    9 1.00000000   0.285E-12
     Chemical potential (mu):       0.00528
 
 PAO| energy:  -7.7581252098156943      penalty:   1.9813431841177463E-005
 PAO|LS| adapt:  T F T
 PAO|LS| adapt: scan_steps:    0.0000000000000000        0.0000000000000000       0.49089455732685294     
 PAO|LS| adapt: energies:   -7.7642062814194635        0.0000000000000000       -7.7581252098156943     
 PAO| ======================= Iteration:         8 =============================

     Lanczos converged:  T threshold:   0.100E-02
     Est. extremal eigenvalues:    0.286E+01   0.169E+00
     Est. condition number :    0.169E+02

 Order=           3
     NS sqrt iter    1 1.00000000   0.725E+00       0.001       60.822
     NS sqrt iter    2 1.00000000   0.348E+00       0.001      101.782
     NS sqrt iter    3 1.00000000   0.868E-01       0.001      101.777
     NS sqrt iter    4 1.00000000   0.282E-02       0.001      101.993
     NS sqrt iter    5 1.00000000   0.202E-06       0.001       77.284
     Symmetrizing Results
     Final NS sqrt iter    5 1.00000000   0.867E-09

     Est. extremal eigenvalues     -0.93478     1.70913  converged:  T
     TRS4 it   1 1.00000000   0.878E+00       0.000       16.128   0.100E-07
     TRS4 it   2 1.00000000   0.623E+00       0.001       32.256   0.100E-07
     TRS4 it   3 1.00000000   0.427E+00       0.001       32.256   0.100E-07
     TRS4 it   4 1.00000000   0.222E+00       0.001       32.256   0.100E-07
     TRS4 it   5 1.00000000   0.748E-01       0.001       32.256   0.100E-07
     TRS4 it   6 1.00000000   0.106E-01       0.001       32.256   0.100E-07
     TRS4 it   7 1.00000000   0.287E-03       0.001       32.256   0.100E-07
     TRS4 it   8 1.00000000   0.299E-06       0.001       32.256   0.100E-07
     TRS4 it   9 1.00000000   0.392E-12       0.001       32.256   0.100E-07
     Final TRS4 iteration    9 1.00000000   0.392E-12
     Chemical potential (mu):       0.00381
 
 PAO| energy:  -7.7838574776321163      penalty:   1.4186042921451865E-005
 PAO|LS| adapt:  T T T
 PAO|LS| adapt: scan_steps:    0.0000000000000000       0.24544727866342647       0.49089455732685294     
 PAO|LS| adapt: energies:   -7.7642062814194635       -7.7838574776321163       -7.7581252098156943     
 PAO|LS| adapt: suggested step_size:   0.22900315624533227     
 PAO|LS| adapt: predicted energy  -7.7839593303460983     
 PAO| ======================= Iteration:         9 =============================

     Lanczos converged:  T threshold:   0.100E-02
     Est. extremal eigenvalues:    0.286E+01   0.169E+00
     Est. condition number :    0.170E+02

 Order=           3
     NS sqrt iter    1 1.00000000   0.725E+00       0.001       60.382
     NS sqrt iter    2 1.00000000   0.349E+00       0.001      102.513
     NS sqrt iter    3 1.00000000   0.874E-01       0.001      101.610
     NS sqrt iter    4 1.00000000   0.287E-02       0.001      103.028
     NS sqrt iter    5 1.00000000   0.211E-06       0.001       77.205
     Symmetrizing Results
     Final NS sqrt iter    5 1.00000000   0.628E-09

     Est. extremal eigenvalues     -0.93472     1.70956  converged:  T
     TRS4 it   1 1.00000000   0.878E+00       0.000       16.128   0.100E-07
     TRS4 it   2 1.00000000   0.623E+00       0.001       32.256   0.100E-07
     TRS4 it   3 1.00000000   0.427E+00       0.001       32.256   0.100E-07
     TRS4 it   4 1.00000000   0.222E+00       0.001       32.256   0.100E-07
     TRS4 it   5 1.00000000   0.748E-01       0.001       32.256   0.100E-07
     TRS4 it   6 1.00000000   0.106E-01       0.001       32.256   0.100E-07
     TRS4 it   7 1.00000000   0.288E-03       0.001       32.256   0.100E-07
     TRS4 it   8 1.00000000   0.301E-06       0.001       32.256   0.100E-07
     TRS4 it   9 1.00000000   0.396E-12       0.001       32.256   0.100E-07
     Final TRS4 iteration    9 1.00000000   0.396E-12
     Chemical potential (mu):       0.00373
 
 PAO| energy:  -7.7839840288514388      penalty:   1.4009935479790224E-005
 PAO|CG| trace_G_new    3.6871543908577414E-002
 PAO|CG| trace_G_prev   0.17448503579508509     
 PAO|CG| trace_G_mix   -1.4528415972851544E-003
 PAO|CG| trace_D   0.17448503579508509     
 PAO|CG| trace_D_Gnew   1.4528415972851544E-003
 PAO|CG| beta:   0.21964282112347250     
 PAO| norm of gradient:  0.19201964459027993     
 PAO| energy improvement:  -1.9777747431975357E-002
 PAO| step      9                   -7.783984029  0.120E-01  0.229E+00     0.056
 PAO|LS| adapt:  T F F
 PAO|LS| adapt: scan_steps:    0.0000000000000000        0.0000000000000000        0.0000000000000000     
 PAO|LS| adapt: energies:   -7.7839840288514388        0.0000000000000000        0.0000000000000000     
 PAO| ======================= Iteration:        10 =============================

     Lanczos converged:  T threshold:   0.100E-02
     Est. extremal eigenvalues:    0.282E+01   0.174E+00
     Est. condition number :    0.162E+02

 Order=           3
     NS sqrt iter    1 1.00000000   0.718E+00       0.001       62.553
     NS sqrt iter    2 1.00000000   0.340E+00       0.001      102.811
     NS sqrt iter    3 1.00000000   0.817E-01       0.001      101.642
     NS sqrt iter    4 1.00000000   0.236E-02       0.001      102.982
     NS sqrt iter    5 1.00000000   0.119E-06       0.001       74.267
     Symmetrizing Results
     Final NS sqrt iter    5 1.00000000   0.134E-08

     Est. extremal eigenvalues     -0.93561     1.70718  converged:  T
     TRS4 it   1 1.00000000   0.877E+00       0.000       16.128   0.100E-07
     TRS4 it   2 1.00000000   0.622E+00       0.001       32.256   0.100E-07
     TRS4 it   3 1.00000000   0.426E+00       0.001       32.256   0.100E-07
     TRS4 it   4 1.00000000   0.220E+00       0.001       32.256   0.100E-07
     TRS4 it   5 1.00000000   0.730E-01       0.001       32.256   0.100E-07
     TRS4 it   6 1.00000000   0.101E-01       0.001       32.256   0.100E-07
     TRS4 it   7 1.00000000   0.254E-03       0.001       32.256   0.100E-07
     TRS4 it   8 1.00000000   0.229E-06       0.001       32.256   0.100E-07
     TRS4 it   9 1.00000000   0.226E-12       0.001       32.256   0.100E-07
     Final TRS4 iteration    9 1.00000000   0.226E-12
     Chemical potential (mu):       0.00680
 
 PAO| energy:  -7.7890246404467431      penalty:   1.4547170771328215E-005
 PAO|LS| adapt:  T T F
 PAO|LS| adapt: scan_steps:    0.0000000000000000       0.22900315624533227        0.0000000000000000     
 PAO|LS| adapt: energies:   -7.7839840288514388       -7.7890246404467431        0.0000000000000000     
 PAO| ======================= Iteration:        11 =============================

     Lanczos converged:  T threshold:   0.100E-02
     Est. extremal eigenvalues:    0.279E+01   0.180E+00
     Est. condition number :    0.155E+02

 Order=           3
     NS sqrt iter    1 1.00000000   0.710E+00       0.001       60.509
     NS sqrt iter    2 1.00000000   0.332E+00       0.001      101.073
     NS sqrt iter    3 1.00000000   0.764E-01       0.001      102.437
     NS sqrt iter    4 1.00000000   0.193E-02       0.001      102.722
     NS sqrt iter    5 1.00000000   0.655E-07       0.001       70.423
     Symmetrizing Results
     Final NS sqrt iter    5 1.00000000   0.548E-09

     Est. extremal eigenvalues     -0.93553     1.70605  converged:  T
     TRS4 it   1 1.00000000   0.877E+00       0.000       16.128   0.100E-07
     TRS4 it   2 1.00000000   0.621E+00       0.001       32.256   0.100E-07
     TRS4 it   3 1.00000000   0.424E+00       0.001       32.256   0.100E-07
     TRS4 it   4 1.00000000   0.218E+00       0.001       32.256   0.100E-07
     TRS4 it   5 1.00000000   0.713E-01       0.001       32.256   0.100E-07
     TRS4 it   6 1.00000000   0.955E-02       0.001       32.256   0.100E-07
     TRS4 it   7 1.00000000   0.225E-03       0.001       32.256   0.100E-07
     TRS4 it   8 1.00000000   0.173E-06       0.001       32.256   0.100E-07
     TRS4 it   9 1.00000000   0.128E-12       0.001       32.256   0.100E-07
     Final TRS4 iteration    9 1.00000000   0.128E-12
     Chemical potential (mu):       0.00997
 
 PAO| energy:  -7.7876469444375669      penalty:   1.5752667671320857E-005
 PAO|LS| adapt:  T T T
 PAO|LS| adapt: scan_steps:    0.0000000000000000       0.22900315624533227       0.45800631249066454     
 PAO|LS| adapt: energies:   -7.7839840288514388       -7.7890246404467431       -7.7876469444375669     
 PAO|LS| adapt: suggested step_size:   0.29434898274467114     
 PAO|LS| adapt: predicted energy  -7.7892859427911052     
 PAO| ======================= Iteration:        12 =============================

     Lanczos converged:  T threshold:   0.100E-02
     Est. extremal eigenvalues:    0.281E+01   0.176E+00
     Est. condition number :    0.160E+02

 Order=           3
     NS sqrt iter    1 1.00000000   0.715E+00       0.001       60.272
     NS sqrt iter    2 1.00000000   0.338E+00       0.001      103.754
     NS sqrt iter    3 1.00000000   0.802E-01       0.001      103.159
     NS sqrt iter    4 1.00000000   0.223E-02       0.001      101.743
     NS sqrt iter    5 1.00000000   0.100E-06       0.001       70.934
     Symmetrizing Results
     Final NS sqrt iter    5 1.00000000   0.118E-08

     Est. extremal eigenvalues     -0.93568     1.70673  converged:  T
     TRS4 it   1 1.00000000   0.877E+00       0.000       16.128   0.100E-07
     TRS4 it   2 1.00000000   0.621E+00       0.001       32.256   0.100E-07
     TRS4 it   3 1.00000000   0.425E+00       0.001       32.256   0.100E-07
     TRS4 it   4 1.00000000   0.219E+00       0.001       32.256   0.100E-07
     TRS4 it   5 1.00000000   0.725E-01       0.001       32.256   0.100E-07
     TRS4 it   6 1.00000000   0.992E-02       0.001       32.256   0.100E-07
     TRS4 it   7 1.00000000   0.245E-03       0.001       32.256   0.100E-07
     TRS4 it   8 1.00000000   0.211E-06       0.001       32.256   0.100E-07
     TRS4 it   9 1.00000000   0.193E-12       0.001       32.256   0.100E-07
     Final TRS4 iteration    9 1.00000000   0.193E-12
     Chemical potential (mu):       0.00770
 
 PAO| energy:  -7.7892696800382417      penalty:   1.4815320278557496E-005
 PAO|CG| trace_G_new    1.1827239391231325E-002
 PAO|CG| trace_G_prev    3.6871543908577414E-002
 PAO|CG| trace_G_mix   -4.5452296080345563E-004
 PAO|CG| trace_D    4.4651007604762115E-002
 PAO|CG| trace_D_Gnew   2.0590996089993991E-004
 PAO|CG| beta:   0.33309596100687500     
 PAO| norm of gradient:  0.10875311209906283     
 PAO| energy improvement:  -5.2856511868029088E-003
 PAO| step     12                   -7.789269680  0.680E-02  0.294E+00     0.056
 PAO|LS| adapt:  T F F
 PAO|LS| adapt: scan_steps:    0.0000000000000000        0.0000000000000000        0.0000000000000000     
 PAO|LS| adapt: energies:   -7.7892696800382417        0.0000000000000000        0.0000000000000000     
 PAO| ======================= Iteration:        13 =============================

     Lanczos converged:  T threshold:   0.100E-02
     Est. extremal eigenvalues:    0.278E+01   0.180E+00
     Est. condition number :    0.154E+02

 Order=           3
     NS sqrt iter    1 1.00000000   0.708E+00       0.001       62.760
     NS sqrt iter    2 1.00000000   0.331E+00       0.001      103.049
     NS sqrt iter    3 1.00000000   0.758E-01       0.001      100.353
     NS sqrt iter    4 1.00000000   0.190E-02       0.001      103.024
     NS sqrt iter    5 1.00000000   0.627E-07       0.001       68.926
     Symmetrizing Results
     Final NS sqrt iter    5 1.00000000   0.539E-09

     Est. extremal eigenvalues     -0.93617     1.70104  converged:  T
     TRS4 it   1 1.00000000   0.877E+00       0.000       16.128   0.100E-07
     TRS4 it   2 1.00000000   0.619E+00       0.001       32.256   0.100E-07
     TRS4 it   3 1.00000000   0.422E+00       0.001       32.256   0.100E-07
     TRS4 it   4 1.00000000   0.214E+00       0.001       32.256   0.100E-07
     TRS4 it   5 1.00000000   0.691E-01       0.001       32.256   0.100E-07
     TRS4 it   6 1.00000000   0.895E-02       0.001       32.256   0.100E-07
     TRS4 it   7 1.00000000   0.197E-03       0.001       32.256   0.100E-07
     TRS4 it   8 1.00000000   0.133E-06       0.001       32.256   0.100E-07
     TRS4 it   9 1.00000000   0.754E-13       0.001       32.256   0.100E-07
     Final TRS4 iteration    9 1.00000000   0.754E-13
     Chemical potential (mu):       0.01216
 
 PAO| energy:  -7.7913435197611181      penalty:   1.5124764931135924E-005
 PAO|LS| adapt:  T T F
 PAO|LS| adapt: scan_steps:    0.0000000000000000       0.29434898274467114        0.0000000000000000     
 PAO|LS| adapt: energies:   -7.7892696800382417       -7.7913435197611181        0.0000000000000000     
 PAO| ======================= Iteration:        14 =============================

     Lanczos converged:  T threshold:   0.100E-02
     Est. extremal eigenvalues:    0.274E+01   0.184E+00
     Est. condition number :    0.149E+02

 Order=           3
     NS sqrt iter    1 1.00000000   0.701E+00       0.001       60.759
     NS sqrt iter    2 1.00000000   0.324E+00       0.001      101.020
     NS sqrt iter    3 1.00000000   0.717E-01       0.001      102.871
     NS sqrt iter    4 1.00000000   0.162E-02       0.001      102.436
     NS sqrt iter    5 1.00000000   0.392E-07       0.001       65.383
     Symmetrizing Results
     Final NS sqrt iter    5 1.00000000   0.385E-09

     Est. extremal eigenvalues     -0.93615     1.69561  converged:  T
     TRS4 it   1 1.00000000   0.876E+00       0.000       16.128   0.100E-07
     TRS4 it   2 1.00000000   0.616E+00       0.001       32.256   0.100E-07
     TRS4 it   3 1.00000000   0.418E+00       0.001       32.256   0.100E-07
     TRS4 it   4 1.00000000   0.210E+00       0.001       32.256   0.100E-07
     TRS4 it   5 1.00000000   0.658E-01       0.001       32.256   0.100E-07
     TRS4 it   6 1.00000000   0.807E-02       0.001       32.256   0.100E-07
     TRS4 it   7 1.00000000   0.158E-03       0.001       32.256   0.100E-07
     TRS4 it   8 1.00000000   0.833E-07       0.001       32.256   0.100E-07
     TRS4 it   9 1.00000000   0.292E-13       0.001       32.256   0.100E-07
     Final TRS4 iteration    9 1.00000000   0.292E-13
     Chemical potential (mu):       0.01651
 
 PAO| energy:  -7.7906930078036103      penalty:   1.5917830906122624E-005
 PAO|LS| adapt:  T T T
 PAO|LS| adapt: scan_steps:    0.0000000000000000       0.29434898274467114       0.58869796548934228     
 PAO|LS| adapt: energies:   -7.7892696800382417       -7.7913435197611181       -7.7906930078036103     
 PAO|LS| adapt: suggested step_size:   0.37123976796616998     
 PAO|LS| adapt: predicted energy  -7.7914364713219539     
 PAO| ======================= Iteration:        15 =============================

     Lanczos converged:  T threshold:   0.100E-02
     Est. extremal eigenvalues:    0.277E+01   0.181E+00
     Est. condition number :    0.153E+02

 Order=           3
     NS sqrt iter    1 1.00000000   0.706E+00       0.001       60.838
     NS sqrt iter    2 1.00000000   0.329E+00       0.001      102.136
     NS sqrt iter    3 1.00000000   0.747E-01       0.001      102.968
     NS sqrt iter    4 1.00000000   0.182E-02       0.001      102.583
     NS sqrt iter    5 1.00000000   0.555E-07       0.001       67.487
     Symmetrizing Results
     Final NS sqrt iter    5 1.00000000   0.482E-09

     Est. extremal eigenvalues     -0.93621     1.69960  converged:  T
     TRS4 it   1 1.00000000   0.877E+00       0.000       16.128   0.100E-07
     TRS4 it   2 1.00000000   0.618E+00       0.001       32.256   0.100E-07
     TRS4 it   3 1.00000000   0.421E+00       0.001       32.256   0.100E-07
     TRS4 it   4 1.00000000   0.213E+00       0.001       32.256   0.100E-07
     TRS4 it   5 1.00000000   0.682E-01       0.001       32.256   0.100E-07
     TRS4 it   6 1.00000000   0.871E-02       0.001       32.256   0.100E-07
     TRS4 it   7 1.00000000   0.186E-03       0.001       32.256   0.100E-07
     TRS4 it   8 1.00000000   0.117E-06       0.001       32.256   0.100E-07
     TRS4 it   9 1.00000000   0.580E-13       0.001       32.256   0.100E-07
     Final TRS4 iteration    9 1.00000000   0.580E-13
     Chemical potential (mu):       0.01331
 
 PAO| energy:  -7.7914333871479071      penalty:   1.5282197664398122E-005
 PAO|CG| trace_G_new    2.6267283937716321E-003
 PAO|CG| trace_G_prev    1.1827239391231325E-002
 PAO|CG| trace_G_mix    6.2166498870765214E-005
 PAO|CG| trace_D    1.6644223479332945E-002
 PAO|CG| trace_D_Gnew   3.4339973705312950E-005
 PAO|CG| beta:   0.21683520643052379     
 PAO| norm of gradient:   5.1251618450265865E-002
 PAO| energy improvement:  -2.1637071096654026E-003
 PAO| step     15                   -7.791433387  0.320E-02  0.371E+00     0.056
 PAO|LS| adapt:  T F F
 PAO|LS| adapt: scan_steps:    0.0000000000000000        0.0000000000000000        0.0000000000000000     
 PAO|LS| adapt: energies:   -7.7914333871479071        0.0000000000000000        0.0000000000000000     
 PAO| ======================= Iteration:        16 =============================

     Lanczos converged:  T threshold:   0.100E-02
     Est. extremal eigenvalues:    0.276E+01   0.182E+00
     Est. condition number :    0.152E+02

 Order=           3
     NS sqrt iter    1 1.00000000   0.704E+00       0.001       62.014
     NS sqrt iter    2 1.00000000   0.328E+00       0.001      103.293
     NS sqrt iter    3 1.00000000   0.740E-01       0.001      101.751
     NS sqrt iter    4 1.00000000   0.176E-02       0.001      102.481
     NS sqrt iter    5 1.00000000   0.503E-07       0.001       67.602
     Symmetrizing Results
     Final NS sqrt iter    5 1.00000000   0.430E-09

     Est. extremal eigenvalues     -0.93624     1.69913  converged:  T
     TRS4 it   1 1.00000000   0.877E+00       0.000       16.128   0.100E-07
     TRS4 it   2 1.00000000   0.617E+00       0.001       32.256   0.100E-07
     TRS4 it   3 1.00000000   0.419E+00       0.001       32.256   0.100E-07
     TRS4 it   4 1.00000000   0.211E+00       0.001       32.256   0.100E-07
     TRS4 it   5 1.00000000   0.670E-01       0.001       32.256   0.100E-07
     TRS4 it   6 1.00000000   0.843E-02       0.001       32.256   0.100E-07
     TRS4 it   7 1.00000000   0.175E-03       0.001       32.256   0.100E-07
     TRS4 it   8 1.00000000   0.105E-06       0.001       32.256   0.100E-07
     TRS4 it   9 1.00000000   0.477E-13       0.001       32.256   0.100E-07
     Final TRS4 iteration    9 1.00000000   0.477E-13
     Chemical potential (mu):       0.01413
 
 PAO| energy:  -7.7915576454863089      penalty:   1.5063563608630513E-005
 PAO|LS| adapt:  T T F
 PAO|LS| adapt: scan_steps:    0.0000000000000000       0.37123976796616998        0.0000000000000000     
 PAO|LS| adapt: energies:   -7.7914333871479071       -7.7915576454863089        0.0000000000000000     
 PAO| ======================= Iteration:        17 =============================

     Lanczos converged:  T threshold:   0.100E-02
     Est. extremal eigenvalues:    0.275E+01   0.183E+00
     Est. condition number :    0.151E+02

 Order=           3
     NS sqrt iter    1 1.00000000   0.702E+00       0.001       61.170
     NS sqrt iter    2 1.00000000   0.326E+00       0.001      102.218
     NS sqrt iter    3 1.00000000   0.733E-01       0.001      102.910
     NS sqrt iter    4 1.00000000   0.171E-02       0.001      102.126
     NS sqrt iter    5 1.00000000   0.456E-07       0.001       67.908
     Symmetrizing Results
     Final NS sqrt iter    5 1.00000000   0.347E-09

     Est. extremal eigenvalues     -0.93614     1.69874  converged:  T
     TRS4 it   1 1.00000000   0.877E+00       0.000       16.128   0.100E-07
     TRS4 it   2 1.00000000   0.616E+00       0.001       32.256   0.100E-07
     TRS4 it   3 1.00000000   0.418E+00       0.001       32.256   0.100E-07
     TRS4 it   4 1.00000000   0.210E+00       0.001       32.256   0.100E-07
     TRS4 it   5 1.00000000   0.660E-01       0.001       32.256   0.100E-07
     TRS4 it   6 1.00000000   0.816E-02       0.001       32.256   0.100E-07
     TRS4 it   7 1.00000000   0.165E-03       0.001       32.256   0.100E-07
     TRS4 it   8 1.00000000   0.946E-07       0.001       32.256   0.100E-07
     TRS4 it   9 1.00000000   0.389E-13       0.001       32.256   0.100E-07
     Final TRS4 iteration    9 1.00000000   0.389E-13
     Chemical potential (mu):       0.01493
 
 PAO| energy:  -7.7899799782190238      penalty:   1.4971867967432578E-005
 PAO|LS| adapt:  T T T
 PAO|LS| adapt: scan_steps:    0.0000000000000000       0.37123976796616998       0.74247953593233995     
 PAO|LS| adapt: energies:   -7.7914333871479071       -7.7915576454863089       -7.7899799782190238     
 PAO|LS| adapt: suggested step_size:   0.21272426302409780     
 PAO|LS| adapt: predicted energy  -7.7917127930958383     
 PAO| ======================= Iteration:        18 =============================

     Lanczos converged:  T threshold:   0.100E-02
     Est. extremal eigenvalues:    0.276E+01   0.182E+00
     Est. condition number :    0.152E+02

 Order=           3
     NS sqrt iter    1 1.00000000   0.705E+00       0.001       61.221
     NS sqrt iter    2 1.00000000   0.328E+00       0.001      102.414
     NS sqrt iter    3 1.00000000   0.743E-01       0.001      103.493
     NS sqrt iter    4 1.00000000   0.179E-02       0.001      102.782
     NS sqrt iter    5 1.00000000   0.524E-07       0.001       67.443
     Symmetrizing Results
     Final NS sqrt iter    5 1.00000000   0.452E-09

     Est. extremal eigenvalues     -0.93624     1.69932  converged:  T
     TRS4 it   1 1.00000000   0.877E+00       0.000       16.128   0.100E-07
     TRS4 it   2 1.00000000   0.617E+00       0.001       32.256   0.100E-07
     TRS4 it   3 1.00000000   0.420E+00       0.001       32.256   0.100E-07
     TRS4 it   4 1.00000000   0.212E+00       0.001       32.256   0.100E-07
     TRS4 it   5 1.00000000   0.675E-01       0.001       32.256   0.100E-07
     TRS4 it   6 1.00000000   0.855E-02       0.001       32.256   0.100E-07
     TRS4 it   7 1.00000000   0.180E-03       0.001       32.256   0.100E-07
     TRS4 it   8 1.00000000   0.110E-06       0.001       32.256   0.100E-07
     TRS4 it   9 1.00000000   0.520E-13       0.001       32.256   0.100E-07
     Final TRS4 iteration    9 1.00000000   0.520E-13
     Chemical potential (mu):       0.01378
 
 PAO| energy:  -7.7917123241161876      penalty:   1.5141667770485662E-005
 PAO|CG| trace_G_new    7.3096058101207895E-004
 PAO|CG| trace_G_prev    2.6267283937716321E-003
 PAO|CG| trace_G_mix    1.7018026381773348E-006
 PAO|CG| trace_D    3.3944060529481051E-003
 PAO|CG| trace_D_Gnew  -1.7656569353067335E-006
 PAO|CG| beta:   0.27763006639859827     
 PAO| norm of gradient:   2.7036282677396294E-002
 PAO| energy improvement:  -2.7893696828051873E-004
 PAO| step     18                   -7.791712324  0.169E-02  0.213E+00     0.056
 PAO|LS| adapt:  T F F
 PAO|LS| adapt: scan_steps:    0.0000000000000000        0.0000000000000000        0.0000000000000000     
 PAO|LS| adapt: energies:   -7.7917123241161876        0.0000000000000000        0.0000000000000000     
 PAO| ======================= Iteration:        19 =============================

     Lanczos converged:  T threshold:   0.100E-02
     Est. extremal eigenvalues:    0.276E+01   0.181E+00
     Est. condition number :    0.152E+02

 Order=           3
     NS sqrt iter    1 1.00000000   0.705E+00       0.001       62.200
     NS sqrt iter    2 1.00000000   0.328E+00       0.001      102.765
     NS sqrt iter    3 1.00000000   0.745E-01       0.001      102.594
     NS sqrt iter    4 1.00000000   0.180E-02       0.001      103.357
     NS sqrt iter    5 1.00000000   0.529E-07       0.001       68.199
     Symmetrizing Results
     Final NS sqrt iter    5 1.00000000   0.462E-09

     Est. extremal eigenvalues     -0.93624     1.69961  converged:  T
     TRS4 it   1 1.00000000   0.877E+00       0.000       16.128   0.100E-07
     TRS4 it   2 1.00000000   0.617E+00       0.001       32.256   0.100E-07
     TRS4 it   3 1.00000000   0.420E+00       0.001       32.256   0.100E-07
     TRS4 it   4 1.00000000   0.212E+00       0.001       32.256   0.100E-07
     TRS4 it   5 1.00000000   0.674E-01       0.001       32.256   0.100E-07
     TRS4 it   6 1.00000000   0.854E-02       0.001       32.256   0.100E-07
     TRS4 it   7 1.00000000   0.180E-03       0.001       32.256   0.100E-07
     TRS4 it   8 1.00000000   0.112E-06       0.001       32.256   0.100E-07
     TRS4 it   9 1.00000000   0.539E-13       0.001       32.256   0.100E-07
     Final TRS4 iteration    9 1.00000000   0.539E-13
     Chemical potential (mu):       0.01351
 
 PAO| energy:  -7.7918309709788378      penalty:   1.4851731703790377E-005
 PAO|LS| adapt:  T T F
 PAO|LS| adapt: scan_steps:    0.0000000000000000       0.21272426302409780        0.0000000000000000     
 PAO|LS| adapt: energies:   -7.7917123241161876       -7.7918309709788378        0.0000000000000000     
 PAO| ======================= Iteration:        20 =============================

     Lanczos converged:  T threshold:   0.100E-02
     Est. extremal eigenvalues:    0.276E+01   0.181E+00
     Est. condition number :    0.152E+02

 Order=           3
     NS sqrt iter    1 1.00000000   0.705E+00       0.001       60.779
     NS sqrt iter    2 1.00000000   0.329E+00       0.001      103.096
     NS sqrt iter    3 1.00000000   0.747E-01       0.001      102.338
     NS sqrt iter    4 1.00000000   0.181E-02       0.001      103.589
     NS sqrt iter    5 1.00000000   0.533E-07       0.001       69.017
     Symmetrizing Results
     Final NS sqrt iter    5 1.00000000   0.471E-09

     Est. extremal eigenvalues     -0.93624     1.69989  converged:  T
     TRS4 it   1 1.00000000   0.877E+00       0.000       16.128   0.100E-07
     TRS4 it   2 1.00000000   0.617E+00       0.001       32.256   0.100E-07
     TRS4 it   3 1.00000000   0.420E+00       0.001       32.256   0.100E-07
     TRS4 it   4 1.00000000   0.212E+00       0.001       32.256   0.100E-07
     TRS4 it   5 1.00000000   0.673E-01       0.001       32.256   0.100E-07
     TRS4 it   6 1.00000000   0.853E-02       0.001       32.256   0.100E-07
     TRS4 it   7 1.00000000   0.181E-03       0.001       32.256   0.100E-07
     TRS4 it   8 1.00000000   0.114E-06       0.001       32.256   0.100E-07
     TRS4 it   9 1.00000000   0.559E-13       0.001       32.256   0.100E-07
     Final TRS4 iteration    9 1.00000000   0.559E-13
     Chemical potential (mu):       0.01324
 
 PAO| energy:  -7.7918753120368676      penalty:   1.4574295784013908E-005
 PAO|LS| adapt:  T T F
 PAO|LS| adapt: scan_steps:    0.0000000000000000       0.42544852604819561        0.0000000000000000     
 PAO|LS| adapt: energies:   -7.7917123241161876       -7.7918753120368676        0.0000000000000000     
 PAO| ======================= Iteration:        21 =============================

     Lanczos converged:  T threshold:   0.100E-02
     Est. extremal eigenvalues:    0.277E+01   0.181E+00
     Est. condition number :    0.153E+02

 Order=           3
     NS sqrt iter    1 1.00000000   0.705E+00       0.001       61.411
     NS sqrt iter    2 1.00000000   0.329E+00       0.001      101.857
     NS sqrt iter    3 1.00000000   0.752E-01       0.001      103.719
     NS sqrt iter    4 1.00000000   0.183E-02       0.001      103.459
     NS sqrt iter    5 1.00000000   0.544E-07       0.001       69.549
     Symmetrizing Results
     Final NS sqrt iter    5 1.00000000   0.484E-09

     Est. extremal eigenvalues     -0.93623     1.70048  converged:  T
     TRS4 it   1 1.00000000   0.877E+00       0.000       16.128   0.100E-07
     TRS4 it   2 1.00000000   0.617E+00       0.001       32.256   0.100E-07
     TRS4 it   3 1.00000000   0.419E+00       0.001       32.256   0.100E-07
     TRS4 it   4 1.00000000   0.211E+00       0.001       32.256   0.100E-07
     TRS4 it   5 1.00000000   0.671E-01       0.001       32.256   0.100E-07
     TRS4 it   6 1.00000000   0.852E-02       0.001       32.256   0.100E-07
     TRS4 it   7 1.00000000   0.182E-03       0.001       32.256   0.100E-07
     TRS4 it   8 1.00000000   0.117E-06       0.001       32.256   0.100E-07
     TRS4 it   9 1.00000000   0.603E-13       0.001       32.256   0.100E-07
     Final TRS4 iteration    9 1.00000000   0.603E-13
     Chemical potential (mu):       0.01269
 
 PAO| energy:  -7.7917386624628389      penalty:   1.4056348901592438E-005
 PAO|LS| Need extra step
 PAO|LS| adapt:  T T T
 PAO|LS| adapt: scan_steps:    0.0000000000000000       0.42544852604819561       0.85089705209639122     
 PAO|LS| adapt: energies:   -7.7917123241161876       -7.7918753120368676       -7.7917386624628389     
 PAO|LS| adapt: suggested step_size:   0.44414713847019155     
 PAO|LS| adapt: predicted energy  -7.7918756014317694     
 PAO| ======================= Iteration:        22 =============================

     Lanczos converged:  T threshold:   0.100E-02
     Est. extremal eigenvalues:    0.276E+01   0.181E+00
     Est. condition number :    0.152E+02

 Order=           3
     NS sqrt iter    1 1.00000000   0.705E+00       0.001       59.323
     NS sqrt iter    2 1.00000000   0.329E+00       0.001      101.611
     NS sqrt iter    3 1.00000000   0.748E-01       0.001      101.868
     NS sqrt iter    4 1.00000000   0.181E-02       0.001      103.675
     NS sqrt iter    5 1.00000000   0.534E-07       0.001       67.863
     Symmetrizing Results
     Final NS sqrt iter    5 1.00000000   0.471E-09

     Est. extremal eigenvalues     -0.93624     1.69992  converged:  T
     TRS4 it   1 1.00000000   0.877E+00       0.000       16.128   0.100E-07
     TRS4 it   2 1.00000000   0.617E+00       0.001       32.256   0.100E-07
     TRS4 it   3 1.00000000   0.420E+00       0.001       32.256   0.100E-07
     TRS4 it   4 1.00000000   0.212E+00       0.001       32.256   0.100E-07
     TRS4 it   5 1.00000000   0.673E-01       0.001       32.256   0.100E-07
     TRS4 it   6 1.00000000   0.853E-02       0.001       32.256   0.100E-07
     TRS4 it   7 1.00000000   0.181E-03       0.001       32.256   0.100E-07
     TRS4 it   8 1.00000000   0.114E-06       0.001       32.256   0.100E-07
     TRS4 it   9 1.00000000   0.559E-13       0.001       32.256   0.100E-07
     Final TRS4 iteration    9 1.00000000   0.559E-13
     Chemical potential (mu):       0.01321
 
 PAO| energy:  -7.7918756367795936      penalty:   1.4550500764054229E-005
 PAO|CG| trace_G_new    2.2343144566772181E-004
 PAO|CG| trace_G_prev    7.3096058101207895E-004
 PAO|CG| trace_G_mix    3.0543982678159177E-006
 PAO|CG| trace_D    9.9357654994009490E-004
 PAO|CG| trace_D_Gnew  -1.8837055131238077E-006
 PAO|CG| beta:   0.30148964680800511     
 PAO| norm of gradient:   1.4947623412025131E-002
 PAO| energy improvement:  -1.6331266340596784E-004
 PAO| step     22                   -7.791875637  0.934E-03  0.444E+00     0.072
 PAO|LS| adapt:  T F F
 PAO|LS| adapt: scan_steps:    0.0000000000000000        0.0000000000000000        0.0000000000000000     
 PAO|LS| adapt: energies:   -7.7918756367795936        0.0000000000000000        0.0000000000000000     
 PAO| ======================= Iteration:        23 =============================

     Lanczos converged:  T threshold:   0.100E-02
     Est. extremal eigenvalues:    0.277E+01   0.181E+00
     Est. condition number :    0.152E+02

 Order=           3
     NS sqrt iter    1 1.00000000   0.705E+00       0.001       63.301
     NS sqrt iter    2 1.00000000   0.329E+00       0.001      103.087
     NS sqrt iter    3 1.00000000   0.748E-01       0.001      101.638
     NS sqrt iter    4 1.00000000   0.181E-02       0.001      103.401
     NS sqrt iter    5 1.00000000   0.534E-07       0.001       68.261
     Symmetrizing Results
     Final NS sqrt iter    5 1.00000000   0.477E-09

     Est. extremal eigenvalues     -0.93624     1.69985  converged:  T
     TRS4 it   1 1.00000000   0.877E+00       0.000       16.128   0.100E-07
     TRS4 it   2 1.00000000   0.617E+00       0.001       32.256   0.100E-07
     TRS4 it   3 1.00000000   0.420E+00       0.001       32.256   0.100E-07
     TRS4 it   4 1.00000000   0.212E+00       0.001       32.256   0.100E-07
     TRS4 it   5 1.00000000   0.674E-01       0.001       32.256   0.100E-07
     TRS4 it   6 1.00000000   0.857E-02       0.001       32.256   0.100E-07
     TRS4 it   7 1.00000000   0.183E-03       0.001       32.256   0.100E-07
     TRS4 it   8 1.00000000   0.117E-06       0.001       32.256   0.100E-07
     TRS4 it   9 1.00000000   0.587E-13       0.001       32.256   0.100E-07
     Final TRS4 iteration    9 1.00000000   0.587E-13
     Chemical potential (mu):       0.01290
 
 PAO| energy:  -7.7919251068968505      penalty:   1.3867591866588378E-005
 PAO|LS| adapt:  T T F
 PAO|LS| adapt: scan_steps:    0.0000000000000000       0.44414713847019155        0.0000000000000000     
 PAO|LS| adapt: energies:   -7.7918756367795936       -7.7919251068968505        0.0000000000000000     
 PAO| ======================= Iteration:        24 =============================

     Lanczos converged:  T threshold:   0.100E-02
     Est. extremal eigenvalues:    0.277E+01   0.181E+00
     Est. condition number :    0.153E+02

 Order=           3
     NS sqrt iter    1 1.00000000   0.705E+00       0.001       61.078
     NS sqrt iter    2 1.00000000   0.329E+00       0.001      100.585
     NS sqrt iter    3 1.00000000   0.749E-01       0.001      102.963
     NS sqrt iter    4 1.00000000   0.181E-02       0.001      102.584
     NS sqrt iter    5 1.00000000   0.535E-07       0.001       68.777
     Symmetrizing Results
     Final NS sqrt iter    5 1.00000000   0.487E-09

     Est. extremal eigenvalues     -0.93624     1.69978  converged:  T
     TRS4 it   1 1.00000000   0.877E+00       0.000       16.128   0.100E-07
     TRS4 it   2 1.00000000   0.617E+00       0.001       32.256   0.100E-07
     TRS4 it   3 1.00000000   0.420E+00       0.001       32.256   0.100E-07
     TRS4 it   4 1.00000000   0.212E+00       0.001       32.256   0.100E-07
     TRS4 it   5 1.00000000   0.675E-01       0.001       32.256   0.100E-07
     TRS4 it   6 1.00000000   0.861E-02       0.001       32.256   0.100E-07
     TRS4 it   7 1.00000000   0.185E-03       0.001       32.256   0.100E-07
     TRS4 it   8 1.00000000   0.120E-06       0.001       32.256   0.100E-07
     TRS4 it   9 1.00000000   0.632E-13       0.001       32.256   0.100E-07
     Final TRS4 iteration    9 1.00000000   0.632E-13
     Chemical potential (mu):       0.01259
 
 PAO| energy:  -7.7918738995976904      penalty:   1.3213050824878987E-005
 PAO|LS| adapt:  T T T
 PAO|LS| adapt: scan_steps:    0.0000000000000000       0.44414713847019155       0.88829427694038310     
 PAO|LS| adapt: energies:   -7.7918756367795936       -7.7919251068968505       -7.7918738995976904     
 PAO|LS| adapt: suggested step_size:   0.44031527429064027     
 PAO|LS| adapt: predicted energy  -7.7919251106437200     
 PAO| ======================= Iteration:        25 =============================

     Lanczos converged:  T threshold:   0.100E-02
     Est. extremal eigenvalues:    0.277E+01   0.181E+00
     Est. condition number :    0.152E+02

 Order=           3
     NS sqrt iter    1 1.00000000   0.705E+00       0.001       60.461
     NS sqrt iter    2 1.00000000   0.329E+00       0.001      102.896
     NS sqrt iter    3 1.00000000   0.748E-01       0.001      102.935
     NS sqrt iter    4 1.00000000   0.181E-02       0.001      102.436
     NS sqrt iter    5 1.00000000   0.534E-07       0.001       67.166
     Symmetrizing Results
     Final NS sqrt iter    5 1.00000000   0.477E-09

     Est. extremal eigenvalues     -0.93624     1.69985  converged:  T
     TRS4 it   1 1.00000000   0.877E+00       0.000       16.128   0.100E-07
     TRS4 it   2 1.00000000   0.617E+00       0.001       32.256   0.100E-07
     TRS4 it   3 1.00000000   0.420E+00       0.001       32.256   0.100E-07
     TRS4 it   4 1.00000000   0.212E+00       0.001       32.256   0.100E-07
     TRS4 it   5 1.00000000   0.674E-01       0.001       32.256   0.100E-07
     TRS4 it   6 1.00000000   0.857E-02       0.001       32.256   0.100E-07
     TRS4 it   7 1.00000000   0.183E-03       0.001       32.256   0.100E-07
     TRS4 it   8 1.00000000   0.117E-06       0.001       32.256   0.100E-07
     TRS4 it   9 1.00000000   0.588E-13       0.001       32.256   0.100E-07
     Final TRS4 iteration    9 1.00000000   0.588E-13
     Chemical potential (mu):       0.01291
 
 PAO| energy:  -7.7919251092625919      penalty:   1.3873361449539421E-005
 PAO|CG| trace_G_new    7.9887688257369841E-005
 PAO|CG| trace_G_prev    2.2343144566772181E-004
 PAO|CG| trace_G_mix    7.1088470129959781E-007
 PAO|CG| trace_D    3.1487942225736157E-004
 PAO|CG| trace_D_Gnew  -3.6042657262981750E-007
 PAO|CG| beta:   0.35436732425667050     
 PAO| norm of gradient:   8.9379912876087451E-003
 PAO| energy improvement:  -4.9472482998247358E-005
 PAO| step     25                   -7.791925109  0.559E-03  0.440E+00     0.056
 PAO|LS| adapt:  T F F
 PAO|LS| adapt: scan_steps:    0.0000000000000000        0.0000000000000000        0.0000000000000000     
 PAO|LS| adapt: energies:   -7.7919251092625919        0.0000000000000000        0.0000000000000000     
 PAO| ======================= Iteration:        26 =============================

     Lanczos converged:  T threshold:   0.100E-02
     Est. extremal eigenvalues:    0.276E+01   0.181E+00
     Est. condition number :    0.152E+02

 Order=           3
     NS sqrt iter    1 1.00000000   0.705E+00       0.001       62.483
     NS sqrt iter    2 1.00000000   0.329E+00       0.001      104.331
     NS sqrt iter    3 1.00000000   0.747E-01       0.001      101.872
     NS sqrt iter    4 1.00000000   0.180E-02       0.001      103.473
     NS sqrt iter    5 1.00000000   0.531E-07       0.001       68.424
     Symmetrizing Results
     Final NS sqrt iter    5 1.00000000   0.475E-09

     Est. extremal eigenvalues     -0.93624     1.69963  converged:  T
     TRS4 it   1 1.00000000   0.877E+00       0.000       16.128   0.100E-07
     TRS4 it   2 1.00000000   0.617E+00       0.001       32.256   0.100E-07
     TRS4 it   3 1.00000000   0.420E+00       0.001       32.256   0.100E-07
     TRS4 it   4 1.00000000   0.212E+00       0.001       32.256   0.100E-07
     TRS4 it   5 1.00000000   0.674E-01       0.001       32.256   0.100E-07
     TRS4 it   6 1.00000000   0.855E-02       0.001       32.256   0.100E-07
     TRS4 it   7 1.00000000   0.182E-03       0.001       32.256   0.100E-07
     TRS4 it   8 1.00000000   0.116E-06       0.001       32.256   0.100E-07
     TRS4 it   9 1.00000000   0.577E-13       0.001       32.256   0.100E-07
     Final TRS4 iteration    9 1.00000000   0.577E-13
     Chemical potential (mu):       0.01302
 
 PAO| energy:  -7.7919292006249696      penalty:   1.3152112755322236E-005
 PAO|LS| adapt:  T T F
 PAO|LS| adapt: scan_steps:    0.0000000000000000       0.44031527429064027        0.0000000000000000     
 PAO|LS| adapt: energies:   -7.7919251092625919       -7.7919292006249696        0.0000000000000000     
 PAO| ======================= Iteration:        27 =============================

     Lanczos converged:  T threshold:   0.100E-02
     Est. extremal eigenvalues:    0.276E+01   0.181E+00
     Est. condition number :    0.152E+02

 Order=           3
     NS sqrt iter    1 1.00000000   0.704E+00       0.001       61.144
     NS sqrt iter    2 1.00000000   0.328E+00       0.001      101.034
     NS sqrt iter    3 1.00000000   0.746E-01       0.001      102.913
     NS sqrt iter    4 1.00000000   0.180E-02       0.001      104.046
     NS sqrt iter    5 1.00000000   0.528E-07       0.001       68.583
     Symmetrizing Results
     Final NS sqrt iter    5 1.00000000   0.475E-09

     Est. extremal eigenvalues     -0.93624     1.69941  converged:  T
     TRS4 it   1 1.00000000   0.877E+00       0.000       16.128   0.100E-07
     TRS4 it   2 1.00000000   0.617E+00       0.001       32.256   0.100E-07
     TRS4 it   3 1.00000000   0.419E+00       0.001       32.256   0.100E-07
     TRS4 it   4 1.00000000   0.212E+00       0.001       32.256   0.100E-07
     TRS4 it   5 1.00000000   0.673E-01       0.001       32.256   0.100E-07
     TRS4 it   6 1.00000000   0.854E-02       0.001       32.256   0.100E-07
     TRS4 it   7 1.00000000   0.181E-03       0.001       32.256   0.100E-07
     TRS4 it   8 1.00000000   0.114E-06       0.001       32.256   0.100E-07
     TRS4 it   9 1.00000000   0.563E-13       0.001       32.256   0.100E-07
     Final TRS4 iteration    9 1.00000000   0.563E-13
     Chemical potential (mu):       0.01313
 
 PAO| energy:  -7.7918709054044202      penalty:   1.2454374360382650E-005
 PAO|LS| adapt:  T T T
 PAO|LS| adapt: scan_steps:    0.0000000000000000       0.44031527429064027       0.88063054858128054     
 PAO|LS| adapt: energies:   -7.7919251092625919       -7.7919292006249696       -7.7918709054044202     
 PAO|LS| adapt: suggested step_size:   0.24903386762736346     
 PAO|LS| adapt: predicted energy  -7.7919350874240676     
 PAO| ======================= Iteration:        28 =============================

     Lanczos converged:  T threshold:   0.100E-02
     Est. extremal eigenvalues:    0.277E+01   0.181E+00
     Est. condition number :    0.152E+02

 Order=           3
     NS sqrt iter    1 1.00000000   0.705E+00       0.001       60.650
     NS sqrt iter    2 1.00000000   0.329E+00       0.001      101.497
     NS sqrt iter    3 1.00000000   0.747E-01       0.001      102.947
     NS sqrt iter    4 1.00000000   0.180E-02       0.001      103.338
     NS sqrt iter    5 1.00000000   0.533E-07       0.001       67.932
     Symmetrizing Results
     Final NS sqrt iter    5 1.00000000   0.476E-09

     Est. extremal eigenvalues     -0.93624     1.69973  converged:  T
     TRS4 it   1 1.00000000   0.877E+00       0.000       16.128   0.100E-07
     TRS4 it   2 1.00000000   0.617E+00       0.001       32.256   0.100E-07
     TRS4 it   3 1.00000000   0.420E+00       0.001       32.256   0.100E-07
     TRS4 it   4 1.00000000   0.212E+00       0.001       32.256   0.100E-07
     TRS4 it   5 1.00000000   0.674E-01       0.001       32.256   0.100E-07
     TRS4 it   6 1.00000000   0.856E-02       0.001       32.256   0.100E-07
     TRS4 it   7 1.00000000   0.182E-03       0.001       32.256   0.100E-07
     TRS4 it   8 1.00000000   0.116E-06       0.001       32.256   0.100E-07
     TRS4 it   9 1.00000000   0.569E-13       0.001       32.256   0.100E-07
     Final TRS4 iteration    9 1.00000000   0.569E-13
     Chemical potential (mu):       0.01297
 
 PAO| energy:  -7.7919350781898320      penalty:   1.3462530047934029E-005
 PAO|CG| trace_G_new    3.1475772556282421E-005
 PAO|CG| trace_G_prev    7.9887688257369841E-005
 PAO|CG| trace_G_mix    5.0767775263000447E-008
 PAO|CG| trace_D    1.1968449652061418E-004
 PAO|CG| trace_D_Gnew  -2.5672551746703251E-008
 PAO|CG| beta:   0.39336480334465540     
 PAO| norm of gradient:   5.6103273127583583E-003
 PAO| energy improvement:  -9.9689272401448648E-006
 PAO| step     28                   -7.791935078  0.351E-03  0.249E+00     0.056
 PAO|LS| adapt:  T F F
 PAO|LS| adapt: scan_steps:    0.0000000000000000        0.0000000000000000        0.0000000000000000     
 PAO|LS| adapt: energies:   -7.7919350781898320        0.0000000000000000        0.0000000000000000     
 PAO| ======================= Iteration:        29 =============================

     Lanczos converged:  T threshold:   0.100E-02
     Est. extremal eigenvalues:    0.276E+01   0.181E+00
     Est. condition number :    0.152E+02

 Order=           3
     NS sqrt iter    1 1.00000000   0.705E+00       0.001       61.710
     NS sqrt iter    2 1.00000000   0.329E+00       0.001      103.872
     NS sqrt iter    3 1.00000000   0.747E-01       0.001      102.217
     NS sqrt iter    4 1.00000000   0.180E-02       0.001      103.575
     NS sqrt iter    5 1.00000000   0.532E-07       0.001       68.183
     Symmetrizing Results
     Final NS sqrt iter    5 1.00000000   0.476E-09

     Est. extremal eigenvalues     -0.93624     1.69970  converged:  T
     TRS4 it   1 1.00000000   0.877E+00       0.000       16.128   0.100E-07
     TRS4 it   2 1.00000000   0.617E+00       0.001       32.256   0.100E-07
     TRS4 it   3 1.00000000   0.419E+00       0.001       32.256   0.100E-07
     TRS4 it   4 1.00000000   0.212E+00       0.001       32.256   0.100E-07
     TRS4 it   5 1.00000000   0.673E-01       0.001       32.256   0.100E-07
     TRS4 it   6 1.00000000   0.854E-02       0.001       32.256   0.100E-07
     TRS4 it   7 1.00000000   0.181E-03       0.001       32.256   0.100E-07
     TRS4 it   8 1.00000000   0.115E-06       0.001       32.256   0.100E-07
     TRS4 it   9 1.00000000   0.564E-13       0.001       32.256   0.100E-07
     Final TRS4 iteration    9 1.00000000   0.564E-13
     Chemical potential (mu):       0.01309
 
 PAO| energy:  -7.7919419906529823      penalty:   1.3033000144133427E-005
 PAO|LS| adapt:  T T F
 PAO|LS| adapt: scan_steps:    0.0000000000000000       0.24903386762736346        0.0000000000000000     
 PAO|LS| adapt: energies:   -7.7919350781898320       -7.7919419906529823        0.0000000000000000     
 PAO| ======================= Iteration:        30 =============================

     Lanczos converged:  T threshold:   0.100E-02
     Est. extremal eigenvalues:    0.276E+01   0.181E+00
     Est. condition number :    0.152E+02

 Order=           3
     NS sqrt iter    1 1.00000000   0.704E+00       0.001       60.984
     NS sqrt iter    2 1.00000000   0.328E+00       0.001      102.393
     NS sqrt iter    3 1.00000000   0.746E-01       0.001      101.177
     NS sqrt iter    4 1.00000000   0.180E-02       0.001      102.768
     NS sqrt iter    5 1.00000000   0.532E-07       0.001       67.874
     Symmetrizing Results
     Final NS sqrt iter    5 1.00000000   0.476E-09

     Est. extremal eigenvalues     -0.93624     1.69968  converged:  T
     TRS4 it   1 1.00000000   0.877E+00       0.000       16.128   0.100E-07
     TRS4 it   2 1.00000000   0.617E+00       0.001       32.256   0.100E-07
     TRS4 it   3 1.00000000   0.419E+00       0.001       32.256   0.100E-07
     TRS4 it   4 1.00000000   0.212E+00       0.001       32.256   0.100E-07
     TRS4 it   5 1.00000000   0.672E-01       0.001       32.256   0.100E-07
     TRS4 it   6 1.00000000   0.852E-02       0.001       32.256   0.100E-07
     TRS4 it   7 1.00000000   0.180E-03       0.001       32.256   0.100E-07
     TRS4 it   8 1.00000000   0.113E-06       0.001       32.256   0.100E-07
     TRS4 it   9 1.00000000   0.551E-13       0.001       32.256   0.100E-07
     Final TRS4 iteration    9 1.00000000   0.551E-13
     Chemical potential (mu):       0.01323
 
 PAO| energy:  -7.7919470460616909      penalty:   1.2611235677787150E-005
 PAO|LS| adapt:  T T F
 PAO|LS| adapt: scan_steps:    0.0000000000000000       0.49806773525472692        0.0000000000000000     
 PAO|LS| adapt: energies:   -7.7919350781898320       -7.7919470460616909        0.0000000000000000     
 PAO| ======================= Iteration:        31 =============================

     Lanczos converged:  T threshold:   0.100E-02
     Est. extremal eigenvalues:    0.276E+01   0.181E+00
     Est. condition number :    0.152E+02

 Order=           3
     NS sqrt iter    1 1.00000000   0.704E+00       0.001       60.991
     NS sqrt iter    2 1.00000000   0.328E+00       0.001      100.950
     NS sqrt iter    3 1.00000000   0.745E-01       0.001      102.585
     NS sqrt iter    4 1.00000000   0.180E-02       0.001      103.034
     NS sqrt iter    5 1.00000000   0.531E-07       0.001       68.257
     Symmetrizing Results
     Final NS sqrt iter    5 1.00000000   0.465E-09

     Est. extremal eigenvalues     -0.93625     1.69963  converged:  T
     TRS4 it   1 1.00000000   0.877E+00       0.000       16.128   0.100E-07
     TRS4 it   2 1.00000000   0.617E+00       0.001       32.256   0.100E-07
     TRS4 it   3 1.00000000   0.419E+00       0.001       32.256   0.100E-07
     TRS4 it   4 1.00000000   0.211E+00       0.001       32.256   0.100E-07
     TRS4 it   5 1.00000000   0.671E-01       0.001       32.256   0.100E-07
     TRS4 it   6 1.00000000   0.848E-02       0.001       32.256   0.100E-07
     TRS4 it   7 1.00000000   0.179E-03       0.001       32.256   0.100E-07
     TRS4 it   8 1.00000000   0.111E-06       0.001       32.256   0.100E-07
     TRS4 it   9 1.00000000   0.527E-13       0.001       32.256   0.100E-07
     Final TRS4 iteration    9 1.00000000   0.527E-13
     Chemical potential (mu):       0.01348
 
 PAO| energy:  -7.7919515860927246      penalty:   1.1790846486146479E-005
 PAO|LS| Need extra step
 PAO|LS| adapt:  T T F
 PAO|LS| adapt: scan_steps:    0.0000000000000000       0.99613547050945384        0.0000000000000000     
 PAO|LS| adapt: energies:   -7.7919350781898320       -7.7919515860927246        0.0000000000000000     
 PAO| ======================= Iteration:        32 =============================

     Lanczos converged:  T threshold:   0.100E-02
     Est. extremal eigenvalues:    0.276E+01   0.181E+00
     Est. condition number :    0.152E+02

 Order=           3
[...]
     NS sqrt iter    5 1.00000000   0.577E-08       0.001       38.272
     Symmetrizing Results
     Final NS sqrt iter    5 1.00000000   0.341E-09

     Est. extremal eigenvalues     -0.93593     1.63068  converged:  T
     TRS4 it   1 1.00000000   0.881E+00       0.000       16.128   0.100E-07
     TRS4 it   2 1.00000000   0.632E+00       0.000       32.256   0.100E-07
     TRS4 it   3 1.00000000   0.454E+00       0.000       32.256   0.100E-07
     TRS4 it   4 1.00000000   0.276E+00       0.000       32.256   0.100E-07
     TRS4 it   5 1.00000000   0.136E+00       0.000       32.256   0.100E-07
     TRS4 it   6 1.00000000   0.415E-01       0.000       32.256   0.100E-07
     TRS4 it   7 1.00000000   0.538E-02       0.000       32.256   0.100E-07
     TRS4 it   8 1.00000000   0.122E-03       0.000       32.256   0.100E-07
     TRS4 it   9 1.00000000   0.664E-07       0.000       32.256   0.100E-07
     Final TRS4 iteration    9 1.00000000   0.664E-07
     Chemical potential (mu):      -0.07257
 
 PAO| energy:  -7.7910351390207042      penalty:   2.0732769987398963E-008
 PAO|CG| warming up with steepest descent
 PAO|CG| beta:    0.0000000000000000     
 PAO| norm of gradient:   1.2831939761631764E-004
 PAO| energy improvement:  -5.1278439272550713E-009
 PAO| step    420                   -7.791035139  0.802E-05  0.266E+00     0.046
 PAO| converged after          420  steps :-)
 PAO| Recalculating energy after mixing.

     Lanczos converged:  T threshold:   0.100E-02
     Est. extremal eigenvalues:    0.250E+01   0.191E+00
     Est. condition number :    0.131E+02

 Order=           3
     NS sqrt iter    1 1.00000000   0.633E+00       0.001       64.512
     NS sqrt iter    2 1.00000000   0.275E+00       0.001      110.592
     NS sqrt iter    3 1.00000000   0.486E-01       0.001      110.592
     NS sqrt iter    4 1.00000000   0.760E-03       0.001      110.592
     NS sqrt iter    5 1.00000000   0.577E-08       0.001       38.272
     Symmetrizing Results
     Final NS sqrt iter    5 1.00000000   0.341E-09

     Est. extremal eigenvalues     -0.93593     1.63068  converged:  T
     TRS4 it   1 1.00000000   0.881E+00       0.000       16.128   0.100E-07
     TRS4 it   2 1.00000000   0.632E+00       0.000       32.256   0.100E-07
     TRS4 it   3 1.00000000   0.454E+00       0.000       32.256   0.100E-07
     TRS4 it   4 1.00000000   0.276E+00       0.000       32.256   0.100E-07
     TRS4 it   5 1.00000000   0.136E+00       0.000       32.256   0.100E-07
     TRS4 it   6 1.00000000   0.415E-01       0.000       32.256   0.100E-07
     TRS4 it   7 1.00000000   0.538E-02       0.000       32.256   0.100E-07
     TRS4 it   8 1.00000000   0.122E-03       0.000       32.256   0.100E-07
     TRS4 it   9 1.00000000   0.664E-07       0.000       32.256   0.100E-07
     Final TRS4 iteration    9 1.00000000   0.664E-07
     Chemical potential (mu):      -0.07257
 
 PAO| energy:  -7.7910351377387235      penalty:   2.0956360608855020E-008
 PAO| Writing restart file.
     Est. extremal eigenvalues     -0.93593     1.63068  converged:  T
     TRS4 it   1 1.00000000   0.881E+00       0.000       16.128   0.100E-07
     TRS4 it   2 1.00000000   0.632E+00       0.000       32.256   0.100E-07
     TRS4 it   3 1.00000000   0.454E+00       0.000       32.256   0.100E-07
     TRS4 it   4 1.00000000   0.276E+00       0.000       32.256   0.100E-07
     TRS4 it   5 1.00000000   0.136E+00       0.000       32.256   0.100E-07
     TRS4 it   6 1.00000000   0.415E-01       0.000       32.256   0.100E-07
     TRS4 it   7 1.00000000   0.538E-02       0.000       32.256   0.100E-07
     TRS4 it   8 1.00000000   0.122E-03       0.000       32.256   0.100E-07
     TRS4 it   9 1.00000000   0.664E-07       0.000       32.256   0.100E-07
     Final TRS4 iteration    9 1.00000000   0.664E-07
     Chemical potential (mu):      -0.07257

 SCF     1       -34.450283709       -34.450283709    0.956402

*********************************************************
 Using MIXING_FRACTION=0.450 to mix KS matrix:  iscf=  2
 KS_nw=0.450*KS + 0.550*KS_old
*********************************************************
     Est. extremal eigenvalues     -0.93593     1.63068  converged:  T
     TRS4 it   1 1.00000000   0.881E+00       0.000       16.128   0.100E-07
     TRS4 it   2 1.00000000   0.632E+00       0.000       32.256   0.100E-07
     TRS4 it   3 1.00000000   0.454E+00       0.000       32.256   0.100E-07
     TRS4 it   4 1.00000000   0.276E+00       0.000       32.256   0.100E-07
     TRS4 it   5 1.00000000   0.136E+00       0.000       32.256   0.100E-07
     TRS4 it   6 1.00000000   0.415E-01       0.000       32.256   0.100E-07
     TRS4 it   7 1.00000000   0.538E-02       0.000       32.256   0.100E-07
     TRS4 it   8 1.00000000   0.122E-03       0.000       32.256   0.100E-07
     TRS4 it   9 1.00000000   0.665E-07       0.000       32.256   0.100E-07
     Final TRS4 iteration    9 1.00000000   0.665E-07
     Chemical potential (mu):      -0.07257

 SCF     2       -34.450283709        -0.000000000    0.951130


 SCF run converged in     2 steps.

 PAO| Storing density matrix for ASPC guess in slot:           1

 ENERGY| Total FORCE_EVAL ( QS ) energy [a.u.]:              -34.450283708882907

 -------------------------------------------------------------------------------
 -                                                                             -
 -                                DBCSR STATISTICS                             -
 -                                                                             -
 -------------------------------------------------------------------------------
 COUNTER                                    TOTAL       BLAS       SMM       ACC
 flops     5 x     5 x     4                20000       0.0%    100.0%      0.0%
 flops    13 x     5 x     4                20800       0.0%    100.0%      0.0%
 flops     5 x    13 x     4                20800       0.0%    100.0%      0.0%
 flops    13 x    13 x     4                40560       0.0%    100.0%      0.0%
 flops     4 x     4 x     5              3298560       0.0%    100.0%      0.0%
 flops     5 x     4 x     5              4035200       0.0%    100.0%      0.0%
 flops     4 x     4 x    13              4288128       0.0%    100.0%      0.0%
 flops    13 x     4 x     5              5245760       0.0%    100.0%      0.0%
 flops     5 x     4 x    13              5245760       0.0%    100.0%      0.0%
 flops     5 x     4 x     4              6725440       0.0%    100.0%      0.0%
 flops    13 x     4 x    13              6819488       0.0%    100.0%      0.0%
 flops    13 x     4 x     4              9052160       0.0%    100.0%      0.0%
 flops     4 x     4 x     4            420583296       0.0%    100.0%      0.0%
 flops inhomo. stacks                           0       0.0%      0.0%      0.0%
 flops total                       465.395952E+06       0.0%    100.0%      0.0%
 flops max/rank                    465.395952E+06       0.0%    100.0%      0.0%
 matmuls inhomo. stacks                         0       0.0%      0.0%      0.0%
 matmuls total                            3426131       0.0%    100.0%      0.0%
 number of processed stacks                 27373       0.0%    100.0%      0.0%
 average stack size                                     0.0     125.2       0.0
 marketing flops                   755.156544E+06
 -------------------------------------------------------------------------------
 # multiplications                          22750
 max memory usage/rank             506.134528E+06
 # max total images/rank                        1
 # max 3D layers                                1
 # MPI messages exchanged                       0
 -------------------------------------------------------------------------------

 -------------------------------------------------------------------------------
 -                                                                             -
 -                                DBM STATISTICS                               -
 -                                                                             -
 -------------------------------------------------------------------------------
    M  x    N  x    K                                          COUNT     PERCENT
 -------------------------------------------------------------------------------

 -------------------------------------------------------------------------------
 -                                                                             -
 -                                GRID STATISTICS                              -
 -                                                                             -
 -------------------------------------------------------------------------------
 LP    KERNEL             BACKEND                              COUNT     PERCENT
 2     collocate ortho    REF                                  38000      30.69%
 2     integrate ortho    REF                                  38000      30.69%
 3     collocate ortho    REF                                  19640      15.86%
 3     integrate ortho    REF                                  19640      15.86%
 4     collocate ortho    REF                                   4270       3.45%
 4     integrate ortho    REF                                   4270       3.45%
 0     collocate general  REF                                      6       0.00%
 -------------------------------------------------------------------------------

 MEMORY| Estimated peak process memory [MiB]                                 484

 -------------------------------------------------------------------------------
 -                                                                             -
 -                           R E F E R E N C E S                               -
 -                                                                             -
 -------------------------------------------------------------------------------
 
 CP2K version 2023.1 (Development Version), the CP2K developers group (2023).
 CP2K is freely available from https://www.cp2k.org/ .

 Kuehne,Thomas D.; Iannuzzi,Marcella; Del Ben,Mauro;
 Rybkin,Vladimir V.; Seewald,Patrick; Stein,Frederick; Laino,Teodoro;
 Khaliullin,Rustam Z.; Schuett,Ole; Schiffmann,Florian; Golze,Dorothea;
 Wilhelm,Jan; Chulkov,Sergey; Bani-Hashemian,Mohammad Hossein;
 Weber,Valery; Borstnik,Urban; Taillefumier,Mathieu;
 Jakobovits,Alice Shoshana; Lazzaro,Alfio; Pabst,Hans; Mueller,Tiziano;
 Schade,Robert; Guidon,Manuel; Andermatt,Samuel; Holmberg,Nico;
 Schenter,Gregory K.; Hehn,Anna; Bussy,Augustin; Belleflamme,Fabian;
 Tabacchi,Gloria; Gloess,Andreas; Lass,Michael; Bethune,Iain;
 Mundy,Christopher J.; Plessl,Christian; Watkins,Matt;
 VandeVondele,Joost; Krack,Matthias; Hutter,Juerg. 
 The Journal of Chemical Physics, 152 (19), (2020). 
 CP2K: An electronic structure and molecular dynamics software package -
 Quickstep: Efficient and accurate electronic structure calculations.
 https://doi.org/10.1063/5.0007045

 Schuett, O; VandeVondele, J. 
 Journal of Chemical Theory and Computation, 14, (2018). 
 Machine Learning Adaptive Basis Sets for Efficient Large Scale
 Density Functional Theory Simulation.
 https://doi.org/10.1021/acs.jctc.8b00378

 Schuett, Ole; Messmer, Peter; Hutter, Juerg; VandeVondele, Joost. 
 Electronic Structure Calculations on Graphics Processing Units, John
 Wiley & Sons, Ltd, 173-190 (2016). 
 GPU-Accelerated Sparse Matrix-Matrix Multiplication for
 Linear Scaling Density Functional Theory.
 https://doi.org/10.1002/9781118670712.ch8

 Heinecke, A; Henry, G; Hutchinson, M; Pabst, H. 
 Proceedings of Intl. Supercomputing Conference, 981-991 (2016). 
 LIBXSMM: Accelerating Small Matrix Multiplications
 by Runtime Code Generation.
 https://doi.org/10.1109/SC.2016.83

 Borstnik, U; VandeVondele, J; Weber, V; Hutter, J. 
 PARALLEL COMPUTING, 40 (5-6), 47-58 (2014). 
 Sparse matrix multiplication: The distributed block-compressed sparse
 row library.
 https://doi.org/10.1016/j.parco.2014.03.012

 Hutter, J; Iannuzzi, M; Schiffmann, F; VandeVondele, J. 
 WIREs Comput Mol Sci., 4 (1), 15-25 (2014). 
 CP2K: atomistic simulations of condensed matter systems.
 https://doi.org/10.1002/wcms.1159

 VandeVondele, J; Borstnik, U; Hutter, J. 
 JOURNAL OF CHEMICAL THEORY AND COMPUTATION, 8 (10), 3565-3573 (2012). 
 Linear Scaling Self-Consistent Field Calculations with Millions of Atoms
 in the Condensed Phase.
 https://doi.org/10.1021/ct200897x

 VandeVondele, J; Hutter, J. 
 JOURNAL OF CHEMICAL PHYSICS, 127 (11), 114105 (2007). 
 Gaussian basis sets for accurate calculations on molecular systems in
 gas and condensed phases.
 https://doi.org/10.1063/1.2770708

 Krack, M. 
 THEORETICAL CHEMISTRY ACCOUNTS, 114 (1-3), 145-152 (2005). 
 Pseudopotentials for H to Kr optimized for gradient-corrected
 exchange-correlation functionals.
 https://doi.org/10.1007/s00214-005-0655-y

 VandeVondele, J; Krack, M; Mohamed, F; Parrinello, M; Chassaing, T;
 Hutter, J. COMPUTER PHYSICS COMMUNICATIONS, 167 (2), 103-128 (2005). 
 QUICKSTEP: Fast and accurate density functional calculations using a
 mixed Gaussian and plane waves approach.
 https://doi.org/10.1016/j.cpc.2004.12.014

 Frigo, M; Johnson, SG. 
 PROCEEDINGS OF THE IEEE, 93 (2), 216-231 (2005). 
 The design and implementation of FFTW3.
 https://doi.org/10.1109/JPROC.2004.840301

 Niklasson, AMN; Tymczak, CJ; Challacombe, M. 
 JOURNAL OF CHEMICAL PHYSICS, 118 (19), 8611-8620 (2003). 
 Trace resetting density matrix purification in O(N)
 self-consistent-field theory.
 https://doi.org/10.1063/1.1559913

 Hartwigsen, C; Goedecker, S; Hutter, J. 
 PHYSICAL REVIEW B, 58 (7), 3641-3662 (1998). 
 Relativistic separable dual-space Gaussian pseudopotentials from H to Rn.
 https://doi.org/10.1103/PhysRevB.58.3641

 Lippert, G; Hutter, J; Parrinello, M. 
 MOLECULAR PHYSICS, 92 (3), 477-487 (1997). 
 A hybrid Gaussian and plane wave density functional scheme.
 https://doi.org/10.1080/002689797170220

 Perdew, JP; Burke, K; Ernzerhof, M. 
 PHYSICAL REVIEW LETTERS, 77 (18), 3865-3868 (1996). 
 Generalized gradient approximation made simple.
 https://doi.org/10.1103/PhysRevLett.77.3865

 Goedecker, S; Teter, M; Hutter, J. 
 PHYSICAL REVIEW B, 54 (3), 1703-1710 (1996). 
 Separable dual-space Gaussian pseudopotentials.
 https://doi.org/10.1103/PhysRevB.54.1703


 -------------------------------------------------------------------------------
 -                                                                             -
 -                                T I M I N G                                  -
 -                                                                             -
 -------------------------------------------------------------------------------
 SUBROUTINE                       CALLS  ASD         SELF TIME        TOTAL TIME
                                MAXIMUM       AVERAGE  MAXIMUM  AVERAGE  MAXIMUM
 CP2K                                 1  1.0    0.008    0.008   27.543   27.543
 qs_energies                          1  2.0    0.000    0.000   27.091   27.091
 ls_scf                               1  3.0    0.000    0.000   26.984   26.984
 ls_scf_main                          4  4.0    0.001    0.001   16.310   16.310
 ls_scf_dm_to_ks                      9  5.0    0.000    0.000   16.237   16.237
 qs_ks_update_qs_env                 10  6.0    0.000    0.000   13.796   13.796
 rebuild_ks_matrix                   10  7.0    0.000    0.000   13.795   13.795
 qs_ks_build_kohn_sham_matrix        10  8.0    0.002    0.002   13.795   13.795
 qs_vxc_create                       10  9.0    0.000    0.000    8.165    8.165
 xc_vxc_pw_create                    10 10.0    0.147    0.147    8.165    8.165
 pao_update                           4  4.0    0.010    0.010    8.066    8.066
 pao_calc_energy                    423  5.0    0.004    0.004    7.266    7.266
 pw_transfer                        191 11.1    0.020    0.020    6.632    6.632
 fft_wrap_pw1pw2                    171 12.3    0.003    0.003    6.499    6.499
 fft_wrap_pw1pw2_200                111 13.7    0.501    0.501    6.273    6.273
 dbcsr_multiply_generic           22750  8.4    0.362    0.362    5.742    5.742
 qs_rho_update_rho_low               10  6.0    0.000    0.000    5.002    5.002
 calculate_rho_elec                  10  7.0    0.036    0.036    5.002    5.002
 xc_rho_set_and_dset_create          10 11.0    0.166    0.166    4.828    4.828
 sum_up_and_integrate                10  9.0    0.076    0.076    4.639    4.639
 integrate_v_rspace                  10 10.0    0.001    0.001    4.563    4.563
 xc_pw_derive                        60 12.0    0.001    0.001    4.377    4.377
 grid_integrate_task_list            10 11.0    3.841    3.841    3.841    3.841
 pao_dm_trs4                        423  6.0    0.004    0.004    3.719    3.719
 density_matrix_trs4                432  7.0    0.125    0.125    3.557    3.557
 ls_scf_init_matrix_S               427  7.0    0.004    0.004    3.513    3.513
 grid_collocate_task_list            10  8.0    3.497    3.497    3.497    3.497
 pao_rebuild_S                      423  6.0    0.002    0.002    3.485    3.485
 matrix_sqrt_Newton_Schulz          427  8.0    0.091    0.091    3.171    3.171
 xc_pw_divergence                    10 11.0    0.000    0.000    3.085    3.085
 fft3d_s                            172 14.2    3.003    3.003    3.032    3.032
 pao_guess_initial_P                  1  4.0    0.000    0.000    2.566    2.566
 pao_read_preopt_dm                   1  5.0    0.000    0.000    2.566    2.566
 xc_functional_eval                  10 12.0    0.000    0.000    2.476    2.476
 pbe_lda_eval                        10 13.0    2.475    2.475    2.475    2.475
 make_m2s                         45500  9.4    0.138    0.138    2.156    2.156
 multiply_cannon                  22750  9.4    0.885    0.885    2.150    2.150
 make_images                      45500 10.4    0.527    0.527    1.909    1.909
 pw_gather_s                         81 13.8    1.480    1.480    1.480    1.480
 density_rs2pw                       10  8.0    0.001    0.001    1.469    1.469
 pw_scatter_s                        90 14.7    1.462    1.462    1.462    1.462
 arnoldi_extremal                   859  8.5    0.004    0.004    1.161    1.161
 arnoldi_normal_ev                  859  9.5    0.012    0.012    1.156    1.156
 build_subspace                     859 10.5    0.048    0.048    0.887    0.887
 dbcsr_matrix_vector_mult         20606 11.5    0.096    0.096    0.826    0.826
 pao_calc_AB                        558  5.8    0.001    0.001    0.798    0.798
 pao_calc_AB_equi                   558  6.8    0.029    0.029    0.797    0.797
 pw_derive                           60 13.0    0.724    0.724    0.724    0.724
 potential_pw2rs                     10 11.0    0.002    0.002    0.721    0.721
 pao_calc_grad_lnv_wrt_AB           134  7.0    0.006    0.006    0.708    0.708
 dbcsr_finalize                   54420  9.6    0.127    0.127    0.633    0.633
 dbcsr_create_new                174727 10.7    0.374    0.374    0.599    0.599
 multiply_cannon_loop             22750 10.4    0.072    0.072    0.575    0.575
 -------------------------------------------------------------------------------

 The number of warnings for this run is : 0
 
 -------------------------------------------------------------------------------
  **** **** ******  **  PROGRAM ENDED AT                 2023-02-01 10:45:47.475
 ***** ** ***  *** **   PROGRAM RAN ON                                    moritz
 **    ****   ******    PROGRAM RAN BY                                       ole
 ***** **    ** ** **   PROGRAM PROCESS ID                                148600
  **** **  *******  **  PROGRAM STOPPED IN /home/ole/git/pao_ml_equivar/2H2O_rot
                                           ations/phi_24
