6
Properties=species:S:1:pos:R:3 i=0 time=0.0 E=-34.4504806384 pbc="F F F"
O       -4.84277727       0.67824739       4.35000000
H       -5.13216104       0.01950158       3.71000000
H       -3.88616400       0.72498112       4.25600000
O       -6.03179653       3.33796659       3.63500000
H       -6.55077411       3.68709016       4.36500000
H       -5.68847057       2.48637262       3.94700000
