 DBCSR| CPU Multiplication driver                                           XSMM (U)
 DBCSR| Multrec recursion limit                                              512 (U)
 DBCSR| Multiplication stack size                                           1000 (D)
 DBCSR| Maximum elements for images                                    UNLIMITED (U)
 DBCSR| Multiplicative factor virtual images                                   1 (U)
 DBCSR| Use multiplication densification                                       T (D)
 DBCSR| Multiplication size stacks                                             3 (U)
 DBCSR| Use memory pool for CPU allocation                                     F (U)
 DBCSR| Number of 3D layers                                               SINGLE (U)
 DBCSR| Use MPI memory allocation                                              F (U)
 DBCSR| Use RMA algorithm                                                      F (U)
 DBCSR| Use Communication thread                                               T (U)
 DBCSR| Communication thread load                                             87 (D)
 DBCSR| MPI: My process id                                                     0
 DBCSR| MPI: Number of processes                                              32
 DBCSR| OMP: Current number of threads                                         1
 DBCSR| OMP: Max number of threads                                             1
 DBCSR| Split modifier for TAS multiplication algorithm                  1.0E+00 (U)


  **** **** ******  **  PROGRAM STARTED AT               2024-09-24 06:04:26.284
 ***** ** ***  *** **   PROGRAM STARTED ON                                moritz
 **    ****   ******    PROGRAM STARTED BY                                   ole
 ***** **    ** ** **   PROGRAM PROCESS ID                                169969
  **** **  *******  **  PROGRAM STARTED IN /home/ole/git/pao_ml_equivar/64H2O_MD
                                           /Frame6300

 CP2K| version string:                 CP2K version 2024.3 (Development Version)
 CP2K| source code revision number:                                  git:3f890bb
 CP2K| cp2kflags: omp libint fftw3 libxc libgrpp pexsi elpa parallel scalapack c
 CP2K|            osma quip deepmd xsmm plumed2 spglib libdftd4 sirius libvori l
 CP2K|            libbqb libvdwxc hdf5
 CP2K| is freely available from                            https://www.cp2k.org/
 CP2K| Program compiled at                          Mo 23 Sep 2024 17:17:04 CEST
 CP2K| Program compiled on                                                moritz
 CP2K| Program compiled for                                                local
 CP2K| Data directory path                               /home/ole/git/cp2k/data
 CP2K| Input file name                                           64H2O_pao44.inp

 GLOBAL| Force Environment number                                              1
 GLOBAL| Basis set file name                                        BASIS_MOLOPT
 GLOBAL| Potential file name                                      GTH_POTENTIALS
 GLOBAL| MM Potential file name                                     MM_POTENTIAL
 GLOBAL| Coordinate file name                                         coords.xyz
 GLOBAL| Method name                                                        CP2K
 GLOBAL| Project name                                                64H2O_pao44
 GLOBAL| Run type                                                         ENERGY
 GLOBAL| FFT library                                                       FFTW3
 GLOBAL| Diagonalization library                                            ELPA
 GLOBAL| DGEMM library                                                      BLAS
 GLOBAL| Minimum number of eigenvectors for ELPA usage                        16
 GLOBAL| Orthonormality check for eigenvectors                          DISABLED
 GLOBAL| Matrix multiplication library                                     COSMA
 GLOBAL| All-to-all communication in single precision                          F
 GLOBAL| FFTs using library dependent lengths                                  F
 GLOBAL| Grid backend                                                       AUTO
 GLOBAL| Global print level                                                  LOW
 GLOBAL| MPI I/O enabled                                                       T
 GLOBAL| Total number of message passing processes                            32
 GLOBAL| Number of threads for this process                                    1
 GLOBAL| This output is from process                                           0
 GLOBAL| Stack size for threads created by OpenMP (OMP_STACKSIZE)        default
 GLOBAL| CPU model name           AMD Ryzen Threadripper 3970X 32-Core Processor
 GLOBAL| CPUID                                                              1002

 MEMORY| system memory details [Kb]
 MEMORY|                        rank 0           min           max       average
 MEMORY| MemTotal            131752136     131752136     131752136     131752136
 MEMORY| MemFree             114307204     114307204     114307204     114307204
 MEMORY| Buffers               2028200       2028200       2028200       2028200
 MEMORY| Cached                8719136       8719136       8719136       8719136
 MEMORY| Slab                  1643332       1643332       1643332       1643332
 MEMORY| SReclaimable          1146076       1146076       1146076       1146076
 MEMORY| MemLikelyFree       126200616     126200616     126200616     126200616


 GENERATE|  Preliminary Number of Bonds generated:                             0
 GENERATE|  Achieved consistency in connectivity generation.

 *******************************************************************************
 *******************************************************************************
 **                                                                           **
 **     #####                         ##              ##                      **
 **    ##   ##            ##          ##              ##                      **
 **   ##     ##                       ##            ######                    **
 **   ##     ##  ##   ##  ##   #####  ##  ##   ####   ##    #####    #####    **
 **   ##     ##  ##   ##  ##  ##      ## ##   ##      ##   ##   ##  ##   ##   **
 **   ##  ## ##  ##   ##  ##  ##      ####     ###    ##   ######   ######    **
 **    ##  ###   ##   ##  ##  ##      ## ##      ##   ##   ##       ##        **
 **     #######   #####   ##   #####  ##  ##  ####    ##    #####   ##        **
 **           ##                                                    ##        **
 **                                                                           **
 **                                                ... make the atoms dance   **
 **                                                                           **
 **            Copyright (C) by CP2K developers group (2000-2024)             **
 **                      J. Chem. Phys. 152, 194103 (2020)                    **
 **                                                                           **
 *******************************************************************************


 TOTAL NUMBERS AND MAXIMUM NUMBERS

  Total number of            - Atomic kinds:                                   2
                             - Atoms:                                        192
                             - Shell sets:                                   192
                             - Shells:                                       704
                             - Primitive Cartesian functions:               1344
                             - Cartesian basis functions:                   1536
                             - Spherical basis functions:                   1472

  Maximum angular momentum of- Orbital basis functions:                        2
                             - Local part of the GTH pseudopotential:          2
                             - Non-local part of the GTH pseudopotential:      0

 ------------------------------ Linear scaling SCF -----------------------------
 eps_scf:                                                              0.100E-07
 eps_filter:                                                           0.100E-11
 mixing_fraction:                                                      0.450E+00
 max_scf:                                                                     25
 fixed chemical potential (mu)                                                 F
 has unit metric:                                                              F
 Computing inv(S):                                                             T
 Computing sqrt(S):                                                            T
 Computing S preconditioner                                                    F
 S sqrt method:                                                     NEWTONSCHULZ
 S sqrt order:                                                                 3
 Extrapolation order:                                                          1
 S preconditioner type                                                      NONE
 Polarized Atomic Orbitals (PAO)                                               T
 Purification method                                   Trace resetting 4th order
 Cluster type                                                             ATOMIC
 Computing Chebyshev                                                       FALSE
 Using PAO                                                                     T
 -------------------------------------------------------------------------------

 
 PAO|                                  EPS_PAO                           0.5E-06
 PAO|                                  MIXING                            0.5E+00
 PAO|                                  MAX_PAO                              1500
 PAO|                                  MAX_CYCLES                           1000
 PAO|                                  PARAMETERIZATION              EQUIVARIANT
 PAO|                                  PRECONDITION                            F
 PAO|                                  REGULARIZATION                    0.0E+00
 PAO|                                  EPS_PGF                           0.1E-09
 PAO|                                  PENALTY_DISTANCE                  0.1E+00
 PAO|                                  PENALTY_STRENGTH                  0.5E-02
 PAO|                                  LINPOT_PRECONDITION_DELTA         0.0E+00
 PAO|                                  LINPOT_INITGUESS_DELT             0.0E+00
 PAO|                                  LINPOT_REGULARIZATION_DELTA       0.0E+00
 PAO|                                  LINPOT_REGULARIZATION_STRENGTH    0.0E+00
 PAO|                                  OPTIMIZER                              CG
 PAO|                                  CG_INIT_STEPS                           2
 PAO|                                  CG_RESET_LIMIT                    0.1E+00
 PAO|                                  CHECK_UNITARY_TOL                -0.1E+01
 PAO|                                  CHECK_GRADIENT_TOL               -0.1E+01
 PAO|                                  NUM_GRADIENT_ORDER                      2
 PAO|                                  NUM_GRADIENT_EPS                  0.1E-07
 PAO|                                  PRINT%RESTART%WRITE_CYCLES            100
 PAO|                                  RESTART_FILE 
 PAO|                                  PREOPT_DM_FILE 64H2O_ref_LS_DM_SPIN_1_RESTART.dm
 PAO|                                  MACHINE_LEARNING%METHOD       GAUSSIAN_PR
 PAO|                                  MACHINE_LEARNING%PRIOR               ZERO
 PAO|                                  MACHINE_LEARNING%DESCRIPTOR     POTENTIAL
 PAO|                                  MACHINE_LEARNING%TOLERANCE        0.1E-01
 PAO|                                  MACHINE_LEARNING%GP_NOISE_VAR     0.1E+00
 PAO|                                  MACHINE_LEARNING%GP_SCALE         0.5E-01
 

 Calculating atomic Fock matrix for atomic kind: O

 Electronic structure
    Total number of core electrons                                          2.00
    Total number of valence electrons                                       6.00
    Total number of electrons                                               8.00
    Multiplicity                                                   not specified
    S   [  2.00] 2.00
    P      4.00


 *******************************************************************************
                  Iteration          Convergence                     Energy [au]
 *******************************************************************************
                          1        0.708315                     -15.576645311500
                          2        0.608879                     -15.587933561584
                          3        0.102828E-01                 -15.656849565404
                          4        0.113889E-02                 -15.656866888140
                          5        0.434197E-03                 -15.656867072159
                          6        0.263771E-03                 -15.656867091904
                          7        0.478536E-06                 -15.656867103452

 Energy components [Hartree]           Total Energy ::          -15.656867103452
                                        Band Energy ::           -3.000198112285
                                     Kinetic Energy ::           11.759971203220
                                   Potential Energy ::          -27.416838306672
                                      Virial (-V/T) ::            2.331369510426
                                        Core Energy ::          -26.140716385623
                                          XC Energy ::           -3.154051012914
                                     Coulomb Energy ::           13.637900295084
                       Total Pseudopotential Energy ::          -37.935781716540
                       Local Pseudopotential Energy ::          -39.218907440693
                    Nonlocal Pseudopotential Energy ::            1.283125724153
                                        Confinement ::            0.350941276976

 Orbital energies  State     L     Occupation   Energy[a.u.]          Energy[eV]

                       1     0          2.000      -0.864471          -23.523463

                       1     1          4.000      -0.317814           -8.648154


 Total Electron Density at R=0:                                         0.000068

 Calculating atomic Fock matrix for atomic kind: H

 Electronic structure
    Total number of core electrons                                          0.00
    Total number of valence electrons                                       1.00
    Total number of electrons                                               1.00
    Multiplicity                                                   not specified
    S      1.00


 *******************************************************************************
                  Iteration          Convergence                     Energy [au]
 *******************************************************************************
                          1        0.437545E-02                  -0.424159432110
                          2        0.531356E-03                  -0.424178438213
                          3        0.259176E-06                  -0.424178722480

 Energy components [Hartree]           Total Energy ::           -0.424178722480
                                        Band Energy ::           -0.199015229016
                                     Kinetic Energy ::            0.464007633961
                                   Potential Energy ::           -0.888186356441
                                      Virial (-V/T) ::            1.914163240935
                                        Core Energy ::           -0.479160803564
                                          XC Energy ::           -0.244352904054
                                     Coulomb Energy ::            0.299334985138
                       Total Pseudopotential Energy ::           -0.962295316385
                       Local Pseudopotential Energy ::           -0.962295316385
                    Nonlocal Pseudopotential Energy ::            0.000000000000
                                        Confinement ::            0.191268788606

 Orbital energies  State     L     Occupation   Energy[a.u.]          Energy[eV]

                       1     0          1.000      -0.199015           -5.415480


 Total Electron Density at R=0:                                         0.242907
 PAO| Made initial guess for matrix_X with norm:   27.712812921102035     

     Lanczos converged:  F threshold:   0.100E-02
     Est. extremal eigenvalues:    0.630E+01   0.945E-01
     Est. condition number :    0.666E+02

 Order=           3
     NS sqrt iter    1 1.00000000   0.154E+01       0.021     2717.869
     NS sqrt iter    2 1.00000000   0.833E+00       0.033     3404.998
     NS sqrt iter    3 1.00000000   0.334E+00       0.033     3390.358
     NS sqrt iter    4 1.00000000   0.934E-01       0.033     3385.453
     NS sqrt iter    5 1.00000000   0.345E-02       0.033     3386.557
     NS sqrt iter    6 1.00000000   0.324E-06       0.029     2978.781
     Symmetrizing Results
     Final NS sqrt iter    6 1.00000000   0.178E-12

 PAO| Read restart DM 64H2O_ref_LS_DM_SPIN_1_RESTART.dm with checksum:    6019.1478396488556     
 PAO| Quickstep energy from restart density:  -1103.1440772854053     
 PAO| ======================= Iteration:         1 =============================

     Lanczos converged:  F threshold:   0.100E-02
     Est. extremal eigenvalues:    0.630E+01   0.945E-01
     Est. condition number :    0.666E+02

 Order=           3
     NS sqrt iter    1 1.00000000   0.154E+01       0.021     2733.675
     NS sqrt iter    2 1.00000000   0.833E+00       0.033     3430.404
     NS sqrt iter    3 1.00000000   0.334E+00       0.033     3424.350
     NS sqrt iter    4 1.00000000   0.934E-01       0.033     3393.504
     NS sqrt iter    5 1.00000000   0.345E-02       0.033     3422.653
     NS sqrt iter    6 1.00000000   0.324E-06       0.029     2985.580
     Symmetrizing Results
     Final NS sqrt iter    6 1.00000000   0.178E-12

     Est. extremal eigenvalues     -0.81652     2.65568  converged:  T
     TRS4 it   1 1.00000000   0.274E+02       0.007     2148.537   0.100E-11
     TRS4 it   2 1.00000000   0.238E+02       0.013     2264.173   0.100E-11
     TRS4 it   3 1.00000000   0.160E+02       0.013     2231.106   0.100E-11
     TRS4 it   4 1.00000000   0.100E+02       0.013     2248.170   0.100E-11
     TRS4 it   5 1.00000000   0.484E+01       0.013     2251.325   0.100E-11
     TRS4 it   6 1.00000000   0.162E+01       0.013     2242.693   0.100E-11
     TRS4 it   7 1.00000000   0.322E+00       0.013     2236.823   0.100E-11
     TRS4 it   8 1.00000000   0.238E-01       0.013     2252.298   0.100E-11
     TRS4 it   9 1.00000000   0.230E-03       0.013     2229.869   0.100E-11
     TRS4 it  10 1.00000000   0.236E-07       0.013     2233.358   0.100E-11
     TRS4 it  11 1.00000000   0.107E-13       0.013     2245.717   0.100E-11
     Final TRS4 iteration   11 1.00000000   0.107E-13
     Chemical potential (mu):       0.00963
 
 PAO| energy:  -185.74157984977674      penalty:   1.3792739889723625E-031
 PAO|CG| warming up with steepest descent
 PAO|CG| beta:    0.0000000000000000     
 PAO| norm of gradient:   3.9639606984830973     
 PAO|LS| adapt:  T F F
 PAO|LS| adapt: scan_steps:    0.0000000000000000        0.0000000000000000        0.0000000000000000     
 PAO|LS| adapt: energies:   -185.74157984977674        0.0000000000000000        0.0000000000000000     
 PAO| ======================= Iteration:         2 =============================

     Lanczos converged:  F threshold:   0.100E-02
     Est. extremal eigenvalues:    0.608E+01   0.101E+00
     Est. condition number :    0.599E+02

 Order=           3
     NS sqrt iter    1 1.00000000   0.150E+01       0.021     2726.108
     NS sqrt iter    2 1.00000000   0.803E+00       0.033     3422.514
     NS sqrt iter    3 1.00000000   0.313E+00       0.033     3404.181
     NS sqrt iter    4 1.00000000   0.788E-01       0.033     3423.357
     NS sqrt iter    5 1.00000000   0.216E-02       0.033     3416.686
     NS sqrt iter    6 1.00000000   0.962E-07       0.029     2975.251
     Symmetrizing Results
     Final NS sqrt iter    6 1.00000000   0.234E-13

     Est. extremal eigenvalues     -0.81964     2.63897  converged:  T
     TRS4 it   1 1.00000000   0.276E+02       0.007     2158.883   0.100E-11
     TRS4 it   2 1.00000000   0.237E+02       0.013     2239.542   0.100E-11
     TRS4 it   3 1.00000000   0.159E+02       0.013     2255.338   0.100E-11
     TRS4 it   4 1.00000000   0.982E+01       0.013     2248.178   0.100E-11
     TRS4 it   5 1.00000000   0.463E+01       0.013     2245.533   0.100E-11
     TRS4 it   6 1.00000000   0.148E+01       0.013     2239.824   0.100E-11
     TRS4 it   7 1.00000000   0.276E+00       0.013     2256.913   0.100E-11
     TRS4 it   8 1.00000000   0.172E-01       0.013     2240.950   0.100E-11
     TRS4 it   9 1.00000000   0.110E-03       0.013     2253.862   0.100E-11
     TRS4 it  10 1.00000000   0.600E-08       0.013     2238.744   0.100E-11
     TRS4 it  11 1.00000000   0.249E-13       0.013     2258.459   0.100E-11
     Final TRS4 iteration   11 1.00000000   0.249E-13
     Chemical potential (mu):       0.01522
 
 PAO| energy:  -187.18515345812443      penalty:   4.6614210684942278E-007
 PAO|LS| adapt:  T T F
 PAO|LS| adapt: scan_steps:    0.0000000000000000       0.10000000000000001        0.0000000000000000     
 PAO|LS| adapt: energies:   -185.74157984977674       -187.18515345812443        0.0000000000000000     
 PAO| ======================= Iteration:         3 =============================

     Lanczos converged:  F threshold:   0.100E-02
     Est. extremal eigenvalues:    0.586E+01   0.107E+00
     Est. condition number :    0.549E+02

 Order=           3
     NS sqrt iter    1 1.00000000   0.145E+01       0.021     2723.720
     NS sqrt iter    2 1.00000000   0.773E+00       0.033     3389.448
     NS sqrt iter    3 1.00000000   0.293E+00       0.033     3411.684
     NS sqrt iter    4 1.00000000   0.661E-01       0.033     3394.914
     NS sqrt iter    5 1.00000000   0.137E-02       0.033     3411.524
     NS sqrt iter    6 1.00000000   0.298E-07       0.029     2959.032
     Symmetrizing Results
     Final NS sqrt iter    6 1.00000000   0.371E-14

     Est. extremal eigenvalues     -0.82265     2.62695  converged:  T
     TRS4 it   1 1.00000000   0.278E+02       0.007     2171.617   0.100E-11
     TRS4 it   2 1.00000000   0.237E+02       0.013     2229.257   0.100E-11
     TRS4 it   3 1.00000000   0.158E+02       0.013     2264.180   0.100E-11
     TRS4 it   4 1.00000000   0.962E+01       0.013     2249.619   0.100E-11
     TRS4 it   5 1.00000000   0.442E+01       0.013     2234.056   0.100E-11
     TRS4 it   6 1.00000000   0.136E+01       0.013     2246.084   0.100E-11
     TRS4 it   7 1.00000000   0.234E+00       0.013     2257.216   0.100E-11
     TRS4 it   8 1.00000000   0.120E-01       0.013     2237.917   0.100E-11
     TRS4 it   9 1.00000000   0.487E-04       0.013     2242.470   0.100E-11
     TRS4 it  10 1.00000000   0.134E-08       0.013     2257.997   0.100E-11
     TRS4 it  11 1.00000000   0.124E-13       0.013     2246.683   0.100E-11
     Final TRS4 iteration   11 1.00000000   0.124E-13
     Chemical potential (mu):       0.02156
 
 PAO| energy:  -188.35692140876827      penalty:   7.4582737096598603E-006
 PAO|LS| adapt:  T T F
 PAO|LS| adapt: scan_steps:    0.0000000000000000       0.20000000000000001        0.0000000000000000     
 PAO|LS| adapt: energies:   -185.74157984977674       -188.35692140876827        0.0000000000000000     
 PAO| ======================= Iteration:         4 =============================

     Lanczos converged:  F threshold:   0.100E-02
     Est. extremal eigenvalues:    0.543E+01   0.116E+00
     Est. condition number :    0.466E+02

 Order=           3
     NS sqrt iter    1 1.00000000   0.137E+01       0.021     2726.598
     NS sqrt iter    2 1.00000000   0.716E+00       0.033     3420.493
     NS sqrt iter    3 1.00000000   0.255E+00       0.033     3391.999
     NS sqrt iter    4 1.00000000   0.465E-01       0.033     3405.289
     NS sqrt iter    5 1.00000000   0.568E-03       0.033     3421.569
     NS sqrt iter    6 1.00000000   0.286E-08       0.029     2912.888
     Symmetrizing Results
     Final NS sqrt iter    6 1.00000000   0.129E-13

     Est. extremal eigenvalues     -0.82779     2.62586  converged:  T
     TRS4 it   1 1.00000000   0.282E+02       0.007     2158.896   0.100E-11
     TRS4 it   2 1.00000000   0.237E+02       0.013     2243.532   0.100E-11
     TRS4 it   3 1.00000000   0.156E+02       0.013     2250.829   0.100E-11
     TRS4 it   4 1.00000000   0.930E+01       0.013     2256.838   0.100E-11
     TRS4 it   5 1.00000000   0.407E+01       0.013     2243.426   0.100E-11
     TRS4 it   6 1.00000000   0.114E+01       0.013     2270.767   0.100E-11
     TRS4 it   7 1.00000000   0.167E+00       0.013     2249.139   0.100E-11
     TRS4 it   8 1.00000000   0.566E-02       0.013     2227.736   0.100E-11
     TRS4 it   9 1.00000000   0.904E-05       0.013     2264.371   0.100E-11
     TRS4 it  10 1.00000000   0.535E-10       0.013     2266.676   0.100E-11
     Final TRS4 iteration   10 1.00000000   0.535E-10
     Chemical potential (mu):       0.04050
 
 PAO| energy:  -189.84278230929633      penalty:   1.1933237935510557E-004
 PAO|LS| Need extra step
 PAO|LS| adapt:  T T F
 PAO|LS| adapt: scan_steps:    0.0000000000000000       0.40000000000000002        0.0000000000000000     
 PAO|LS| adapt: energies:   -185.74157984977674       -189.84278230929633        0.0000000000000000     
 PAO| ======================= Iteration:         5 =============================

     Lanczos converged:  F threshold:   0.100E-02
     Est. extremal eigenvalues:    0.476E+01   0.132E+00
     Est. condition number :    0.360E+02

 Order=           3
     NS sqrt iter    1 1.00000000   0.124E+01       0.021     2730.243
     NS sqrt iter    2 1.00000000   0.625E+00       0.033     3429.946
     NS sqrt iter    3 1.00000000   0.197E+00       0.034     3380.480
     NS sqrt iter    4 1.00000000   0.244E-01       0.033     3405.379
     NS sqrt iter    5 1.00000000   0.111E-03       0.033     3415.445
     NS sqrt iter    6 1.00000000   0.312E-10       0.019     2294.269
     Symmetrizing Results
     Final NS sqrt iter    6 1.00000000   0.216E-11

     Est. extremal eigenvalues     -0.83177     2.62569  converged:  T
     TRS4 it   1 1.00000000   0.288E+02       0.007     2161.060   0.100E-11
     TRS4 it   2 1.00000000   0.237E+02       0.013     2262.582   0.100E-11
     TRS4 it   3 1.00000000   0.154E+02       0.013     2252.737   0.100E-11
     TRS4 it   4 1.00000000   0.882E+01       0.013     2262.994   0.100E-11
     TRS4 it   5 1.00000000   0.355E+01       0.013     2273.400   0.100E-11
     TRS4 it   6 1.00000000   0.853E+00       0.013     2265.101   0.100E-11
     TRS4 it   7 1.00000000   0.918E-01       0.013     2264.706   0.100E-11
     TRS4 it   8 1.00000000   0.157E-02       0.013     2264.955   0.100E-11
     TRS4 it   9 1.00000000   0.668E-06       0.013     2249.069   0.100E-11
     TRS4 it  10 1.00000000   0.341E-12       0.013     2261.956   0.100E-11
     Final TRS4 iteration   10 1.00000000   0.341E-12
     Chemical potential (mu):       0.06289
 
 PAO| energy:  -189.50906746383890      penalty:   1.9093180696860565E-003
 PAO|LS| Need extra step
 PAO|LS| adapt:  T T T
 PAO|LS| adapt: scan_steps:    0.0000000000000000       0.40000000000000002       0.80000000000000004     
 PAO|LS| adapt: energies:   -185.74157984977674       -189.84278230929633       -189.50906746383890     
 PAO|LS| adapt: suggested step_size:   0.56990114380866441     
 PAO|LS| adapt: predicted energy  -190.24284509361766     
 PAO| ======================= Iteration:         6 =============================

     Lanczos converged:  F threshold:   0.100E-02
     Est. extremal eigenvalues:    0.511E+01   0.124E+00
     Est. condition number :    0.411E+02

 Order=           3
     NS sqrt iter    1 1.00000000   0.130E+01       0.021     2729.960
     NS sqrt iter    2 1.00000000   0.672E+00       0.033     3396.449
     NS sqrt iter    3 1.00000000   0.227E+00       0.033     3407.824
     NS sqrt iter    4 1.00000000   0.348E-01       0.033     3410.306
     NS sqrt iter    5 1.00000000   0.275E-03       0.033     3420.416
     NS sqrt iter    6 1.00000000   0.396E-09       0.028     2746.727
     Symmetrizing Results
     Final NS sqrt iter    6 1.00000000   0.361E-12

     Est. extremal eigenvalues     -0.83068     2.62744  converged:  T
     TRS4 it   1 1.00000000   0.285E+02       0.006     2193.756   0.100E-11
     TRS4 it   2 1.00000000   0.237E+02       0.013     2244.663   0.100E-11
     TRS4 it   3 1.00000000   0.155E+02       0.013     2264.146   0.100E-11
     TRS4 it   4 1.00000000   0.907E+01       0.013     2267.190   0.100E-11
     TRS4 it   5 1.00000000   0.382E+01       0.013     2253.370   0.100E-11
     TRS4 it   6 1.00000000   0.999E+00       0.013     2276.683   0.100E-11
     TRS4 it   7 1.00000000   0.127E+00       0.013     2257.687   0.100E-11
     TRS4 it   8 1.00000000   0.309E-02       0.013     2245.875   0.100E-11
     TRS4 it   9 1.00000000   0.254E-05       0.013     2258.059   0.100E-11
     TRS4 it  10 1.00000000   0.442E-11       0.012     2285.024   0.100E-11
     Final TRS4 iteration   10 1.00000000   0.442E-11
     Chemical potential (mu):       0.05119
 
 PAO| energy:  -190.21616254886726      penalty:   4.9171838801252699E-004
 PAO|CG| warming up with steepest descent
 PAO|CG| beta:    0.0000000000000000     
 PAO| norm of gradient:   2.0630797524640889     
 PAO| energy improvement:  -4.4745826990905186     
 PAO| step      6                 -190.216162549  0.403E-02  0.570E+00     2.449
 PAO|LS| adapt:  T F F
 PAO|LS| adapt: scan_steps:    0.0000000000000000        0.0000000000000000        0.0000000000000000     
 PAO|LS| adapt: energies:   -190.21616254886726        0.0000000000000000        0.0000000000000000     
 PAO| ======================= Iteration:         7 =============================

     Lanczos converged:  F threshold:   0.100E-02
     Est. extremal eigenvalues:    0.495E+01   0.131E+00
     Est. condition number :    0.379E+02

 Order=           3
     NS sqrt iter    1 1.00000000   0.127E+01       0.021     2723.618
     NS sqrt iter    2 1.00000000   0.647E+00       0.033     3417.494
     NS sqrt iter    3 1.00000000   0.210E+00       0.033     3394.382
     NS sqrt iter    4 1.00000000   0.282E-01       0.033     3410.307
     NS sqrt iter    5 1.00000000   0.156E-03       0.033     3403.722
     NS sqrt iter    6 1.00000000   0.771E-10       0.024     2441.235
     Symmetrizing Results
     Final NS sqrt iter    6 1.00000000   0.193E-11

     Est. extremal eigenvalues     -0.83082     2.61539  converged:  T
     TRS4 it   1 1.00000000   0.285E+02       0.007     2182.491   0.100E-11
     TRS4 it   2 1.00000000   0.237E+02       0.013     2229.497   0.100E-11
     TRS4 it   3 1.00000000   0.156E+02       0.013     2258.395   0.100E-11
     TRS4 it   4 1.00000000   0.919E+01       0.013     2247.915   0.100E-11
     TRS4 it   5 1.00000000   0.391E+01       0.013     2248.522   0.100E-11
     TRS4 it   6 1.00000000   0.102E+01       0.013     2237.512   0.100E-11
     TRS4 it   7 1.00000000   0.128E+00       0.013     2252.100   0.100E-11
     TRS4 it   8 1.00000000   0.316E-02       0.013     2239.183   0.100E-11
     TRS4 it   9 1.00000000   0.290E-05       0.013     2242.917   0.100E-11
     TRS4 it  10 1.00000000   0.680E-11       0.012     2279.362   0.100E-11
     Final TRS4 iteration   10 1.00000000   0.680E-11
     Chemical potential (mu):       0.05321
 
 PAO| energy:  -189.27726890914366      penalty:   6.8841716489866144E-004
 PAO|LS| adapt:  T F T
 PAO|LS| adapt: scan_steps:    0.0000000000000000        0.0000000000000000       0.56990114380866441     
 PAO|LS| adapt: energies:   -190.21616254886726        0.0000000000000000       -189.27726890914366     
 PAO| ======================= Iteration:         8 =============================

     Lanczos converged:  F threshold:   0.100E-02
     Est. extremal eigenvalues:    0.503E+01   0.127E+00
     Est. condition number :    0.395E+02

 Order=           3
     NS sqrt iter    1 1.00000000   0.129E+01       0.021     2737.763
     NS sqrt iter    2 1.00000000   0.660E+00       0.033     3412.856
     NS sqrt iter    3 1.00000000   0.219E+00       0.033     3441.486
     NS sqrt iter    4 1.00000000   0.314E-01       0.033     3418.346
     NS sqrt iter    5 1.00000000   0.208E-03       0.033     3426.135
     NS sqrt iter    6 1.00000000   0.176E-09       0.026     2631.261
     Symmetrizing Results
     Final NS sqrt iter    6 1.00000000   0.110E-11

     Est. extremal eigenvalues     -0.83165     2.62132  converged:  T
     TRS4 it   1 1.00000000   0.285E+02       0.007     2170.070   0.100E-11
     TRS4 it   2 1.00000000   0.237E+02       0.013     2263.623   0.100E-11
     TRS4 it   3 1.00000000   0.155E+02       0.013     2239.895   0.100E-11
     TRS4 it   4 1.00000000   0.909E+01       0.013     2265.546   0.100E-11
     TRS4 it   5 1.00000000   0.384E+01       0.013     2242.783   0.100E-11
     TRS4 it   6 1.00000000   0.100E+01       0.013     2245.028   0.100E-11
     TRS4 it   7 1.00000000   0.126E+00       0.013     2239.208   0.100E-11
     TRS4 it   8 1.00000000   0.309E-02       0.013     2268.661   0.100E-11
     TRS4 it   9 1.00000000   0.263E-05       0.013     2256.590   0.100E-11
     TRS4 it  10 1.00000000   0.496E-11       0.013     2243.444   0.100E-11
     Final TRS4 iteration   10 1.00000000   0.496E-11
     Chemical potential (mu):       0.05097
 
 PAO| energy:  -190.57454822933769      penalty:   5.2079632310847944E-004
 PAO|LS| adapt:  T T T
 PAO|LS| adapt: scan_steps:    0.0000000000000000       0.28495057190433221       0.56990114380866441     
 PAO|LS| adapt: energies:   -190.21616254886726       -190.57454822933769       -189.27726890914366     
 PAO|LS| adapt: suggested step_size:   0.20415576151418410     
 PAO|LS| adapt: predicted energy  -190.64110164340090     
 PAO| ======================= Iteration:         9 =============================

     Lanczos converged:  F threshold:   0.100E-02
     Est. extremal eigenvalues:    0.505E+01   0.127E+00
     Est. condition number :    0.399E+02

 Order=           3
     NS sqrt iter    1 1.00000000   0.129E+01       0.021     2739.634
     NS sqrt iter    2 1.00000000   0.663E+00       0.033     3428.758
     NS sqrt iter    3 1.00000000   0.221E+00       0.033     3407.494
     NS sqrt iter    4 1.00000000   0.323E-01       0.033     3390.736
     NS sqrt iter    5 1.00000000   0.225E-03       0.033     3408.346
     NS sqrt iter    6 1.00000000   0.222E-09       0.027     2655.743
     Symmetrizing Results
     Final NS sqrt iter    6 1.00000000   0.798E-12

     Est. extremal eigenvalues     -0.83156     2.62305  converged:  T
     TRS4 it   1 1.00000000   0.285E+02       0.007     2165.420   0.100E-11
     TRS4 it   2 1.00000000   0.237E+02       0.013     2270.526   0.100E-11
     TRS4 it   3 1.00000000   0.155E+02       0.013     2227.030   0.100E-11
     TRS4 it   4 1.00000000   0.908E+01       0.013     2243.209   0.100E-11
     TRS4 it   5 1.00000000   0.383E+01       0.013     2258.647   0.100E-11
     TRS4 it   6 1.00000000   0.999E+00       0.013     2264.762   0.100E-11
     TRS4 it   7 1.00000000   0.126E+00       0.013     2237.736   0.100E-11
     TRS4 it   8 1.00000000   0.308E-02       0.013     2248.728   0.100E-11
     TRS4 it   9 1.00000000   0.259E-05       0.013     2254.661   0.100E-11
     TRS4 it  10 1.00000000   0.470E-11       0.013     2248.375   0.100E-11
     Final TRS4 iteration   10 1.00000000   0.470E-11
     Chemical potential (mu):       0.05080
 
 PAO| energy:  -190.64546400999785      penalty:   5.0314546371819230E-004
 PAO|CG| trace_G_new   0.69217511994797831     
 PAO|CG| trace_G_prev    4.2562980650272868     
 PAO|CG| trace_G_mix   -4.0343831312883938E-002
 PAO|CG| trace_D    4.2562980650272868     
 PAO|CG| trace_D_Gnew   4.0343831312883938E-002
 PAO|CG| beta:   0.17210236220995631     
 PAO| norm of gradient:  0.83197062445015346     
 PAO| energy improvement: -0.42930146113059209     
 PAO| step      9                 -190.645464010  0.162E-02  0.204E+00     1.514
 PAO|LS| adapt:  T F F
 PAO|LS| adapt: scan_steps:    0.0000000000000000        0.0000000000000000        0.0000000000000000     
 PAO|LS| adapt: energies:   -190.64546400999785        0.0000000000000000        0.0000000000000000     
 PAO| ======================= Iteration:        10 =============================

     Lanczos converged:  F threshold:   0.100E-02
     Est. extremal eigenvalues:    0.500E+01   0.130E+00
     Est. condition number :    0.386E+02

 Order=           3
     NS sqrt iter    1 1.00000000   0.128E+01       0.021     2734.280
     NS sqrt iter    2 1.00000000   0.655E+00       0.033     3414.451
     NS sqrt iter    3 1.00000000   0.215E+00       0.033     3420.341
     NS sqrt iter    4 1.00000000   0.301E-01       0.033     3398.664
     NS sqrt iter    5 1.00000000   0.182E-03       0.033     3417.026
     NS sqrt iter    6 1.00000000   0.117E-09       0.025     2543.156
     Symmetrizing Results
     Final NS sqrt iter    6 1.00000000   0.153E-11

     Est. extremal eigenvalues     -0.83203     2.60786  converged:  T
     TRS4 it   1 1.00000000   0.285E+02       0.007     2165.368   0.100E-11
     TRS4 it   2 1.00000000   0.236E+02       0.013     2257.796   0.100E-11
     TRS4 it   3 1.00000000   0.155E+02       0.013     2252.706   0.100E-11
     TRS4 it   4 1.00000000   0.906E+01       0.013     2258.110   0.100E-11
     TRS4 it   5 1.00000000   0.380E+01       0.013     2253.306   0.100E-11
     TRS4 it   6 1.00000000   0.987E+00       0.013     2247.098   0.100E-11
     TRS4 it   7 1.00000000   0.123E+00       0.013     2250.423   0.100E-11
     TRS4 it   8 1.00000000   0.294E-02       0.013     2244.670   0.100E-11
     TRS4 it   9 1.00000000   0.239E-05       0.013     2246.969   0.100E-11
     TRS4 it  10 1.00000000   0.412E-11       0.013     2235.147   0.100E-11
     Final TRS4 iteration   10 1.00000000   0.412E-11
     Chemical potential (mu):       0.05137
 
 PAO| energy:  -190.74042327183076      penalty:   5.0482988635916568E-004
 PAO|LS| adapt:  T T F
 PAO|LS| adapt: scan_steps:    0.0000000000000000       0.20415576151418410        0.0000000000000000     
 PAO|LS| adapt: energies:   -190.64546400999785       -190.74042327183076        0.0000000000000000     
 PAO| ======================= Iteration:        11 =============================

     Lanczos converged:  F threshold:   0.100E-02
     Est. extremal eigenvalues:    0.495E+01   0.133E+00
     Est. condition number :    0.374E+02

 Order=           3
     NS sqrt iter    1 1.00000000   0.127E+01       0.021     2728.500
     NS sqrt iter    2 1.00000000   0.647E+00       0.033     3391.934
     NS sqrt iter    3 1.00000000   0.210E+00       0.033     3419.827
     NS sqrt iter    4 1.00000000   0.280E-01       0.033     3397.164
     NS sqrt iter    5 1.00000000   0.147E-03       0.033     3418.204
     NS sqrt iter    6 1.00000000   0.610E-10       0.022     2404.320
     Symmetrizing Results
     Final NS sqrt iter    6 1.00000000   0.214E-11

     Est. extremal eigenvalues     -0.83222     2.59250  converged:  T
     TRS4 it   1 1.00000000   0.284E+02       0.007     2159.237   0.100E-11
     TRS4 it   2 1.00000000   0.235E+02       0.013     2222.157   0.100E-11
     TRS4 it   3 1.00000000   0.155E+02       0.013     2240.803   0.100E-11
     TRS4 it   4 1.00000000   0.904E+01       0.013     2252.152   0.100E-11
     TRS4 it   5 1.00000000   0.378E+01       0.013     2255.424   0.100E-11
     TRS4 it   6 1.00000000   0.973E+00       0.013     2265.887   0.100E-11
     TRS4 it   7 1.00000000   0.120E+00       0.013     2252.296   0.100E-11
     TRS4 it   8 1.00000000   0.278E-02       0.013     2249.951   0.100E-11
     TRS4 it   9 1.00000000   0.219E-05       0.013     2276.352   0.100E-11
     TRS4 it  10 1.00000000   0.350E-11       0.013     2227.209   0.100E-11
     Final TRS4 iteration   10 1.00000000   0.350E-11
     Chemical potential (mu):       0.05203
 
 PAO| energy:  -190.74788440516048      penalty:   5.1569822209784530E-004
 PAO|LS| adapt:  T T F
 PAO|LS| adapt: scan_steps:    0.0000000000000000       0.40831152302836821        0.0000000000000000     
 PAO|LS| adapt: energies:   -190.64546400999785       -190.74788440516048        0.0000000000000000     
 PAO| ======================= Iteration:        12 =============================

     Lanczos converged:  F threshold:   0.100E-02
     Est. extremal eigenvalues:    0.486E+01   0.139E+00
     Est. condition number :    0.350E+02

 Order=           3
     NS sqrt iter    1 1.00000000   0.125E+01       0.021     2731.393
     NS sqrt iter    2 1.00000000   0.631E+00       0.033     3426.560
     NS sqrt iter    3 1.00000000   0.200E+00       0.033     3418.050
     NS sqrt iter    4 1.00000000   0.243E-01       0.033     3405.796
     NS sqrt iter    5 1.00000000   0.951E-04       0.033     3420.779
     NS sqrt iter    6 1.00000000   0.162E-10       0.016     2189.678
     Symmetrizing Results
     Final NS sqrt iter    6 1.00000000   0.193E-11

     Est. extremal eigenvalues     -0.83180     2.56203  converged:  T
     TRS4 it   1 1.00000000   0.284E+02       0.007     2172.001   0.100E-11
     TRS4 it   2 1.00000000   0.233E+02       0.013     2254.964   0.100E-11
     TRS4 it   3 1.00000000   0.154E+02       0.013     2242.482   0.100E-11
     TRS4 it   4 1.00000000   0.898E+01       0.013     2266.927   0.100E-11
     TRS4 it   5 1.00000000   0.372E+01       0.013     2264.915   0.100E-11
     TRS4 it   6 1.00000000   0.942E+00       0.013     2251.042   0.100E-11
     TRS4 it   7 1.00000000   0.112E+00       0.013     2259.257   0.100E-11
     TRS4 it   8 1.00000000   0.245E-02       0.013     2270.890   0.100E-11
     TRS4 it   9 1.00000000   0.177E-05       0.013     2259.759   0.100E-11
     TRS4 it  10 1.00000000   0.233E-11       0.013     2257.689   0.100E-11
     Final TRS4 iteration   10 1.00000000   0.233E-11
     Chemical potential (mu):       0.05355
 
 PAO| energy:  -190.51530716370254      penalty:   5.7116880862542567E-004
 PAO|LS| Need extra step
 PAO|LS| adapt:  T T T
 PAO|LS| adapt: scan_steps:    0.0000000000000000       0.40831152302836821       0.81662304605673641     
 PAO|LS| adapt: energies:   -190.64546400999785       -190.74788440516048       -190.51530716370254     
 PAO|LS| adapt: suggested step_size:   0.32899075426186858     
 PAO|LS| adapt: predicted energy  -190.75420564551624     
 PAO| ======================= Iteration:        13 =============================

     Lanczos converged:  F threshold:   0.100E-02
     Est. extremal eigenvalues:    0.497E+01   0.131E+00
     Est. condition number :    0.379E+02

 Order=           3
     NS sqrt iter    1 1.00000000   0.128E+01       0.021     2745.521
     NS sqrt iter    2 1.00000000   0.650E+00       0.033     3414.401
     NS sqrt iter    3 1.00000000   0.212E+00       0.033     3409.383
     NS sqrt iter    4 1.00000000   0.288E-01       0.033     3427.159
     NS sqrt iter    5 1.00000000   0.160E-03       0.034     3349.080
     NS sqrt iter    6 1.00000000   0.787E-10       0.023     2464.055
     Symmetrizing Results
     Final NS sqrt iter    6 1.00000000   0.193E-11

     Est. extremal eigenvalues     -0.83218     2.59848  converged:  T
     TRS4 it   1 1.00000000   0.284E+02       0.007     2179.056   0.100E-11
     TRS4 it   2 1.00000000   0.235E+02       0.013     2262.986   0.100E-11
     TRS4 it   3 1.00000000   0.155E+02       0.013     2252.847   0.100E-11
     TRS4 it   4 1.00000000   0.905E+01       0.013     2259.614   0.100E-11
     TRS4 it   5 1.00000000   0.379E+01       0.013     2255.799   0.100E-11
     TRS4 it   6 1.00000000   0.979E+00       0.013     2250.106   0.100E-11
     TRS4 it   7 1.00000000   0.121E+00       0.013     2257.733   0.100E-11
     TRS4 it   8 1.00000000   0.284E-02       0.013     2259.519   0.100E-11
     TRS4 it   9 1.00000000   0.227E-05       0.013     2235.921   0.100E-11
     TRS4 it  10 1.00000000   0.371E-11       0.013     2242.919   0.100E-11
     Final TRS4 iteration   10 1.00000000   0.371E-11
     Chemical potential (mu):       0.05176
 
 PAO| energy:  -190.75514625868405      penalty:   5.1031361434965359E-004
 PAO|CG| trace_G_new   0.25961916480575742     
 PAO|CG| trace_G_prev   0.69217511994797831     
 PAO|CG| trace_G_mix   -1.0377139460900506E-002
 PAO|CG| trace_D   0.80435682448443779     
 PAO|CG| trace_D_Gnew   1.0881091784538074E-002
 PAO|CG| beta:   0.39006935742930199     
 PAO| norm of gradient:  0.50952837487794278     
 PAO| energy improvement: -0.10968224868619814     
 PAO| step     13                 -190.755146259  0.995E-03  0.329E+00     1.950
 PAO|LS| adapt:  T F F
 PAO|LS| adapt: scan_steps:    0.0000000000000000        0.0000000000000000        0.0000000000000000     
 PAO|LS| adapt: energies:   -190.75514625868405        0.0000000000000000        0.0000000000000000     
 PAO| ======================= Iteration:        14 =============================

     Lanczos converged:  F threshold:   0.100E-02
     Est. extremal eigenvalues:    0.490E+01   0.133E+00
     Est. condition number :    0.368E+02

 Order=           3
     NS sqrt iter    1 1.00000000   0.126E+01       0.021     2715.394
     NS sqrt iter    2 1.00000000   0.640E+00       0.033     3425.896
     NS sqrt iter    3 1.00000000   0.206E+00       0.033     3403.193
     NS sqrt iter    4 1.00000000   0.267E-01       0.033     3410.163
     NS sqrt iter    5 1.00000000   0.130E-03       0.033     3411.912
     NS sqrt iter    6 1.00000000   0.430E-10       0.021     2326.279
     Symmetrizing Results
     Final NS sqrt iter    6 1.00000000   0.222E-11

     Est. extremal eigenvalues     -0.83259     2.59374  converged:  T
     TRS4 it   1 1.00000000   0.285E+02       0.007     2158.791   0.100E-11
     TRS4 it   2 1.00000000   0.235E+02       0.013     2257.914   0.100E-11
     TRS4 it   3 1.00000000   0.155E+02       0.013     2263.096   0.100E-11
     TRS4 it   4 1.00000000   0.899E+01       0.013     2252.045   0.100E-11
     TRS4 it   5 1.00000000   0.374E+01       0.013     2261.041   0.100E-11
     TRS4 it   6 1.00000000   0.950E+00       0.013     2254.782   0.100E-11
     TRS4 it   7 1.00000000   0.114E+00       0.013     2260.235   0.100E-11
     TRS4 it   8 1.00000000   0.253E-02       0.013     2268.992   0.100E-11
     TRS4 it   9 1.00000000   0.183E-05       0.013     2256.495   0.100E-11
     TRS4 it  10 1.00000000   0.247E-11       0.013     2265.425   0.100E-11
     Final TRS4 iteration   10 1.00000000   0.247E-11
     Chemical potential (mu):       0.05341
 
 PAO| energy:  -190.80400578817654      penalty:   5.1068386844723313E-004
 PAO|LS| adapt:  T T F
 PAO|LS| adapt: scan_steps:    0.0000000000000000       0.32899075426186858        0.0000000000000000     
 PAO|LS| adapt: energies:   -190.75514625868405       -190.80400578817654        0.0000000000000000     
 PAO| ======================= Iteration:        15 =============================

     Lanczos converged:  F threshold:   0.100E-02
     Est. extremal eigenvalues:    0.484E+01   0.135E+00
     Est. condition number :    0.358E+02

 Order=           3
     NS sqrt iter    1 1.00000000   0.125E+01       0.021     2712.964
     NS sqrt iter    2 1.00000000   0.630E+00       0.033     3419.552
     NS sqrt iter    3 1.00000000   0.200E+00       0.033     3423.434
     NS sqrt iter    4 1.00000000   0.248E-01       0.033     3395.926
     NS sqrt iter    5 1.00000000   0.105E-03       0.033     3421.764
     NS sqrt iter    6 1.00000000   0.237E-10       0.018     2226.325
     Symmetrizing Results
     Final NS sqrt iter    6 1.00000000   0.217E-11

     Est. extremal eigenvalues     -0.83270     2.58880  converged:  T
     TRS4 it   1 1.00000000   0.285E+02       0.007     2174.105   0.100E-11
     TRS4 it   2 1.00000000   0.235E+02       0.013     2249.093   0.100E-11
     TRS4 it   3 1.00000000   0.154E+02       0.013     2240.863   0.100E-11
     TRS4 it   4 1.00000000   0.894E+01       0.013     2258.072   0.100E-11
     TRS4 it   5 1.00000000   0.368E+01       0.013     2252.451   0.100E-11
     TRS4 it   6 1.00000000   0.922E+00       0.012     2279.418   0.100E-11
     TRS4 it   7 1.00000000   0.108E+00       0.013     2247.748   0.100E-11
     TRS4 it   8 1.00000000   0.226E-02       0.013     2262.803   0.100E-11
     TRS4 it   9 1.00000000   0.148E-05       0.012     2281.169   0.100E-11
     TRS4 it  10 1.00000000   0.166E-11       0.013     2229.509   0.100E-11
     Final TRS4 iteration   10 1.00000000   0.166E-11
     Chemical potential (mu):       0.05497
 
 PAO| energy:  -190.78361101842188      penalty:   5.2493409902093274E-004
 PAO|LS| adapt:  T T T
 PAO|LS| adapt: scan_steps:    0.0000000000000000       0.32899075426186858       0.65798150852373716     
 PAO|LS| adapt: energies:   -190.75514625868405       -190.80400578817654       -190.78361101842188     
 PAO|LS| adapt: suggested step_size:   0.39660130608199234     
 PAO|LS| adapt: predicted energy  -190.80546822905700     
 PAO| ======================= Iteration:        16 =============================

     Lanczos converged:  F threshold:   0.100E-02
     Est. extremal eigenvalues:    0.489E+01   0.134E+00
     Est. condition number :    0.366E+02

 Order=           3
     NS sqrt iter    1 1.00000000   0.126E+01       0.021     2726.127
     NS sqrt iter    2 1.00000000   0.638E+00       0.033     3404.740
     NS sqrt iter    3 1.00000000   0.205E+00       0.033     3400.337
     NS sqrt iter    4 1.00000000   0.263E-01       0.033     3430.081
     NS sqrt iter    5 1.00000000   0.124E-03       0.033     3389.311
     NS sqrt iter    6 1.00000000   0.380E-10       0.020     2290.642
     Symmetrizing Results
     Final NS sqrt iter    6 1.00000000   0.226E-11

     Est. extremal eigenvalues     -0.83264     2.59273  converged:  T
     TRS4 it   1 1.00000000   0.285E+02       0.007     2182.438   0.100E-11
     TRS4 it   2 1.00000000   0.235E+02       0.013     2258.140   0.100E-11
     TRS4 it   3 1.00000000   0.155E+02       0.013     2243.826   0.100E-11
     TRS4 it   4 1.00000000   0.898E+01       0.013     2268.920   0.100E-11
     TRS4 it   5 1.00000000   0.372E+01       0.013     2258.323   0.100E-11
     TRS4 it   6 1.00000000   0.944E+00       0.013     2242.442   0.100E-11
     TRS4 it   7 1.00000000   0.113E+00       0.013     2234.859   0.100E-11
     TRS4 it   8 1.00000000   0.248E-02       0.013     2268.378   0.100E-11
     TRS4 it   9 1.00000000   0.175E-05       0.013     2252.467   0.100E-11
     TRS4 it  10 1.00000000   0.223E-11       0.013     2242.558   0.100E-11
     Final TRS4 iteration   10 1.00000000   0.223E-11
     Chemical potential (mu):       0.05374
 
 PAO| energy:  -190.80541524796470      penalty:   5.1243868536861574E-004
 PAO|CG| trace_G_new    9.9550522099992558E-002
 PAO|CG| trace_G_prev   0.25961916480575742     
 PAO|CG| trace_G_mix    3.9985997836072731E-003
 PAO|CG| trace_D   0.37351659545295152     
 PAO|CG| trace_D_Gnew   7.1672209510002588E-004
 PAO|CG| beta:   0.36804648989559607     
 PAO| norm of gradient:  0.31551627866085225     
 PAO| energy improvement:  -5.0268989280652931E-002
 PAO| step     16                 -190.805415248  0.616E-03  0.397E+00     1.494
 PAO|LS| adapt:  T F F
 PAO|LS| adapt: scan_steps:    0.0000000000000000        0.0000000000000000        0.0000000000000000     
 PAO|LS| adapt: energies:   -190.80541524796470        0.0000000000000000        0.0000000000000000     
 PAO| ======================= Iteration:        17 =============================

     Lanczos converged:  F threshold:   0.100E-02
     Est. extremal eigenvalues:    0.485E+01   0.134E+00
     Est. condition number :    0.361E+02

 Order=           3
     NS sqrt iter    1 1.00000000   0.125E+01       0.021     2739.340
     NS sqrt iter    2 1.00000000   0.633E+00       0.033     3401.545
     NS sqrt iter    3 1.00000000   0.202E+00       0.033     3399.644
     NS sqrt iter    4 1.00000000   0.255E-01       0.033     3395.086
     NS sqrt iter    5 1.00000000   0.114E-03       0.033     3381.921
     NS sqrt iter    6 1.00000000   0.294E-10       0.019     2266.071
     Symmetrizing Results
     Final NS sqrt iter    6 1.00000000   0.224E-11

     Est. extremal eigenvalues     -0.83272     2.59079  converged:  T
     TRS4 it   1 1.00000000   0.285E+02       0.007     2179.950   0.100E-11
     TRS4 it   2 1.00000000   0.235E+02       0.013     2261.823   0.100E-11
     TRS4 it   3 1.00000000   0.154E+02       0.013     2249.653   0.100E-11
     TRS4 it   4 1.00000000   0.893E+01       0.013     2247.927   0.100E-11
     TRS4 it   5 1.00000000   0.368E+01       0.013     2268.663   0.100E-11
     TRS4 it   6 1.00000000   0.924E+00       0.013     2246.391   0.100E-11
     TRS4 it   7 1.00000000   0.108E+00       0.013     2229.303   0.100E-11
     TRS4 it   8 1.00000000   0.228E-02       0.013     2243.382   0.100E-11
     TRS4 it   9 1.00000000   0.151E-05       0.013     2264.293   0.100E-11
     TRS4 it  10 1.00000000   0.166E-11       0.013     2254.214   0.100E-11
     Final TRS4 iteration   10 1.00000000   0.166E-11
     Chemical potential (mu):       0.05482
 
 PAO| energy:  -190.80956988961179      penalty:   5.0389905350844500E-004
 PAO|LS| adapt:  T T F
 PAO|LS| adapt: scan_steps:    0.0000000000000000       0.39660130608199234        0.0000000000000000     
 PAO|LS| adapt: energies:   -190.80541524796470       -190.80956988961179        0.0000000000000000     
 PAO| ======================= Iteration:        18 =============================

     Lanczos converged:  F threshold:   0.100E-02
     Est. extremal eigenvalues:    0.481E+01   0.135E+00
     Est. condition number :    0.357E+02

 Order=           3
     NS sqrt iter    1 1.00000000   0.124E+01       0.021     2750.475
     NS sqrt iter    2 1.00000000   0.628E+00       0.033     3409.440
     NS sqrt iter    3 1.00000000   0.200E+00       0.033     3420.760
     NS sqrt iter    4 1.00000000   0.247E-01       0.033     3413.737
     NS sqrt iter    5 1.00000000   0.104E-03       0.033     3417.144
     NS sqrt iter    6 1.00000000   0.230E-10       0.017     2219.563
     Symmetrizing Results
     Final NS sqrt iter    6 1.00000000   0.214E-11

     Est. extremal eigenvalues     -0.83265     2.58875  converged:  T
     TRS4 it   1 1.00000000   0.286E+02       0.007     2173.338   0.100E-11
     TRS4 it   2 1.00000000   0.235E+02       0.013     2240.075   0.100E-11
     TRS4 it   3 1.00000000   0.154E+02       0.013     2250.659   0.100E-11
     TRS4 it   4 1.00000000   0.889E+01       0.013     2255.005   0.100E-11
     TRS4 it   5 1.00000000   0.364E+01       0.013     2254.425   0.100E-11
     TRS4 it   6 1.00000000   0.905E+00       0.013     2248.586   0.100E-11
     TRS4 it   7 1.00000000   0.104E+00       0.013     2260.930   0.100E-11
     TRS4 it   8 1.00000000   0.211E-02       0.013     2241.590   0.100E-11
     TRS4 it   9 1.00000000   0.130E-05       0.013     2262.454   0.100E-11
     TRS4 it  10 1.00000000   0.127E-11       0.013     2252.193   0.100E-11
     Final TRS4 iteration   10 1.00000000   0.127E-11
     Chemical potential (mu):       0.05596
 
 PAO| energy:  -190.74311766094368      penalty:   5.0277402084154810E-004
 PAO|LS| adapt:  T T T
 PAO|LS| adapt: scan_steps:    0.0000000000000000       0.39660130608199234       0.79320261216398469     
 PAO|LS| adapt: energies:   -190.80541524796470       -190.80956988961179       -190.74311766094368     
 PAO|LS| adapt: suggested step_size:   0.22163742319074264     
 PAO|LS| adapt: predicted energy  -190.81644066105960     
 PAO| ======================= Iteration:        19 =============================

     Lanczos converged:  F threshold:   0.100E-02
     Est. extremal eigenvalues:    0.487E+01   0.134E+00
     Est. condition number :    0.363E+02

 Order=           3
     NS sqrt iter    1 1.00000000   0.125E+01       0.022     2602.110
     NS sqrt iter    2 1.00000000   0.635E+00       0.033     3410.235
     NS sqrt iter    3 1.00000000   0.203E+00       0.033     3381.676
     NS sqrt iter    4 1.00000000   0.259E-01       0.033     3401.522
     NS sqrt iter    5 1.00000000   0.118E-03       0.033     3413.372
     NS sqrt iter    6 1.00000000   0.329E-10       0.019     2278.728
     Symmetrizing Results
     Final NS sqrt iter    6 1.00000000   0.230E-11

     Est. extremal eigenvalues     -0.83271     2.59166  converged:  T
     TRS4 it   1 1.00000000   0.285E+02       0.007     2163.554   0.100E-11
     TRS4 it   2 1.00000000   0.235E+02       0.013     2266.252   0.100E-11
     TRS4 it   3 1.00000000   0.154E+02       0.013     2270.982   0.100E-11
     TRS4 it   4 1.00000000   0.895E+01       0.013     2255.163   0.100E-11
     TRS4 it   5 1.00000000   0.370E+01       0.013     2239.648   0.100E-11
     TRS4 it   6 1.00000000   0.933E+00       0.013     2266.741   0.100E-11
     TRS4 it   7 1.00000000   0.110E+00       0.013     2264.378   0.100E-11
     TRS4 it   8 1.00000000   0.237E-02       0.013     2270.790   0.100E-11
     TRS4 it   9 1.00000000   0.161E-05       0.013     2235.209   0.100E-11
     TRS4 it  10 1.00000000   0.193E-11       0.013     2244.391   0.100E-11
     Final TRS4 iteration   10 1.00000000   0.193E-11
     Chemical potential (mu):       0.05433
 
 PAO| energy:  -190.81642788907581      penalty:   5.0676540232508064E-004
 PAO|CG| trace_G_new    2.0918721128000015E-002
 PAO|CG| trace_G_prev    9.9550522099992558E-002
 PAO|CG| trace_G_mix   -3.1776476179624458E-004
 PAO|CG| trace_D   0.14961884068141315     
 PAO|CG| trace_D_Gnew  -4.4893512448388254E-005
 PAO|CG| beta:   0.21332370179299992     
 PAO| norm of gradient:  0.14463305683003458     
 PAO| energy improvement:  -1.1012641111108223E-002
 PAO| step     19                 -190.816427889  0.282E-03  0.222E+00     1.493
 PAO|LS| adapt:  T F F
 PAO|LS| adapt: scan_steps:    0.0000000000000000        0.0000000000000000        0.0000000000000000     
 PAO|LS| adapt: energies:   -190.81642788907581        0.0000000000000000        0.0000000000000000     
 PAO| ======================= Iteration:        20 =============================

     Lanczos converged:  F threshold:   0.100E-02
     Est. extremal eigenvalues:    0.486E+01   0.134E+00
     Est. condition number :    0.363E+02

 Order=           3
     NS sqrt iter    1 1.00000000   0.125E+01       0.021     2756.399
     NS sqrt iter    2 1.00000000   0.634E+00       0.033     3443.825
     NS sqrt iter    3 1.00000000   0.203E+00       0.033     3412.400
     NS sqrt iter    4 1.00000000   0.258E-01       0.033     3380.560
     NS sqrt iter    5 1.00000000   0.118E-03       0.033     3412.726
     NS sqrt iter    6 1.00000000   0.324E-10       0.019     2299.403
     Symmetrizing Results
     Final NS sqrt iter    6 1.00000000   0.230E-11

     Est. extremal eigenvalues     -0.83272     2.59032  converged:  T
     TRS4 it   1 1.00000000   0.285E+02       0.007     2156.537   0.100E-11
     TRS4 it   2 1.00000000   0.235E+02       0.013     2259.026   0.100E-11
     TRS4 it   3 1.00000000   0.154E+02       0.013     2247.709   0.100E-11
     TRS4 it   4 1.00000000   0.894E+01       0.013     2233.279   0.100E-11
     TRS4 it   5 1.00000000   0.369E+01       0.013     2250.732   0.100E-11
     TRS4 it   6 1.00000000   0.928E+00       0.013     2213.824   0.100E-11
     TRS4 it   7 1.00000000   0.109E+00       0.013     2244.491   0.100E-11
     TRS4 it   8 1.00000000   0.233E-02       0.013     2255.139   0.100E-11
     TRS4 it   9 1.00000000   0.157E-05       0.013     2263.690   0.100E-11
     TRS4 it  10 1.00000000   0.178E-11       0.013     2249.231   0.100E-11
     Final TRS4 iteration   10 1.00000000   0.178E-11
     Chemical potential (mu):       0.05451
 
 PAO| energy:  -190.82017298813210      penalty:   4.9684327697627304E-004
 PAO|LS| adapt:  T T F
 PAO|LS| adapt: scan_steps:    0.0000000000000000       0.22163742319074264        0.0000000000000000     
 PAO|LS| adapt: energies:   -190.81642788907581       -190.82017298813210        0.0000000000000000     
 PAO| ======================= Iteration:        21 =============================

     Lanczos converged:  F threshold:   0.100E-02
     Est. extremal eigenvalues:    0.486E+01   0.134E+00
     Est. condition number :    0.363E+02

 Order=           3
     NS sqrt iter    1 1.00000000   0.125E+01       0.021     2737.220
     NS sqrt iter    2 1.00000000   0.634E+00       0.033     3422.296
     NS sqrt iter    3 1.00000000   0.203E+00       0.033     3411.697
     NS sqrt iter    4 1.00000000   0.258E-01       0.033     3411.818
     NS sqrt iter    5 1.00000000   0.117E-03       0.033     3427.349
     NS sqrt iter    6 1.00000000   0.319E-10       0.019     2295.596
     Symmetrizing Results
     Final NS sqrt iter    6 1.00000000   0.229E-11

     Est. extremal eigenvalues     -0.83273     2.58896  converged:  T
     TRS4 it   1 1.00000000   0.285E+02       0.007     2168.542   0.100E-11
     TRS4 it   2 1.00000000   0.235E+02       0.013     2274.378   0.100E-11
     TRS4 it   3 1.00000000   0.154E+02       0.013     2226.911   0.100E-11
     TRS4 it   4 1.00000000   0.893E+01       0.013     2257.049   0.100E-11
     TRS4 it   5 1.00000000   0.368E+01       0.013     2250.474   0.100E-11
     TRS4 it   6 1.00000000   0.924E+00       0.013     2263.267   0.100E-11
     TRS4 it   7 1.00000000   0.108E+00       0.013     2257.599   0.100E-11
     TRS4 it   8 1.00000000   0.229E-02       0.013     2253.473   0.100E-11
     TRS4 it   9 1.00000000   0.152E-05       0.013     2265.236   0.100E-11
     TRS4 it  10 1.00000000   0.169E-11       0.013     2256.722   0.100E-11
     Final TRS4 iteration   10 1.00000000   0.169E-11
     Chemical potential (mu):       0.05468
 
 PAO| energy:  -190.82211840419163      penalty:   4.8736339857993695E-004
 PAO|LS| adapt:  T T F
 PAO|LS| adapt: scan_steps:    0.0000000000000000       0.44327484638148529        0.0000000000000000     
 PAO|LS| adapt: energies:   -190.81642788907581       -190.82211840419163        0.0000000000000000     
 PAO| ======================= Iteration:        22 =============================

     Lanczos converged:  F threshold:   0.100E-02
     Est. extremal eigenvalues:    0.485E+01   0.134E+00
     Est. condition number :    0.362E+02

 Order=           3
     NS sqrt iter    1 1.00000000   0.125E+01       0.021     2734.652
     NS sqrt iter    2 1.00000000   0.633E+00       0.033     3407.401
     NS sqrt iter    3 1.00000000   0.203E+00       0.033     3413.768
     NS sqrt iter    4 1.00000000   0.258E-01       0.034     3374.660
     NS sqrt iter    5 1.00000000   0.116E-03       0.033     3396.839
     NS sqrt iter    6 1.00000000   0.310E-10       0.019     2270.366
     Symmetrizing Results
     Final NS sqrt iter    6 1.00000000   0.226E-11

     Est. extremal eigenvalues     -0.83274     2.58621  converged:  T
     TRS4 it   1 1.00000000   0.285E+02       0.007     2147.567   0.100E-11
     TRS4 it   2 1.00000000   0.234E+02       0.013     2259.119   0.100E-11
     TRS4 it   3 1.00000000   0.154E+02       0.013     2260.048   0.100E-11
     TRS4 it   4 1.00000000   0.891E+01       0.013     2264.014   0.100E-11
     TRS4 it   5 1.00000000   0.366E+01       0.013     2245.659   0.100E-11
     TRS4 it   6 1.00000000   0.915E+00       0.013     2252.147   0.100E-11
     TRS4 it   7 1.00000000   0.107E+00       0.013     2253.530   0.100E-11
     TRS4 it   8 1.00000000   0.222E-02       0.013     2253.504   0.100E-11
     TRS4 it   9 1.00000000   0.144E-05       0.013     2231.754   0.100E-11
     TRS4 it  10 1.00000000   0.157E-11       0.013     2270.571   0.100E-11
     Final TRS4 iteration   10 1.00000000   0.157E-11
     Chemical potential (mu):       0.05503
 
 PAO| energy:  -190.82053219197414      penalty:   4.6970050383138225E-004
 PAO|LS| Need extra step
 PAO|LS| adapt:  T T T
 PAO|LS| adapt: scan_steps:    0.0000000000000000       0.44327484638148529       0.88654969276297058     
 PAO|LS| adapt: energies:   -190.81642788907581       -190.82211840419163       -190.82053219197414     
 PAO|LS| adapt: suggested step_size:   0.56828531835779306     
 PAO|LS| adapt: predicted energy  -190.82240777366897     
 PAO| ======================= Iteration:        23 =============================

     Lanczos converged:  F threshold:   0.100E-02
     Est. extremal eigenvalues:    0.485E+01   0.134E+00
     Est. condition number :    0.362E+02

 Order=           3
     NS sqrt iter    1 1.00000000   0.125E+01       0.021     2726.599
     NS sqrt iter    2 1.00000000   0.634E+00       0.033     3423.071
     NS sqrt iter    3 1.00000000   0.203E+00       0.033     3388.420
     NS sqrt iter    4 1.00000000   0.258E-01       0.033     3392.496
     NS sqrt iter    5 1.00000000   0.117E-03       0.033     3404.552
     NS sqrt iter    6 1.00000000   0.316E-10       0.019     2248.011
     Symmetrizing Results
     Final NS sqrt iter    6 1.00000000   0.227E-11

     Est. extremal eigenvalues     -0.83273     2.58819  converged:  T
     TRS4 it   1 1.00000000   0.285E+02       0.007     2161.096   0.100E-11
     TRS4 it   2 1.00000000   0.235E+02       0.013     2234.577   0.100E-11
     TRS4 it   3 1.00000000   0.154E+02       0.013     2273.987   0.100E-11
     TRS4 it   4 1.00000000   0.892E+01       0.013     2256.448   0.100E-11
     TRS4 it   5 1.00000000   0.367E+01       0.013     2242.304   0.100E-11
     TRS4 it   6 1.00000000   0.921E+00       0.013     2222.708   0.100E-11
     TRS4 it   7 1.00000000   0.108E+00       0.013     2240.376   0.100E-11
     TRS4 it   8 1.00000000   0.227E-02       0.013     2238.251   0.100E-11
     TRS4 it   9 1.00000000   0.150E-05       0.013     2261.936   0.100E-11
     TRS4 it  10 1.00000000   0.168E-11       0.013     2260.061   0.100E-11
     Final TRS4 iteration   10 1.00000000   0.168E-11
     Chemical potential (mu):       0.05478
 
 PAO| energy:  -190.82241454350327      penalty:   4.8220850567983668E-004
 PAO|CG| trace_G_new    1.6486629957971177E-002
 PAO|CG| trace_G_prev    2.0918721128000015E-002
 PAO|CG| trace_G_mix    1.0512107565099644E-004
 PAO|CG| trace_D    2.7746579672747594E-002
 PAO|CG| trace_D_Gnew  -4.4855347367230090E-005
 PAO|CG| beta:   0.78310279017933326     
 PAO| norm of gradient:  0.12840027242171714     
 PAO| energy improvement:  -5.9866544274598255E-003
 PAO| step     23                 -190.822414544  0.251E-03  0.568E+00     1.938
 PAO|LS| adapt:  T F F
 PAO|LS| adapt: scan_steps:    0.0000000000000000        0.0000000000000000        0.0000000000000000     
 PAO|LS| adapt: energies:   -190.82241454350327        0.0000000000000000        0.0000000000000000     
 PAO| ======================= Iteration:        24 =============================

     Lanczos converged:  F threshold:   0.100E-02
     Est. extremal eigenvalues:    0.484E+01   0.134E+00
     Est. condition number :    0.362E+02

 Order=           3
     NS sqrt iter    1 1.00000000   0.125E+01       0.021     2750.325
     NS sqrt iter    2 1.00000000   0.632E+00       0.034     3377.038
     NS sqrt iter    3 1.00000000   0.203E+00       0.033     3395.602
     NS sqrt iter    4 1.00000000   0.257E-01       0.034     3365.653
     NS sqrt iter    5 1.00000000   0.116E-03       0.033     3400.962
     NS sqrt iter    6 1.00000000   0.310E-10       0.019     2268.091
     Symmetrizing Results
     Final NS sqrt iter    6 1.00000000   0.226E-11

     Est. extremal eigenvalues     -0.83276     2.58462  converged:  T
     TRS4 it   1 1.00000000   0.285E+02       0.006     2191.850   0.100E-11
     TRS4 it   2 1.00000000   0.234E+02       0.013     2275.269   0.100E-11
     TRS4 it   3 1.00000000   0.154E+02       0.013     2245.409   0.100E-11
     TRS4 it   4 1.00000000   0.890E+01       0.013     2234.552   0.100E-11
     TRS4 it   5 1.00000000   0.365E+01       0.013     2258.253   0.100E-11
     TRS4 it   6 1.00000000   0.911E+00       0.013     2245.618   0.100E-11
     TRS4 it   7 1.00000000   0.106E+00       0.013     2264.843   0.100E-11
     TRS4 it   8 1.00000000   0.220E-02       0.013     2275.866   0.100E-11
     TRS4 it   9 1.00000000   0.142E-05       0.013     2247.734   0.100E-11
     TRS4 it  10 1.00000000   0.151E-11       0.013     2251.324   0.100E-11
     Final TRS4 iteration   10 1.00000000   0.151E-11
     Chemical potential (mu):       0.05508
 
 PAO| energy:  -190.82603532250371      penalty:   4.4389281769277139E-004
 PAO|LS| adapt:  T T F
 PAO|LS| adapt: scan_steps:    0.0000000000000000       0.56828531835779306        0.0000000000000000     
 PAO|LS| adapt: energies:   -190.82241454350327       -190.82603532250371        0.0000000000000000     
 PAO| ======================= Iteration:        25 =============================

     Lanczos converged:  F threshold:   0.100E-02
     Est. extremal eigenvalues:    0.482E+01   0.133E+00
     Est. condition number :    0.362E+02

 Order=           3
     NS sqrt iter    1 1.00000000   0.124E+01       0.021     2740.764
     NS sqrt iter    2 1.00000000   0.630E+00       0.033     3413.219
     NS sqrt iter    3 1.00000000   0.202E+00       0.033     3391.220
     NS sqrt iter    4 1.00000000   0.257E-01       0.033     3418.586
     NS sqrt iter    5 1.00000000   0.116E-03       0.033     3416.404
     NS sqrt iter    6 1.00000000   0.305E-10       0.019     2266.784
     Symmetrizing Results
     Final NS sqrt iter    6 1.00000000   0.226E-11

     Est. extremal eigenvalues     -0.83278     2.58093  converged:  T
     TRS4 it   1 1.00000000   0.285E+02       0.007     2153.541   0.100E-11
     TRS4 it   2 1.00000000   0.234E+02       0.013     2264.753   0.100E-11
     TRS4 it   3 1.00000000   0.154E+02       0.013     2248.503   0.100E-11
     TRS4 it   4 1.00000000   0.887E+01       0.013     2257.725   0.100E-11
     TRS4 it   5 1.00000000   0.363E+01       0.013     2265.198   0.100E-11
     TRS4 it   6 1.00000000   0.901E+00       0.013     2240.957   0.100E-11
     TRS4 it   7 1.00000000   0.104E+00       0.013     2263.569   0.100E-11
     TRS4 it   8 1.00000000   0.213E-02       0.013     2232.156   0.100E-11
     TRS4 it   9 1.00000000   0.135E-05       0.013     2262.436   0.100E-11
     TRS4 it  10 1.00000000   0.136E-11       0.013     2261.943   0.100E-11
     Final TRS4 iteration   10 1.00000000   0.136E-11
     Chemical potential (mu):       0.05540
 
 PAO| energy:  -190.81790406748556      penalty:   4.0977024749952245E-004
 PAO|LS| adapt:  T T T
 PAO|LS| adapt: scan_steps:    0.0000000000000000       0.56828531835779306        1.1365706367155861     
 PAO|LS| adapt: energies:   -190.82241454350327       -190.82603532250371       -190.81790406748556     
 PAO|LS| adapt: suggested step_size:   0.45923026900994762     
 PAO|LS| adapt: predicted energy  -190.82625171476690     
 PAO| ======================= Iteration:        26 =============================

     Lanczos converged:  F threshold:   0.100E-02
     Est. extremal eigenvalues:    0.484E+01   0.134E+00
     Est. condition number :    0.362E+02

 Order=           3
     NS sqrt iter    1 1.00000000   0.125E+01       0.021     2721.205
     NS sqrt iter    2 1.00000000   0.632E+00       0.033     3443.031
     NS sqrt iter    3 1.00000000   0.203E+00       0.034     3346.816
     NS sqrt iter    4 1.00000000   0.257E-01       0.033     3398.545
     NS sqrt iter    5 1.00000000   0.116E-03       0.033     3399.496
     NS sqrt iter    6 1.00000000   0.311E-10       0.019     2291.118
     Symmetrizing Results
     Final NS sqrt iter    6 1.00000000   0.226E-11

     Est. extremal eigenvalues     -0.83276     2.58532  converged:  T
     TRS4 it   1 1.00000000   0.285E+02       0.007     2136.033   0.100E-11
     TRS4 it   2 1.00000000   0.234E+02       0.013     2251.965   0.100E-11
     TRS4 it   3 1.00000000   0.154E+02       0.013     2244.406   0.100E-11
     TRS4 it   4 1.00000000   0.890E+01       0.013     2249.489   0.100E-11
     TRS4 it   5 1.00000000   0.365E+01       0.013     2253.473   0.100E-11
     TRS4 it   6 1.00000000   0.913E+00       0.013     2245.586   0.100E-11
     TRS4 it   7 1.00000000   0.106E+00       0.013     2254.153   0.100E-11
     TRS4 it   8 1.00000000   0.221E-02       0.013     2243.920   0.100E-11
     TRS4 it   9 1.00000000   0.144E-05       0.013     2270.817   0.100E-11
     TRS4 it  10 1.00000000   0.153E-11       0.013     2250.683   0.100E-11
     Final TRS4 iteration   10 1.00000000   0.153E-11
     Chemical potential (mu):       0.05503
 
 PAO| energy:  -190.82624167137254      penalty:   4.5091412625980503E-004
 PAO|CG| trace_G_new    1.3971022739114162E-002
 PAO|CG| trace_G_prev    1.6486629957971177E-002
 PAO|CG| trace_G_mix    2.7714472576995369E-004
 PAO|CG| trace_D    3.3572472082337303E-002
 PAO|CG| trace_D_Gnew  -8.4863987245816826E-005
 PAO|CG| beta:   0.83060504470917096     
 PAO| norm of gradient:  0.11819908095714687     
 PAO| energy improvement:  -3.8271278692718624E-003
 PAO| step     26                 -190.826241671  0.231E-03  0.459E+00     1.494
 PAO|LS| adapt:  T F F
 PAO|LS| adapt: scan_steps:    0.0000000000000000        0.0000000000000000        0.0000000000000000     
 PAO|LS| adapt: energies:   -190.82624167137254        0.0000000000000000        0.0000000000000000     
 PAO| ======================= Iteration:        27 =============================

     Lanczos converged:  F threshold:   0.100E-02
     Est. extremal eigenvalues:    0.482E+01   0.133E+00
     Est. condition number :    0.362E+02

 Order=           3
     NS sqrt iter    1 1.00000000   0.124E+01       0.021     2748.347
     NS sqrt iter    2 1.00000000   0.630E+00       0.033     3430.530
     NS sqrt iter    3 1.00000000   0.202E+00       0.033     3412.265
     NS sqrt iter    4 1.00000000   0.256E-01       0.033     3414.979
     NS sqrt iter    5 1.00000000   0.116E-03       0.033     3419.337
     NS sqrt iter    6 1.00000000   0.311E-10       0.019     2288.674
     Symmetrizing Results
     Final NS sqrt iter    6 1.00000000   0.228E-11

     Est. extremal eigenvalues     -0.83278     2.58220  converged:  T
     TRS4 it   1 1.00000000   0.285E+02       0.007     2145.893   0.100E-11
     TRS4 it   2 1.00000000   0.234E+02       0.013     2251.021   0.100E-11
     TRS4 it   3 1.00000000   0.154E+02       0.013     2253.484   0.100E-11
     TRS4 it   4 1.00000000   0.888E+01       0.013     2260.036   0.100E-11
     TRS4 it   5 1.00000000   0.363E+01       0.013     2255.204   0.100E-11
     TRS4 it   6 1.00000000   0.903E+00       0.013     2253.229   0.100E-11
     TRS4 it   7 1.00000000   0.104E+00       0.013     2259.596   0.100E-11
     TRS4 it   8 1.00000000   0.214E-02       0.013     2249.309   0.100E-11
     TRS4 it   9 1.00000000   0.136E-05       0.013     2254.571   0.100E-11
     TRS4 it  10 1.00000000   0.140E-11       0.013     2243.555   0.100E-11
     Final TRS4 iteration   10 1.00000000   0.140E-11
     Chemical potential (mu):       0.05537
 
 PAO| energy:  -190.82889929230697      penalty:   4.1120522751456420E-004
 PAO|LS| adapt:  T T F
 PAO|LS| adapt: scan_steps:    0.0000000000000000       0.45923026900994762        0.0000000000000000     
 PAO|LS| adapt: energies:   -190.82624167137254       -190.82889929230697        0.0000000000000000     
 PAO| ======================= Iteration:        28 =============================

     Lanczos converged:  F threshold:   0.100E-02
     Est. extremal eigenvalues:    0.481E+01   0.133E+00
     Est. condition number :    0.362E+02

 Order=           3
     NS sqrt iter    1 1.00000000   0.124E+01       0.021     2731.414
     NS sqrt iter    2 1.00000000   0.628E+00       0.033     3418.417
     NS sqrt iter    3 1.00000000   0.201E+00       0.033     3404.464
     NS sqrt iter    4 1.00000000   0.255E-01       0.033     3403.067
     NS sqrt iter    5 1.00000000   0.116E-03       0.033     3392.283
     NS sqrt iter    6 1.00000000   0.311E-10       0.019     2292.375
     Symmetrizing Results
     Final NS sqrt iter    6 1.00000000   0.225E-11

     Est. extremal eigenvalues     -0.83279     2.57890  converged:  T
     TRS4 it   1 1.00000000   0.285E+02       0.007     2175.724   0.100E-11
     TRS4 it   2 1.00000000   0.234E+02       0.013     2228.669   0.100E-11
     TRS4 it   3 1.00000000   0.154E+02       0.013     2255.504   0.100E-11
     TRS4 it   4 1.00000000   0.885E+01       0.013     2273.135   0.100E-11
     TRS4 it   5 1.00000000   0.361E+01       0.013     2233.086   0.100E-11
     TRS4 it   6 1.00000000   0.894E+00       0.013     2250.465   0.100E-11
     TRS4 it   7 1.00000000   0.102E+00       0.013     2253.252   0.100E-11
     TRS4 it   8 1.00000000   0.207E-02       0.013     2239.386   0.100E-11
     TRS4 it   9 1.00000000   0.128E-05       0.013     2266.607   0.100E-11
     TRS4 it  10 1.00000000   0.123E-11       0.013     2231.630   0.100E-11
     Final TRS4 iteration   10 1.00000000   0.123E-11
     Chemical potential (mu):       0.05573
 
 PAO| energy:  -190.82389807857470      penalty:   3.7537650253587123E-004
 PAO|LS| adapt:  T T T
 PAO|LS| adapt: scan_steps:    0.0000000000000000       0.45923026900994762       0.91846053801989525     
 PAO|LS| adapt: energies:   -190.82624167137254       -190.82889929230697       -190.82389807857470     
 PAO|LS| adapt: suggested step_size:   0.38896835594877799     
 PAO|LS| adapt: predicted energy  -190.82898893432565     
 PAO| ======================= Iteration:        29 =============================

     Lanczos converged:  F threshold:   0.100E-02
     Est. extremal eigenvalues:    0.483E+01   0.133E+00
     Est. condition number :    0.362E+02

 Order=           3
     NS sqrt iter    1 1.00000000   0.124E+01       0.021     2731.935
     NS sqrt iter    2 1.00000000   0.631E+00       0.033     3424.628
     NS sqrt iter    3 1.00000000   0.202E+00       0.033     3411.034
     NS sqrt iter    4 1.00000000   0.256E-01       0.033     3418.048
     NS sqrt iter    5 1.00000000   0.116E-03       0.033     3396.680
     NS sqrt iter    6 1.00000000   0.311E-10       0.019     2274.990
     Symmetrizing Results
     Final NS sqrt iter    6 1.00000000   0.227E-11

     Est. extremal eigenvalues     -0.83278     2.58269  converged:  T
     TRS4 it   1 1.00000000   0.285E+02       0.007     2168.770   0.100E-11
     TRS4 it   2 1.00000000   0.234E+02       0.013     2262.540   0.100E-11
     TRS4 it   3 1.00000000   0.154E+02       0.013     2252.792   0.100E-11
     TRS4 it   4 1.00000000   0.888E+01       0.013     2250.193   0.100E-11
     TRS4 it   5 1.00000000   0.364E+01       0.013     2232.951   0.100E-11
     TRS4 it   6 1.00000000   0.905E+00       0.013     2249.699   0.100E-11
     TRS4 it   7 1.00000000   0.105E+00       0.013     2243.082   0.100E-11
     TRS4 it   8 1.00000000   0.215E-02       0.013     2230.758   0.100E-11
     TRS4 it   9 1.00000000   0.137E-05       0.013     2223.847   0.100E-11
[...]
     TRS4 it   3 1.00000000   0.156E+02       0.013     2258.407   0.100E-11
     TRS4 it   4 1.00000000   0.922E+01       0.013     2240.025   0.100E-11
     TRS4 it   5 1.00000000   0.413E+01       0.013     2242.242   0.100E-11
     TRS4 it   6 1.00000000   0.128E+01       0.013     2245.976   0.100E-11
     TRS4 it   7 1.00000000   0.230E+00       0.013     2221.901   0.100E-11
     TRS4 it   8 1.00000000   0.133E-01       0.013     2244.991   0.100E-11
     TRS4 it   9 1.00000000   0.668E-04       0.013     2235.003   0.100E-11
     TRS4 it  10 1.00000000   0.178E-08       0.013     2234.431   0.100E-11
     TRS4 it  11 1.00000000   0.355E-14       0.013     2250.789   0.100E-11
     Final TRS4 iteration   11 1.00000000   0.355E-14
     Chemical potential (mu):       0.01989
 
 PAO| energy:  -190.43320384963499      penalty:   1.1802110917412262E-008
 PAO| Writing restart file.
     Est. extremal eigenvalues     -0.83274     2.59384  converged:  T
     TRS4 it   1 1.00000000   0.289E+02       0.007     2169.260   0.100E-11
     TRS4 it   2 1.00000000   0.237E+02       0.013     2242.929   0.100E-11
     TRS4 it   3 1.00000000   0.156E+02       0.013     2243.571   0.100E-11
     TRS4 it   4 1.00000000   0.922E+01       0.013     2244.217   0.100E-11
     TRS4 it   5 1.00000000   0.413E+01       0.013     2247.079   0.100E-11
     TRS4 it   6 1.00000000   0.128E+01       0.013     2247.098   0.100E-11
     TRS4 it   7 1.00000000   0.230E+00       0.013     2221.434   0.100E-11
     TRS4 it   8 1.00000000   0.133E-01       0.013     2259.565   0.100E-11
     TRS4 it   9 1.00000000   0.668E-04       0.013     2248.044   0.100E-11
     TRS4 it  10 1.00000000   0.178E-08       0.013     2248.444   0.100E-11
     TRS4 it  11 1.00000000   0.355E-14       0.013     2253.129   0.100E-11
     Final TRS4 iteration   11 1.00000000   0.355E-14
     Chemical potential (mu):       0.01989

 SCF     1     -1103.049981511     -1103.049981511    1.759565

*********************************************************
 Using MIXING_FRACTION=0.450 to mix KS matrix:  iscf=  2
 KS_nw=0.450*KS + 0.550*KS_old
*********************************************************
     Est. extremal eigenvalues     -0.83274     2.59384  converged:  T
     TRS4 it   1 1.00000000   0.289E+02       0.007     2173.514   0.100E-11
     TRS4 it   2 1.00000000   0.237E+02       0.013     2247.247   0.100E-11
     TRS4 it   3 1.00000000   0.156E+02       0.013     2225.144   0.100E-11
     TRS4 it   4 1.00000000   0.922E+01       0.013     2270.691   0.100E-11
     TRS4 it   5 1.00000000   0.413E+01       0.013     2258.592   0.100E-11
     TRS4 it   6 1.00000000   0.128E+01       0.013     2257.135   0.100E-11
     TRS4 it   7 1.00000000   0.230E+00       0.013     2246.501   0.100E-11
     TRS4 it   8 1.00000000   0.133E-01       0.013     2254.873   0.100E-11
     TRS4 it   9 1.00000000   0.668E-04       0.013     2269.260   0.100E-11
     TRS4 it  10 1.00000000   0.178E-08       0.013     2236.032   0.100E-11
     TRS4 it  11 1.00000000   0.355E-14       0.013     2267.909   0.100E-11
     Final TRS4 iteration   11 1.00000000   0.355E-14
     Chemical potential (mu):       0.01989

 SCF     2     -1103.049981512        -0.000000000    1.760986


 SCF run converged in     2 steps.

 PAO| Storing density matrix for ASPC guess in slot:           1

 ENERGY| Total FORCE_EVAL ( QS ) energy [a.u.]:            -1103.049981511531769

 -------------------------------------------------------------------------------
 -                                                                             -
 -                                DBCSR STATISTICS                             -
 -                                                                             -
 -------------------------------------------------------------------------------
 COUNTER                                    TOTAL       BLAS       SMM       ACC
 flops     5 x     5 x     4             23116800       0.0%    100.0%      0.0%     
 flops    13 x     5 x     4             29818880       0.0%    100.0%      0.0%     
 flops     5 x    13 x     4             29818880       0.0%    100.0%      0.0%     
 flops    13 x    13 x     4             39370240       0.0%    100.0%      0.0%     
 flops     4 x     4 x     5           6484131840       0.0%    100.0%      0.0%     
 flops     5 x     4 x     5           8008499200       0.0%    100.0%      0.0%     
 flops     4 x     4 x    13           8429371392       0.0%    100.0%      0.0%     
 flops    13 x     4 x     5          10411048960       0.0%    100.0%      0.0%     
 flops     5 x     4 x    13          10411048960       0.0%    100.0%      0.0%     
 flops    13 x     4 x    13          13534363648       0.0%    100.0%      0.0%     
 flops     5 x     4 x     4         402181864000       0.0%    100.0%      0.0%     
 flops    13 x     4 x     4         526978360064       0.0%    100.0%      0.0%     
 flops     4 x     4 x     4       29999303959680       0.0%    100.0%      0.0%     
 flops inhomo. stacks                           0       0.0%      0.0%      0.0%
 flops total                        30.985865E+12       0.0%    100.0%      0.0%
 flops max/rank                    977.561977E+09       0.0%    100.0%      0.0%
 matmuls inhomo. stacks                         0       0.0%      0.0%      0.0%
 matmuls total                       238301117483       0.0%    100.0%      0.0%
 number of processed stacks             243436893       0.0%    100.0%      0.0%
 average stack size                                     0.0     978.9       0.0
 marketing flops                    53.459320E+12
 -------------------------------------------------------------------------------
 # multiplications                          50181
 max memory usage/rank             617.926656E+06
 # max total images/rank                        2
 # max 3D layers                                1
 # MPI messages exchanged                20875296
 MPI messages size (bytes):
  total size                         2.482486E+12
  min size                           0.000000E+00
  max size                         541.696000E+03
  average size                     118.919820E+03
 MPI breakdown and total messages size (bytes):
             size <=      128              889788                    19200
       128 < size <=     8192              340350               1239173632
      8192 < size <=    32768               26587                639170432
     32768 < size <=   131072             8894965             662545032320
    131072 < size <=  4194304            10723606            1818451961600
   4194304 < size <= 16777216                   0                        0
  16777216 < size                               0                        0
 -------------------------------------------------------------------------------

 *** WARNING in dbcsr_mm.F:301 :: Using a non-square number of MPI ranks ***
 *** might lead to poor performance. Used ranks: 32 Suggested: 36 64     ***

 -------------------------------------------------------------------------------
 -                                                                             -
 -                      DBCSR MESSAGE PASSING PERFORMANCE                      -
 -                                                                             -
 -------------------------------------------------------------------------------
 ROUTINE             CALLS      AVE VOLUME [Bytes]
 MP_Bcast               14                     12.
 MP_Allreduce       302232                     37.
 MP_Alltoall        129489                  14551.
 MP_ISend          1679740                  55284.
 MP_IRecv          1642766                  56605.
 -------------------------------------------------------------------------------

 -------------------------------------------------------------------------------
 -                                                                             -
 -                                DBM STATISTICS                               -
 -                                                                             -
 -------------------------------------------------------------------------------
    M  x    N  x    K                                          COUNT     PERCENT
 -------------------------------------------------------------------------------

 -------------------------------------------------------------------------------
 -                                                                             -
 -                                GRID STATISTICS                              -
 -                                                                             -
 -------------------------------------------------------------------------------
 LP    KERNEL             BACKEND                              COUNT     PERCENT
 2     collocate ortho    CPU                               11476556      28.83%
 2     integrate ortho    CPU                               11476556      28.83%
 3     collocate ortho    CPU                                7375214      18.53%
 3     integrate ortho    CPU                                7375214      18.53%
 4     collocate ortho    CPU                                1048656       2.63%
 4     integrate ortho    CPU                                1048656       2.63%
 0     collocate general  CPU                                   6144       0.02%
 -------------------------------------------------------------------------------

 MEMORY| Estimated peak process memory [MiB]                                 590

 -------------------------------------------------------------------------------
 -                                                                             -
 -                         MESSAGE PASSING PERFORMANCE                         -
 -                                                                             -
 -------------------------------------------------------------------------------

 ROUTINE             CALLS      AVE VOLUME [Bytes]
 MP_Group                5
 MP_Bcast           363411                   1958.
 MP_Allreduce       903158                    514.
 MP_Sync                 5
 MP_Alltoall           369                3555433.
 MP_SendRecv          1302                  18832.
 MP_ISendRecv         1302                  18832.
 MP_Wait              3696
 MP_ISend             2166                 108220.
 MP_IRecv             2166                 108236.
 -------------------------------------------------------------------------------


 -------------------------------------------------------------------------------
 -                                                                             -
 -                           R E F E R E N C E S                               -
 -                                                                             -
 -------------------------------------------------------------------------------
 
 CP2K version 2024.3 (Development Version), the CP2K developers group (2024).
 CP2K is freely available from https://www.cp2k.org/ .
 
 T. D. Kuehne, M. Iannuzzi, M. Del Ben, V. V. Rybkin, P. Seewald, F. Stein, T. 
 Laino, R. Z. Khaliullin, O. Schuett, F. Schiffmann, D. Golze, J. Wilhelm, S. 
 Chulkov, M. H. Bani-Hashemian, V. Weber, U. Borstnik, M. Taillefumier, A. S. 
 Jakobovits, A. Lazzaro, H. Pabst, T. Mueller, R. Schade, M. Guidon, S. 
 Andermatt, N. Holmberg, G. K. Schenter, A. Hehn, A. Bussy, F. Belleflamme, G. 
 Tabacchi, A. Gloess, M. Lass, I. Bethune, C. J. Mundy, C. Plessl, M. Watkins, 
 J. VandeVondele, M. Krack, J. Hutter.
 J. Chem. Phys. 152, 194103 (2020).
 CP2K: An electronic structure and molecular dynamics software package - 
 Quickstep: Efficient and accurate electronic structure calculations.
 https://doi.org/10.1063/5.0007045

 O. Schuett, J. VandeVondele.
 J. Chem. Theory Comput. 14, 4168-4175 (2018).
 Machine Learning Adaptive Basis Sets for Efficient Large Scale Density 
 Functional Theory Simulation.
 https://doi.org/10.1021/acs.jctc.8b00378

 O. Schuett, P. Messmer, J. Hutter, J. VandeVondele.
 Electronic Structure Calculations on Graphics Processing Units, 173-190 (2016).
 GPU-Accelerated Sparse Matrix-Matrix Multiplication for Linear Scaling Density 
 Functional Theory.
 https://doi.org/10.1002/9781118670712.ch8

 A. Heinecke, G. Henry, M. Hutchinson, H. Pabst.
 Proceedings of Intl. Supercomputing Conference, 981-991 (2016).
 LIBXSMM: Accelerating Small Matrix Multiplications by Runtime Code Generation.
 https://doi.org/10.1109/SC.2016.83

 J. Hutter, M. Iannuzzi, F. Schiffmann, J. VandeVondele.
 WIREs Comput Mol Sci. 4, 15-25 (2014).
 CP2K: atomistic simulations of condensed matter systems.
 https://doi.org/10.1002/wcms.1159

 U. Borstnik, J. VandeVondele, V. Weber, J. Hutter.
 Parallel Comput. 40, 47-58 (2014).
 Sparse matrix multiplication: The distributed block-compressed sparse row 
 library.
 https://doi.org/10.1016/j.parco.2014.03.012

 A. Marek, V. Blum, R. Johanni, V. Havu, B. Lang, T. Auckenthaler, A. Heinecke, 
 H. Bungartz, H. Lederer.
 J. Phys. Condens. Matter 26, 213201 (2014).
 The ELPA library: scalable parallel eigenvalue solutions for electronic 
 structure theory and computational science.
 https://doi.org/10.1088/0953-8984/26/21/213201

 J. VandeVondele, U. Borstnik, J. Hutter.
 J. Chem. Theory Comput. 8, 3565-3573 (2012).
 Linear Scaling Self-Consistent Field Calculations with Millions of Atoms in the 
 Condensed Phase.
 https://doi.org/10.1021/ct200897x

 J. VandeVondele, J. Hutter.
 J. Chem. Phys. 127, 114105 (2007).
 Gaussian basis sets for accurate calculations on molecular systems in gas and 
 condensed phases.
 https://doi.org/10.1063/1.2770708

 J. VandeVondele, M. Krack, F. Mohamed, M. Parrinello, T. Chassaing, J. Hutter.
 Comput. Phys. Commun. 167, 103-128 (2005).
 QUICKSTEP: Fast and accurate density functional calculations using a mixed 
 Gaussian and plane waves approach.
 https://doi.org/10.1016/j.cpc.2004.12.014

 M. Krack.
 Theor. Chem. Acc. 114, 145-152 (2005).
 Pseudopotentials for H to Kr optimized for gradient-corrected 
 exchange-correlation functionals.
 https://doi.org/10.1007/s00214-005-0655-y

 M. Frigo, S. G. Johnson.
 Proc. IEEE 93, 216-231 (2005).
 The design and implementation of FFTW3.
 https://doi.org/10.1109/JPROC.2004.840301

 A. M. N. Niklasson, C. J. Tymczak, M. Challacombe.
 J. Chem. Phys. 118, 8611-8620 (2003).
 Trace resetting density matrix purification in O(N) self-consistent-field 
 theory.
 https://doi.org/10.1063/1.1559913

 C. Hartwigsen, S. Goedecker, J. Hutter.
 Phys. Rev. B 58, 3641-3662 (1998).
 Relativistic separable dual-space Gaussian pseudopotentials from H to Rn.
 https://doi.org/10.1103/PhysRevB.58.3641

 G. Lippert, J. Hutter, M. Parrinello.
 Mol. Phys. 92, 477-487 (1997).
 A hybrid Gaussian and plane wave density functional scheme.
 https://doi.org/10.1080/002689797170220

 S. Goedecker, M. Teter, J. Hutter.
 Phys. Rev. B 54, 1703-1710 (1996).
 Separable dual-space Gaussian pseudopotentials.
 https://doi.org/10.1103/PhysRevB.54.1703

 J. P. Perdew, K. Burke, M. Ernzerhof.
 Phys. Rev. Lett. 77, 3865-3868 (1996).
 Generalized gradient approximation made simple.
 https://doi.org/10.1103/PhysRevLett.77.3865


 -------------------------------------------------------------------------------
 -                                                                             -
 -                                T I M I N G                                  -
 -                                                                             -
 -------------------------------------------------------------------------------
 SUBROUTINE                       CALLS  ASD         SELF TIME        TOTAL TIME
                                MAXIMUM       AVERAGE  MAXIMUM  AVERAGE  MAXIMUM
 CP2K                                 1  1.0    0.012    0.015  437.794  437.795
 qs_energies                          1  2.0    0.000    0.000  437.640  437.641
 ls_scf                               1  3.0    0.000    0.000  436.554  436.555
 pao_update                           6  4.0    0.006    0.025  410.429  410.431
 pao_calc_energy                    815  5.0    0.003    0.021  368.557  368.561
 dbcsr_multiply_generic           50181  8.4    1.411    1.511  342.761  343.226
 multiply_cannon                  50181  9.4    2.608    3.073  275.225  283.023
 multiply_cannon_loop             50181 10.4    1.831    2.129  264.287  270.528
 ls_scf_init_matrix_S               821  7.0    0.009    0.010  204.030  204.112
 pao_rebuild_S                      815  6.0    0.002    0.003  202.526  202.609
 matrix_sqrt_Newton_Schulz          821  8.0    0.172    0.289  189.232  189.267
 multiply_cannon_multrec         401448 11.4  178.803  180.049  179.625  180.858
 pao_dm_trs4                        815  6.0    0.006    0.007  165.631  165.667
 density_matrix_trs4                828  7.0    0.220    0.376  159.907  160.013
 mp_waitall_1                   3213114 12.6   81.371   92.859   81.371   92.859
 multiply_cannon_metrocomm3      401448 11.4    0.688    0.766   63.776   71.044
 arnoldi_extremal                  1649  8.5    0.013    0.014   59.617   59.653
 arnoldi_normal_ev                 1649  9.5    0.036    0.060   59.602   59.637
 make_m2s                        100362  9.4    0.550    0.770   51.024   52.498
 build_subspace                    5862 10.6    0.359    0.389   52.363   52.390
 make_images                     100362 10.4    7.424    7.593   49.644   50.907
 dbcsr_matrix_vector_mult        179158 11.6    0.770    1.161   49.394   49.798
 dbcsr_matrix_vector_mult_local  179158 12.6   42.247   42.611   42.448   42.812
 pao_calc_AB                       1081  5.8    0.002    0.002   41.423   41.425
 pao_calc_AB_equi                  1081  6.8    0.041    0.100   41.421   41.423
 pao_calc_grad_lnv_wrt_AB           265  7.0    0.020    0.025   40.986   41.053
 make_images_data                100362 11.4    0.876    1.150   21.422   23.895
 ls_scf_main                          6  4.0    0.000    0.001   22.922   22.923
 hybrid_alltoall_any             102000 12.3    0.909    1.827   16.736   20.678
 ls_scf_dm_to_ks                     13  5.0    0.000    0.000   20.252   20.255
 mp_sum_l                        205102  9.5    8.901   18.448    8.901   18.448
 matrix_qs_to_ls                   1649  7.5    0.017    0.021   16.432   16.569
 dbcsr_multiply_generic_mpsum_f   36866  9.5    0.027    0.031    5.463   12.753
 calculate_norms                 749680 11.4   11.678   12.673   11.678   12.673
 qs_ks_update_qs_env                 14  6.0    0.000    0.000   12.177   12.179
 rebuild_ks_matrix                   14  7.0    0.000    0.000   12.167   12.169
 qs_ks_build_kohn_sham_matrix        14  8.0    0.002    0.003   12.167   12.169
 make_images_pack                100362 11.4   11.143   11.471   11.280   11.606
 qs_rho_update_rho_low               14  6.0    0.000    0.000    9.553    9.556
 calculate_rho_elec                  14  7.0    0.005    0.005    9.553    9.556
 sum_up_and_integrate                14  9.0    0.000    0.000    9.208    9.211
 integrate_v_rspace                  14 10.0    0.000    0.000    9.195    9.198
 -------------------------------------------------------------------------------

 The number of warnings for this run is : 1
 
 -------------------------------------------------------------------------------
  **** **** ******  **  PROGRAM ENDED AT                 2024-09-24 06:11:44.707
 ***** ** ***  *** **   PROGRAM RAN ON                                    moritz
 **    ****   ******    PROGRAM RAN BY                                       ole
 ***** **    ** ** **   PROGRAM PROCESS ID                                169969
  **** **  *******  **  PROGRAM STOPPED IN /home/ole/git/pao_ml_equivar/64H2O_MD
                                           /Frame6300
