 DBCSR| CPU Multiplication driver                                           BLAS
 DBCSR| Multrec recursion limit                                              512
 DBCSR| Multiplication stack size                                           1000
 DBCSR| Maximum elements for images                                    UNLIMITED
 DBCSR| Multiplicative factor virtual images                                   1
 DBCSR| Use multiplication densification                                       T
 DBCSR| Multiplication size stacks                                             3


  **** **** ******  **  PROGRAM STARTED AT               2019-03-28 17:32:56.027
 ***** ** ***  *** **   PROGRAM STARTED ON        oleschuett.zrh.corp.google.com
 **    ****   ******    PROGRAM STARTED BY                            oleschuett
 ***** **    ** ** **   PROGRAM PROCESS ID                                 32640
  **** **  *******  **  PROGRAM STARTED IN /usr/local/google/home/oleschuett/git
                                           /pao_ml_equivar/2H2O_rotations/phi_28

 CP2K| version string:                    CP2K version 7.0 (Development Version)
 CP2K| source code revision number:                                git:d9814d431
 CP2K| cp2kflags: libint fftw3 libxc libderiv_max_am1=5 libint_max_am=6         
 CP2K| is freely available from                            https://www.cp2k.org/
 CP2K| Program compiled at                          Mon Mar 25 16:50:07 CET 2019
 CP2K| Program compiled on                        oleschuett.zrh.corp.google.com
 CP2K| Program compiled for                                                local
 CP2K| Data directory path       /usr/local/google/home/oleschuett/git/cp2k/data
 CP2K| Input file name                                            2H2O_pao44.inp

 GLOBAL| Force Environment number                                              1
 GLOBAL| Basis set file name                                        BASIS_MOLOPT
 GLOBAL| Potential file name                                      GTH_POTENTIALS
 GLOBAL| MM Potential file name                                     MM_POTENTIAL
 GLOBAL| Coordinate file name                                         coords.xyz
 GLOBAL| Method name                                                        CP2K
 GLOBAL| Project name                                                 2H2O_pao44
 GLOBAL| Preferred FFT library                                             FFTW3
 GLOBAL| Preferred diagonalization lib.                                       SL
 GLOBAL| Run type                                                         ENERGY
 GLOBAL| All-to-all communication in single precision                          F
 GLOBAL| FFTs using library dependent lengths                                  F
 GLOBAL| Global print level                                                  LOW
 GLOBAL| MPI I/O enabled                                                       T
 GLOBAL| Total number of message passing processes                             1
 GLOBAL| Number of threads for this process                                    1
 GLOBAL| This output is from process                                           0
 GLOBAL| CPU model name :  Intel(R) Xeon(R) CPU E5-1650 v4 @ 3.60GHz

 MEMORY| system memory details [Kb]
 MEMORY|                        rank 0           min           max       average
 MEMORY| MemTotal             65953612      65953612      65953612      65953612
 MEMORY| MemFree               4434160       4434160       4434160       4434160
 MEMORY| Buffers               2544944       2544944       2544944       2544944
 MEMORY| Cached               25374700      25374700      25374700      25374700
 MEMORY| Slab                  3623140       3623140       3623140       3623140
 MEMORY| SReclaimable          2421912       2421912       2421912       2421912
 MEMORY| MemLikelyFree        34775716      34775716      34775716      34775716


 GENERATE|  Preliminary Number of Bonds generated:                             0
 GENERATE|  Achieved consistency in connectivity generation.

 *******************************************************************************
 *******************************************************************************
 **                                                                           **
 **     #####                         ##              ##                      **
 **    ##   ##            ##          ##              ##                      **
 **   ##     ##                       ##            ######                    **
 **   ##     ##  ##   ##  ##   #####  ##  ##   ####   ##    #####    #####    **
 **   ##     ##  ##   ##  ##  ##      ## ##   ##      ##   ##   ##  ##   ##   **
 **   ##  ## ##  ##   ##  ##  ##      ####     ###    ##   ######   ######    **
 **    ##  ###   ##   ##  ##  ##      ## ##      ##   ##   ##       ##        **
 **     #######   #####   ##   #####  ##  ##  ####    ##    #####   ##        **
 **           ##                                                    ##        **
 **                                                                           **
 **                                                ... make the atoms dance   **
 **                                                                           **
 **            Copyright (C) by CP2K developers group (2000 - 2018)           **
 **                                                                           **
 *******************************************************************************


 TOTAL NUMBERS AND MAXIMUM NUMBERS

  Total number of            - Atomic kinds:                                   2
                             - Atoms:                                          6
                             - Shell sets:                                     6
                             - Shells:                                        22
                             - Primitive Cartesian functions:                 42
                             - Cartesian basis functions:                     48
                             - Spherical basis functions:                     46

  Maximum angular momentum of- Orbital basis functions:                        2
                             - Local part of the GTH pseudopotential:          2
                             - Non-local part of the GTH pseudopotential:      0

 ------------------------------ Linear scaling SCF -----------------------------
 eps_scf:                                                              0.100E-07
 eps_filter:                                                           0.100E-07
 mixing_fraction:                                                      0.450E+00
 max_scf:                                                                     25
 fixed chemical potential (mu)                                                 F
 has unit metric:                                                              F
 Computing inv(S):                                                             T
 Computing sqrt(S):                                                            T
 Computing s preconditioner                                                    F
 sign sqrt order:                                                              3
 Extrapolation order:                                                          1
 Use single precision matrices                                                 F
 S preconditioner type                                                      NONE
 Polarized Atomic Orbitals (PAO)                                               T
 Purification method                                   Trace resetting 4th order
 Cluster type                                                             ATOMIC
 Computing Chebyshev                                                       FALSE
 Using PAO                                                                     T
 -------------------------------------------------------------------------------

 
 PAO|                                  EPS_PAO                           0.1E-04
 PAO|                                  MIXING                            0.5E+00
 PAO|                                  MAX_PAO                              1000
 PAO|                                  MAX_CYCLES                           1000
 PAO|                                  PARAMETERIZATION                   DIRECT
 PAO|                                  PRECONDITION                            F
 PAO|                                  REGULARIZATION                    0.0E+00
 PAO|                                  EPS_PGF                           0.1E-09
 PAO|                                  PENALTY_DISTANCE                  0.1E+00
 PAO|                                  PENALTY_STRENGTH                  0.5E-02
 PAO|                                  LINPOT_PRECONDITION_DELTA         0.0E+00
 PAO|                                  LINPOT_INITGUESS_DELT             0.0E+00
 PAO|                                  LINPOT_REGULARIZATION_DELTA       0.0E+00
 PAO|                                  LINPOT_REGULARIZATION_STRENGTH    0.0E+00
 PAO|                                  OPTIMIZER                              CG
 PAO|                                  CG_INIT_STEPS                           2
 PAO|                                  CG_RESET_LIMIT                    0.1E+00
 PAO|                                  CHECK_UNITARY_TOL                -0.1E+01
 PAO|                                  CHECK_GRADIENT_TOL               -0.1E+01
 PAO|                                  NUM_GRADIENT_ORDER                      2
 PAO|                                  NUM_GRADIENT_EPS                  0.1E-07
 PAO|                                  PRINT%RESTART%WRITE_CYCLES            100
 PAO|                                  RESTART_FILE 
 PAO|                                  PREOPT_DM_FILE 2H2O_ref_LS_DM_SPIN_1_RESTART.dm
 PAO|                                  MACHINE_LEARNING%METHOD        GAUSSIAN_P
 PAO|                                  MACHINE_LEARNING%PRIOR               ZERO
 PAO|                                  MACHINE_LEARNING%DESCRIPTOR     POTENTIAL
 PAO|                                  MACHINE_LEARNING%TOLERANCE        0.1E-01
 PAO|                                  MACHINE_LEARNING%GP_NOISE_VAR     0.1E+00
 PAO|                                  MACHINE_LEARNING%GP_SCALE         0.5E-01
 

 Calculating atomic Fock matrix for atomic kind: O

 Electronic structure
    Total number of core electrons                                          2.00
    Total number of valence electrons                                       6.00
    Total number of electrons                                               8.00
    Multiplicity                                                   not specified
    S   [  2.00] 2.00
    P      4.00


 *******************************************************************************
                  Iteration          Convergence                     Energy [au]
 *******************************************************************************
                          1        0.708315                     -15.576645311500
                          2        0.608879                     -15.587933561584
                          3        0.102828E-01                 -15.656849565404
                          4        0.113889E-02                 -15.656866888140
                          5        0.434197E-03                 -15.656867072159
                          6        0.263771E-03                 -15.656867091904
                          7        0.478536E-06                 -15.656867103452

 Energy components [Hartree]           Total Energy ::          -15.656867103452
                                        Band Energy ::           -3.000198112285
                                     Kinetic Energy ::           11.759971203220
                                   Potential Energy ::          -27.416838306672
                                      Virial (-V/T) ::            2.331369510426
                                        Core Energy ::          -26.140716385623
                                          XC Energy ::           -3.154051012914
                                     Coulomb Energy ::           13.637900295084
                       Total Pseudopotential Energy ::          -37.935781716540
                       Local Pseudopotential Energy ::          -39.218907440693
                    Nonlocal Pseudopotential Energy ::            1.283125724153
                                        Confinement ::            0.350941276976

 Orbital energies  State     L     Occupation   Energy[a.u.]          Energy[eV]

                       1     0          2.000      -0.864471          -23.523463

                       1     1          4.000      -0.317814           -8.648154


 Total Electron Density at R=0:                                         0.000068

 Calculating atomic Fock matrix for atomic kind: H

 Electronic structure
    Total number of core electrons                                          0.00
    Total number of valence electrons                                       1.00
    Total number of electrons                                               1.00
    Multiplicity                                                   not specified
    S      1.00


 *******************************************************************************
                  Iteration          Convergence                     Energy [au]
 *******************************************************************************
                          1        0.437545E-02                  -0.424159432110
                          2        0.531356E-03                  -0.424178438213
                          3        0.259176E-06                  -0.424178722480

 Energy components [Hartree]           Total Energy ::           -0.424178722480
                                        Band Energy ::           -0.199015229016
                                     Kinetic Energy ::            0.464007633961
                                   Potential Energy ::           -0.888186356441
                                      Virial (-V/T) ::            1.914163240935
                                        Core Energy ::           -0.479160803564
                                          XC Energy ::           -0.244352904054
                                     Coulomb Energy ::            0.299334985138
                       Total Pseudopotential Energy ::           -0.962295316385
                       Local Pseudopotential Energy ::           -0.962295316385
                    Nonlocal Pseudopotential Energy ::            0.000000000000
                                        Confinement ::            0.191268788606

 Orbital energies  State     L     Occupation   Energy[a.u.]          Energy[eV]

                       1     0          1.000      -0.199015           -5.415480


 Total Electron Density at R=0:                                         0.242907
 PAO| Made initial guess for matrix_X with norm:   4.8989794855663558     

     Lanczos converged:  T threshold:   0.100E-02
     Est. extremal eigenvalues:    0.335E+01   0.112E+00
     Est. condition number :    0.299E+02
     NS sqrt iter    1 1.00000000   0.819E+00       0.002       40.275
     NS sqrt iter    2 1.00000000   0.440E+00       0.002       63.030
     NS sqrt iter    3 1.00000000   0.171E+00       0.002       63.895
     NS sqrt iter    4 1.00000000   0.209E-01       0.002       64.747
     NS sqrt iter    5 1.00000000   0.575E-04       0.002       57.739
     Final NS sqrt iter    5 1.00000000   0.381E-08

 PAO| Read restart DM 2H2O_ref_LS_DM_SPIN_1_RESTART.dm with checksum:    53.491497991117605     
 PAO| Quickstep energy from restart density:  -34.450135447721330     
 PAO| ======================= Iteration:         1 =============================

     Lanczos converged:  T threshold:   0.100E-02
     Est. extremal eigenvalues:    0.335E+01   0.112E+00
     Est. condition number :    0.299E+02
     NS sqrt iter    1 1.00000000   0.819E+00       0.002       39.147
     NS sqrt iter    2 1.00000000   0.440E+00       0.002       64.404
     NS sqrt iter    3 1.00000000   0.171E+00       0.002       63.453
     NS sqrt iter    4 1.00000000   0.209E-01       0.002       64.157
     NS sqrt iter    5 1.00000000   0.575E-04       0.002       55.863
     Final NS sqrt iter    5 1.00000000   0.381E-08

     Est. extremal eigenvalues     -0.92090     1.92533  converged:  T
     TRS4 it   1 1.00000000   0.890E+00       0.001       16.128   0.100E-07
     TRS4 it   2 1.00000000   0.701E+00       0.001       32.256   0.100E-07
     TRS4 it   3 1.00000000   0.504E+00       0.001       32.256   0.100E-07
     TRS4 it   4 1.00000000   0.317E+00       0.001       32.256   0.100E-07
     TRS4 it   5 1.00000000   0.158E+00       0.001       32.256   0.100E-07
     TRS4 it   6 1.00000000   0.504E-01       0.001       32.256   0.100E-07
     TRS4 it   7 1.00000000   0.724E-02       0.001       32.256   0.100E-07
     TRS4 it   8 1.00000000   0.210E-03       0.001       32.256   0.100E-07
     TRS4 it   9 1.00000000   0.195E-06       0.001       32.256   0.100E-07
     TRS4 it  10 1.00000000   0.171E-12       0.001       32.256   0.100E-07
     Final TRS4 iteration   10 1.00000000   0.171E-12
     Chemical potential (mu):      -0.06692
 
 PAO| energy:  -7.6358929868837526      penalty:   4.9920104158517157E-033
 PAO|CG| warming up with steepest descent
 PAO|CG| beta:    0.0000000000000000     
 PAO| norm of gradient:  0.78325825966238016     
 PAO|LS| adapt:  T F F
 PAO|LS| adapt: scan_steps:    0.0000000000000000        0.0000000000000000        0.0000000000000000     
 PAO|LS| adapt: energies:   -7.6358929868837526        0.0000000000000000        0.0000000000000000     
 PAO| ======================= Iteration:         2 =============================

     Lanczos converged:  T threshold:   0.100E-02
     Est. extremal eigenvalues:    0.327E+01   0.125E+00
     Est. condition number :    0.262E+02
     NS sqrt iter    1 1.00000000   0.803E+00       0.002       41.313
     NS sqrt iter    2 1.00000000   0.425E+00       0.002       63.212
     NS sqrt iter    3 1.00000000   0.153E+00       0.002       64.651
     NS sqrt iter    4 1.00000000   0.145E-01       0.002       63.008
     NS sqrt iter    5 1.00000000   0.189E-04       0.002       51.267
     Final NS sqrt iter    5 1.00000000   0.550E-09

     Est. extremal eigenvalues     -0.92457     1.86893  converged:  T
     TRS4 it   1 1.00000000   0.887E+00       0.001       16.128   0.100E-07
     TRS4 it   2 1.00000000   0.683E+00       0.001       32.256   0.100E-07
     TRS4 it   3 1.00000000   0.489E+00       0.001       32.256   0.100E-07
     TRS4 it   4 1.00000000   0.297E+00       0.001       32.256   0.100E-07
     TRS4 it   5 1.00000000   0.139E+00       0.001       32.256   0.100E-07
     TRS4 it   6 1.00000000   0.392E-01       0.001       32.256   0.100E-07
     TRS4 it   7 1.00000000   0.443E-02       0.001       32.256   0.100E-07
     TRS4 it   8 1.00000000   0.790E-04       0.001       32.256   0.100E-07
     TRS4 it   9 1.00000000   0.277E-07       0.001       32.256   0.100E-07
     Final TRS4 iteration    9 1.00000000   0.277E-07
     Chemical potential (mu):      -0.05492
 
 PAO| energy:  -7.6913632040777253      penalty:   2.2469024831924049E-008
 PAO|LS| adapt:  T T F
 PAO|LS| adapt: scan_steps:    0.0000000000000000       0.10000000000000001        0.0000000000000000     
 PAO|LS| adapt: energies:   -7.6358929868837526       -7.6913632040777253        0.0000000000000000     
 PAO| ======================= Iteration:         3 =============================

     Lanczos converged:  T threshold:   0.100E-02
     Est. extremal eigenvalues:    0.318E+01   0.136E+00
     Est. condition number :    0.233E+02
     NS sqrt iter    1 1.00000000   0.786E+00       0.002       40.774
     NS sqrt iter    2 1.00000000   0.408E+00       0.002       63.949
     NS sqrt iter    3 1.00000000   0.136E+00       0.002       63.753
     NS sqrt iter    4 1.00000000   0.101E-01       0.002       64.134
     NS sqrt iter    5 1.00000000   0.647E-05       0.002       51.671
     Final NS sqrt iter    5 1.00000000   0.652E-10

     Est. extremal eigenvalues     -0.92800     1.82230  converged:  T
     TRS4 it   1 1.00000000   0.885E+00       0.001       16.128   0.100E-07
     TRS4 it   2 1.00000000   0.666E+00       0.001       32.256   0.100E-07
     TRS4 it   3 1.00000000   0.474E+00       0.001       32.256   0.100E-07
     TRS4 it   4 1.00000000   0.278E+00       0.001       32.256   0.100E-07
     TRS4 it   5 1.00000000   0.121E+00       0.001       32.256   0.100E-07
     TRS4 it   6 1.00000000   0.295E-01       0.001       32.256   0.100E-07
     TRS4 it   7 1.00000000   0.251E-02       0.001       32.256   0.100E-07
     TRS4 it   8 1.00000000   0.253E-04       0.001       32.256   0.100E-07
     TRS4 it   9 1.00000000   0.286E-08       0.001       32.256   0.100E-07
     Final TRS4 iteration    9 1.00000000   0.286E-08
     Chemical potential (mu):      -0.04194
 
 PAO| energy:  -7.7344175086210640      penalty:   3.5950463991014040E-007
 PAO|LS| adapt:  T T F
 PAO|LS| adapt: scan_steps:    0.0000000000000000       0.20000000000000001        0.0000000000000000     
 PAO|LS| adapt: energies:   -7.6358929868837526       -7.7344175086210640        0.0000000000000000     
 PAO| ======================= Iteration:         4 =============================

     Lanczos converged:  T threshold:   0.100E-02
     Est. extremal eigenvalues:    0.298E+01   0.155E+00
     Est. condition number :    0.193E+02
     NS sqrt iter    1 1.00000000   0.749E+00       0.002       40.961
     NS sqrt iter    2 1.00000000   0.374E+00       0.002       63.102
     NS sqrt iter    3 1.00000000   0.107E+00       0.002       64.180
     NS sqrt iter    4 1.00000000   0.495E-02       0.002       63.596
     NS sqrt iter    5 1.00000000   0.927E-06       0.002       50.968
     Final NS sqrt iter    5 1.00000000   0.143E-11

     Est. extremal eigenvalues     -0.93334     1.75186  converged:  T
     TRS4 it   1 1.00000000   0.879E+00       0.001       16.128   0.100E-07
     TRS4 it   2 1.00000000   0.638E+00       0.001       32.256   0.100E-07
     TRS4 it   3 1.00000000   0.444E+00       0.001       32.256   0.100E-07
     TRS4 it   4 1.00000000   0.242E+00       0.001       32.256   0.100E-07
     TRS4 it   5 1.00000000   0.890E-01       0.001       32.256   0.100E-07
     TRS4 it   6 1.00000000   0.155E-01       0.001       32.256   0.100E-07
     TRS4 it   7 1.00000000   0.654E-03       0.001       32.256   0.100E-07
     TRS4 it   8 1.00000000   0.167E-05       0.001       32.256   0.100E-07
     TRS4 it   9 1.00000000   0.125E-10       0.001       32.256   0.100E-07
     Final TRS4 iteration    9 1.00000000   0.125E-10
     Chemical potential (mu):      -0.01320
 
 PAO| energy:  -7.7816568217027395      penalty:   5.7520761793678279E-006
 PAO|LS| Need extra step
 PAO|LS| adapt:  T T F
 PAO|LS| adapt: scan_steps:    0.0000000000000000       0.40000000000000002        0.0000000000000000     
 PAO|LS| adapt: energies:   -7.6358929868837526       -7.7816568217027395        0.0000000000000000     
 PAO| ======================= Iteration:         5 =============================

     Lanczos converged:  T threshold:   0.100E-02
     Est. extremal eigenvalues:    0.263E+01   0.183E+00
     Est. condition number :    0.144E+02
     NS sqrt iter    1 1.00000000   0.687E+00       0.002       41.072
     NS sqrt iter    2 1.00000000   0.313E+00       0.002       63.540
     NS sqrt iter    3 1.00000000   0.663E-01       0.002       64.472
     NS sqrt iter    4 1.00000000   0.137E-02       0.002       63.915
     NS sqrt iter    5 1.00000000   0.245E-07       0.002       38.312
     Final NS sqrt iter    5 1.00000000   0.315E-08

     Est. extremal eigenvalues     -0.93460     1.66784  converged:  T
     TRS4 it   1 1.00000000   0.871E+00       0.001       16.128   0.100E-07
     TRS4 it   2 1.00000000   0.598E+00       0.001       32.256   0.100E-07
     TRS4 it   3 1.00000000   0.395E+00       0.001       32.256   0.100E-07
     TRS4 it   4 1.00000000   0.183E+00       0.001       32.256   0.100E-07
     TRS4 it   5 1.00000000   0.478E-01       0.001       32.256   0.100E-07
     TRS4 it   6 1.00000000   0.401E-02       0.001       32.256   0.100E-07
     TRS4 it   7 1.00000000   0.365E-04       0.001       32.256   0.100E-07
     TRS4 it   8 1.00000000   0.387E-08       0.001       32.256   0.100E-07
     Final TRS4 iteration    8 1.00000000   0.387E-08
     Chemical potential (mu):       0.03697
 
 PAO| energy:  -7.7268736440023487      penalty:   9.2033234396372393E-005
 PAO|LS| Need extra step
 PAO|LS| adapt:  T T T
 PAO|LS| adapt: scan_steps:    0.0000000000000000       0.40000000000000002       0.80000000000000004     
 PAO|LS| adapt: energies:   -7.6358929868837526       -7.7816568217027395       -7.7268736440023487     
 PAO|LS| adapt: suggested step_size:   0.49073249805683850     
 PAO|LS| adapt: predicted energy  -7.7868161356372543     
 PAO| ======================= Iteration:         6 =============================

     Lanczos converged:  T threshold:   0.100E-02
     Est. extremal eigenvalues:    0.290E+01   0.162E+00
     Est. condition number :    0.179E+02
     NS sqrt iter    1 1.00000000   0.733E+00       0.002       40.874
     NS sqrt iter    2 1.00000000   0.359E+00       0.002       63.476
     NS sqrt iter    3 1.00000000   0.955E-01       0.002       63.489
     NS sqrt iter    4 1.00000000   0.365E-02       0.002       64.305
     NS sqrt iter    5 1.00000000   0.402E-06       0.002       51.576
     Final NS sqrt iter    5 1.00000000   0.141E-09

     Est. extremal eigenvalues     -0.93483     1.72748  converged:  T
     TRS4 it   1 1.00000000   0.877E+00       0.001       16.128   0.100E-07
     TRS4 it   2 1.00000000   0.627E+00       0.001       32.256   0.100E-07
     TRS4 it   3 1.00000000   0.432E+00       0.001       32.256   0.100E-07
     TRS4 it   4 1.00000000   0.226E+00       0.001       32.256   0.100E-07
     TRS4 it   5 1.00000000   0.770E-01       0.001       32.256   0.100E-07
     TRS4 it   6 1.00000000   0.113E-01       0.001       32.256   0.100E-07
     TRS4 it   7 1.00000000   0.332E-03       0.001       32.256   0.100E-07
     TRS4 it   8 1.00000000   0.412E-06       0.001       32.256   0.100E-07
     TRS4 it   9 1.00000000   0.748E-12       0.001       32.256   0.100E-07
     Final TRS4 iteration    9 1.00000000   0.748E-12
     Chemical potential (mu):       0.00080
 
 PAO| energy:  -7.7861007145385228      penalty:   1.3030586657057613E-005
 PAO|CG| warming up with steepest descent
 PAO|CG| beta:    0.0000000000000000     
 PAO| norm of gradient:  0.41715998953219008     
 PAO| energy improvement: -0.15020772765477020     
 PAO| step      6                   -7.786100715  0.261E-01  0.491E+00     0.130
 PAO|LS| adapt:  T F F
 PAO|LS| adapt: scan_steps:    0.0000000000000000        0.0000000000000000        0.0000000000000000     
 PAO|LS| adapt: energies:   -7.7861007145385228        0.0000000000000000        0.0000000000000000     
 PAO| ======================= Iteration:         7 =============================

     Lanczos converged:  T threshold:   0.100E-02
     Est. extremal eigenvalues:    0.281E+01   0.175E+00
     Est. condition number :    0.160E+02
     NS sqrt iter    1 1.00000000   0.716E+00       0.002       40.983
     NS sqrt iter    2 1.00000000   0.339E+00       0.002       63.888
     NS sqrt iter    3 1.00000000   0.801E-01       0.002       64.459
     NS sqrt iter    4 1.00000000   0.224E-02       0.002       64.190
     NS sqrt iter    5 1.00000000   0.104E-06       0.002       48.751
     Final NS sqrt iter    5 1.00000000   0.109E-08

     Est. extremal eigenvalues     -0.93656     1.71369  converged:  T
     TRS4 it   1 1.00000000   0.876E+00       0.001       16.128   0.100E-07
     TRS4 it   2 1.00000000   0.625E+00       0.001       32.256   0.100E-07
     TRS4 it   3 1.00000000   0.432E+00       0.001       32.256   0.100E-07
     TRS4 it   4 1.00000000   0.227E+00       0.001       32.256   0.100E-07
     TRS4 it   5 1.00000000   0.776E-01       0.001       32.256   0.100E-07
     TRS4 it   6 1.00000000   0.112E-01       0.001       32.256   0.100E-07
     TRS4 it   7 1.00000000   0.309E-03       0.001       32.256   0.100E-07
     TRS4 it   8 1.00000000   0.340E-06       0.001       32.256   0.100E-07
     TRS4 it   9 1.00000000   0.503E-12       0.001       32.256   0.100E-07
     Final TRS4 iteration    9 1.00000000   0.503E-12
     Chemical potential (mu):       0.00282
 
 PAO| energy:  -7.7803192313840945      penalty:   1.9740075004216882E-005
 PAO|LS| adapt:  T F T
 PAO|LS| adapt: scan_steps:    0.0000000000000000        0.0000000000000000       0.49073249805683850     
 PAO|LS| adapt: energies:   -7.7861007145385228        0.0000000000000000       -7.7803192313840945     
 PAO| ======================= Iteration:         8 =============================

     Lanczos converged:  T threshold:   0.100E-02
     Est. extremal eigenvalues:    0.285E+01   0.168E+00
     Est. condition number :    0.170E+02
     NS sqrt iter    1 1.00000000   0.725E+00       0.002       40.599
     NS sqrt iter    2 1.00000000   0.349E+00       0.002       63.742
     NS sqrt iter    3 1.00000000   0.876E-01       0.002       64.172
     NS sqrt iter    4 1.00000000   0.287E-02       0.002       63.964
     NS sqrt iter    5 1.00000000   0.208E-06       0.002       50.006
     Final NS sqrt iter    5 1.00000000   0.809E-09

     Est. extremal eigenvalues     -0.93664     1.71995  converged:  T
     TRS4 it   1 1.00000000   0.876E+00       0.001       16.128   0.100E-07
     TRS4 it   2 1.00000000   0.626E+00       0.001       32.256   0.100E-07
     TRS4 it   3 1.00000000   0.431E+00       0.001       32.256   0.100E-07
     TRS4 it   4 1.00000000   0.226E+00       0.001       32.256   0.100E-07
     TRS4 it   5 1.00000000   0.771E-01       0.001       32.256   0.100E-07
     TRS4 it   6 1.00000000   0.113E-01       0.001       32.256   0.100E-07
     TRS4 it   7 1.00000000   0.329E-03       0.001       32.256   0.100E-07
     TRS4 it   8 1.00000000   0.398E-06       0.001       32.256   0.100E-07
     TRS4 it   9 1.00000000   0.696E-12       0.001       32.256   0.100E-07
     Final TRS4 iteration    9 1.00000000   0.696E-12
     Chemical potential (mu):       0.00131
 
 PAO| energy:  -7.8057663252872569      penalty:   1.4132955577223181E-005
 PAO|LS| adapt:  T T T
 PAO|LS| adapt: scan_steps:    0.0000000000000000       0.24536624902841925       0.49073249805683850     
 PAO|LS| adapt: energies:   -7.7861007145385228       -7.8057663252872569       -7.7803192313840945     
 PAO|LS| adapt: suggested step_size:   0.22964361782763815     
 PAO|LS| adapt: predicted energy  -7.8058589420670614     
 PAO| ======================= Iteration:         9 =============================

     Lanczos converged:  T threshold:   0.100E-02
     Est. extremal eigenvalues:    0.286E+01   0.168E+00
     Est. condition number :    0.170E+02
     NS sqrt iter    1 1.00000000   0.725E+00       0.002       40.593
     NS sqrt iter    2 1.00000000   0.350E+00       0.002       64.259
     NS sqrt iter    3 1.00000000   0.881E-01       0.002       64.106
     NS sqrt iter    4 1.00000000   0.292E-02       0.002       64.756
     NS sqrt iter    5 1.00000000   0.218E-06       0.002       49.925
     Final NS sqrt iter    5 1.00000000   0.833E-09

     Est. extremal eigenvalues     -0.93658     1.72039  converged:  T
     TRS4 it   1 1.00000000   0.876E+00       0.001       16.128   0.100E-07
     TRS4 it   2 1.00000000   0.626E+00       0.001       32.256   0.100E-07
     TRS4 it   3 1.00000000   0.431E+00       0.001       32.256   0.100E-07
     TRS4 it   4 1.00000000   0.226E+00       0.001       32.256   0.100E-07
     TRS4 it   5 1.00000000   0.771E-01       0.001       32.256   0.100E-07
     TRS4 it   6 1.00000000   0.113E-01       0.001       32.256   0.100E-07
     TRS4 it   7 1.00000000   0.330E-03       0.001       32.256   0.100E-07
     TRS4 it   8 1.00000000   0.400E-06       0.001       31.877   0.100E-07
     TRS4 it   9 1.00000000   0.704E-12       0.001       32.256   0.100E-07
     Final TRS4 iteration    9 1.00000000   0.704E-12
     Chemical potential (mu):       0.00124
 
 PAO| energy:  -7.8058823736021861      penalty:   1.3964695376461174E-005
 PAO|CG| trace_G_new    3.6920408967065374E-002
 PAO|CG| trace_G_prev   0.17402245686649695     
 PAO|CG| trace_G_mix   -1.4440277691286645E-003
 PAO|CG| trace_D   0.17402245686649695     
 PAO|CG| trace_D_Gnew   1.4440277691286645E-003
 PAO|CG| beta:   0.22045681590178728     
 PAO| norm of gradient:  0.19214684219904676     
 PAO| energy improvement:  -1.9781659063663248E-002
 PAO| step      9                   -7.805882374  0.120E-01  0.230E+00     0.082
 PAO|LS| adapt:  T F F
 PAO|LS| adapt: scan_steps:    0.0000000000000000        0.0000000000000000        0.0000000000000000     
 PAO|LS| adapt: energies:   -7.8058823736021861        0.0000000000000000        0.0000000000000000     
 PAO| ======================= Iteration:        10 =============================

     Lanczos converged:  T threshold:   0.100E-02
     Est. extremal eigenvalues:    0.282E+01   0.174E+00
     Est. condition number :    0.162E+02
     NS sqrt iter    1 1.00000000   0.718E+00       0.002       40.744
     NS sqrt iter    2 1.00000000   0.341E+00       0.002       62.996
     NS sqrt iter    3 1.00000000   0.825E-01       0.002       64.717
     NS sqrt iter    4 1.00000000   0.240E-02       0.002       63.413
     NS sqrt iter    5 1.00000000   0.121E-06       0.002       48.453
     Final NS sqrt iter    5 1.00000000   0.125E-08

     Est. extremal eigenvalues     -0.93747     1.71303  converged:  T
     TRS4 it   1 1.00000000   0.873E+00       0.001       16.128   0.100E-07
     TRS4 it   2 1.00000000   0.623E+00       0.001       32.256   0.100E-07
     TRS4 it   3 1.00000000   0.429E+00       0.001       32.256   0.100E-07
     TRS4 it   4 1.00000000   0.223E+00       0.001       32.256   0.100E-07
     TRS4 it   5 1.00000000   0.747E-01       0.001       32.256   0.100E-07
     TRS4 it   6 1.00000000   0.106E-01       0.001       32.256   0.100E-07
     TRS4 it   7 1.00000000   0.283E-03       0.001       32.256   0.100E-07
     TRS4 it   8 1.00000000   0.288E-06       0.001       32.256   0.100E-07
     TRS4 it   9 1.00000000   0.360E-12       0.001       32.256   0.100E-07
     Final TRS4 iteration    9 1.00000000   0.360E-12
     Chemical potential (mu):       0.00450
 
 PAO| energy:  -7.8109235158205239      penalty:   1.4507868753721334E-005
 PAO|LS| adapt:  T T F
 PAO|LS| adapt: scan_steps:    0.0000000000000000       0.22964361782763815        0.0000000000000000     
 PAO|LS| adapt: energies:   -7.8058823736021861       -7.8109235158205239        0.0000000000000000     
 PAO| ======================= Iteration:        11 =============================

     Lanczos converged:  T threshold:   0.100E-02
     Est. extremal eigenvalues:    0.278E+01   0.180E+00
     Est. condition number :    0.155E+02
     NS sqrt iter    1 1.00000000   0.710E+00       0.002       41.035
     NS sqrt iter    2 1.00000000   0.333E+00       0.002       63.166
     NS sqrt iter    3 1.00000000   0.771E-01       0.002       64.709
     NS sqrt iter    4 1.00000000   0.197E-02       0.002       63.223
     NS sqrt iter    5 1.00000000   0.658E-07       0.002       47.209
     Final NS sqrt iter    5 1.00000000   0.533E-09

     Est. extremal eigenvalues     -0.93738     1.70699  converged:  T
     TRS4 it   1 1.00000000   0.871E+00       0.001       16.128   0.100E-07
     TRS4 it   2 1.00000000   0.621E+00       0.001       32.256   0.100E-07
     TRS4 it   3 1.00000000   0.426E+00       0.001       32.256   0.100E-07
     TRS4 it   4 1.00000000   0.220E+00       0.001       32.256   0.100E-07
     TRS4 it   5 1.00000000   0.724E-01       0.001       32.256   0.100E-07
     TRS4 it   6 1.00000000   0.985E-02       0.001       32.256   0.100E-07
     TRS4 it   7 1.00000000   0.242E-03       0.001       32.256   0.100E-07
     TRS4 it   8 1.00000000   0.205E-06       0.001       32.256   0.100E-07
     TRS4 it   9 1.00000000   0.179E-12       0.001       32.256   0.100E-07
     Final TRS4 iteration    9 1.00000000   0.179E-12
     Chemical potential (mu):       0.00788
 
 PAO| energy:  -7.8094808295712612      penalty:   1.5723845280165681E-005
 PAO|LS| adapt:  T T T
 PAO|LS| adapt: scan_steps:    0.0000000000000000       0.22964361782763815       0.45928723565527629     
 PAO|LS| adapt: energies:   -7.8058823736021861       -7.8109235158205239       -7.8094808295712612     
 PAO|LS| adapt: suggested step_size:   0.29336850285977473     
 PAO|LS| adapt: predicted energy  -7.8111731539283573     
 PAO| ======================= Iteration:        12 =============================

     Lanczos converged:  T threshold:   0.100E-02
     Est. extremal eigenvalues:    0.281E+01   0.175E+00
     Est. condition number :    0.160E+02
     NS sqrt iter    1 1.00000000   0.716E+00       0.002       40.725
     NS sqrt iter    2 1.00000000   0.339E+00       0.002       64.111
     NS sqrt iter    3 1.00000000   0.810E-01       0.002       64.633
     NS sqrt iter    4 1.00000000   0.227E-02       0.002       63.589
     NS sqrt iter    5 1.00000000   0.102E-06       0.002       48.772
     Final NS sqrt iter    5 1.00000000   0.106E-08

     Est. extremal eigenvalues     -0.93754     1.71122  converged:  T
     TRS4 it   1 1.00000000   0.873E+00       0.001       16.128   0.100E-07
     TRS4 it   2 1.00000000   0.623E+00       0.001       32.256   0.100E-07
     TRS4 it   3 1.00000000   0.428E+00       0.001       32.256   0.100E-07
     TRS4 it   4 1.00000000   0.222E+00       0.001       32.256   0.100E-07
     TRS4 it   5 1.00000000   0.741E-01       0.001       32.256   0.100E-07
     TRS4 it   6 1.00000000   0.104E-01       0.001       32.256   0.100E-07
     TRS4 it   7 1.00000000   0.271E-03       0.001       32.256   0.100E-07
     TRS4 it   8 1.00000000   0.262E-06       0.001       32.256   0.100E-07
     TRS4 it   9 1.00000000   0.297E-12       0.001       32.256   0.100E-07
     Final TRS4 iteration    9 1.00000000   0.297E-12
     Chemical potential (mu):       0.00543
 
 PAO| energy:  -7.8111570636092686      penalty:   1.4770220787819916E-005
 PAO|CG| trace_G_new    1.1829652537618040E-002
 PAO|CG| trace_G_prev    3.6920408967065374E-002
 PAO|CG| trace_G_mix   -4.6029797464909703E-004
 PAO|CG| trace_D    4.4741419005680509E-002
 PAO|CG| trace_D_Gnew   2.1155127696263158E-004
 PAO|CG| beta:   0.33287687910581687     
 PAO| norm of gradient:  0.10876420614162566     
 PAO| energy improvement:  -5.2746900070825831E-003
 PAO| step     12                   -7.811157064  0.680E-02  0.293E+00     0.082
 PAO|LS| adapt:  T F F
 PAO|LS| adapt: scan_steps:    0.0000000000000000        0.0000000000000000        0.0000000000000000     
 PAO|LS| adapt: energies:   -7.8111570636092686        0.0000000000000000        0.0000000000000000     
 PAO| ======================= Iteration:        13 =============================

     Lanczos converged:  T threshold:   0.100E-02
     Est. extremal eigenvalues:    0.278E+01   0.180E+00
     Est. condition number :    0.155E+02
     NS sqrt iter    1 1.00000000   0.709E+00       0.002       40.389
     NS sqrt iter    2 1.00000000   0.332E+00       0.002       64.741
     NS sqrt iter    3 1.00000000   0.767E-01       0.002       63.631
     NS sqrt iter    4 1.00000000   0.194E-02       0.002       64.017
     NS sqrt iter    5 1.00000000   0.642E-07       0.002       47.149
     Final NS sqrt iter    5 1.00000000   0.532E-09

     Est. extremal eigenvalues     -0.93803     1.70379  converged:  T
     TRS4 it   1 1.00000000   0.872E+00       0.001       16.128   0.100E-07
     TRS4 it   2 1.00000000   0.619E+00       0.001       32.256   0.100E-07
     TRS4 it   3 1.00000000   0.424E+00       0.001       32.256   0.100E-07
     TRS4 it   4 1.00000000   0.217E+00       0.001       32.256   0.100E-07
     TRS4 it   5 1.00000000   0.704E-01       0.001       32.256   0.100E-07
     TRS4 it   6 1.00000000   0.930E-02       0.001       32.256   0.100E-07
     TRS4 it   7 1.00000000   0.215E-03       0.001       32.256   0.100E-07
     TRS4 it   8 1.00000000   0.161E-06       0.001       32.256   0.100E-07
     TRS4 it   9 1.00000000   0.110E-12       0.001       32.256   0.100E-07
     Final TRS4 iteration    9 1.00000000   0.110E-12
     Chemical potential (mu):       0.01007
 
 PAO| energy:  -7.8132232552114793      penalty:   1.5078460523556793E-005
 PAO|LS| adapt:  T T F
 PAO|LS| adapt: scan_steps:    0.0000000000000000       0.29336850285977473        0.0000000000000000     
 PAO|LS| adapt: energies:   -7.8111570636092686       -7.8132232552114793        0.0000000000000000     
 PAO| ======================= Iteration:        14 =============================

     Lanczos converged:  T threshold:   0.100E-02
     Est. extremal eigenvalues:    0.274E+01   0.184E+00
     Est. condition number :    0.149E+02
     NS sqrt iter    1 1.00000000   0.702E+00       0.002       39.876
     NS sqrt iter    2 1.00000000   0.325E+00       0.002       64.196
     NS sqrt iter    3 1.00000000   0.726E-01       0.002       63.926
     NS sqrt iter    4 1.00000000   0.166E-02       0.002       64.521
     NS sqrt iter    5 1.00000000   0.404E-07       0.002       44.028
     Final NS sqrt iter    5 1.00000000   0.421E-09

     Est. extremal eigenvalues     -0.93800     1.69675  converged:  T
     TRS4 it   1 1.00000000   0.871E+00       0.001       16.128   0.100E-07
     TRS4 it   2 1.00000000   0.616E+00       0.001       32.256   0.100E-07
     TRS4 it   3 1.00000000   0.420E+00       0.001       32.256   0.100E-07
     TRS4 it   4 1.00000000   0.212E+00       0.001       32.256   0.100E-07
     TRS4 it   5 1.00000000   0.670E-01       0.001       32.256   0.100E-07
     TRS4 it   6 1.00000000   0.835E-02       0.001       32.256   0.100E-07
     TRS4 it   7 1.00000000   0.171E-03       0.001       32.256   0.100E-07
     TRS4 it   8 1.00000000   0.984E-07       0.001       32.256   0.100E-07
     TRS4 it   9 1.00000000   0.406E-13       0.001       32.256   0.100E-07
     Final TRS4 iteration    9 1.00000000   0.406E-13
     Chemical potential (mu):       0.01462
 
 PAO| energy:  -7.8125717840047644      penalty:   1.5865994477436366E-005
 PAO|LS| adapt:  T T T
 PAO|LS| adapt: scan_steps:    0.0000000000000000       0.29336850285977473       0.58673700571954945     
 PAO|LS| adapt: energies:   -7.8111570636092686       -7.8132232552114793       -7.8125717840047644     
 PAO|LS| adapt: suggested step_size:   0.36972720398867770     
 PAO|LS| adapt: predicted energy  -7.8133153119684318     
 PAO| ======================= Iteration:        15 =============================

     Lanczos converged:  T threshold:   0.100E-02
     Est. extremal eigenvalues:    0.277E+01   0.181E+00
     Est. condition number :    0.153E+02
     NS sqrt iter    1 1.00000000   0.707E+00       0.002       37.125
     NS sqrt iter    2 1.00000000   0.330E+00       0.002       63.379
     NS sqrt iter    3 1.00000000   0.756E-01       0.002       64.127
     NS sqrt iter    4 1.00000000   0.186E-02       0.002       64.592
     NS sqrt iter    5 1.00000000   0.569E-07       0.002       45.469
     Final NS sqrt iter    5 1.00000000   0.534E-09

     Est. extremal eigenvalues     -0.93807     1.70192  converged:  T
     TRS4 it   1 1.00000000   0.872E+00       0.001       16.128   0.100E-07
     TRS4 it   2 1.00000000   0.618E+00       0.001       32.256   0.100E-07
     TRS4 it   3 1.00000000   0.423E+00       0.001       32.256   0.100E-07
     TRS4 it   4 1.00000000   0.216E+00       0.001       32.256   0.100E-07
     TRS4 it   5 1.00000000   0.695E-01       0.001       32.256   0.100E-07
     TRS4 it   6 1.00000000   0.904E-02       0.001       32.256   0.100E-07
     TRS4 it   7 1.00000000   0.203E-03       0.001       32.256   0.100E-07
     TRS4 it   8 1.00000000   0.141E-06       0.001       32.256   0.100E-07
     TRS4 it   9 1.00000000   0.850E-13       0.001       32.256   0.100E-07
     Final TRS4 iteration    9 1.00000000   0.850E-13
     Chemical potential (mu):       0.01126
 
 PAO| energy:  -7.8133122816958815      penalty:   1.5234270909718727E-005
 PAO|CG| trace_G_new    2.6144312644163603E-003
 PAO|CG| trace_G_prev    1.1829652537618040E-002
 PAO|CG| trace_G_mix    6.6056120954135914E-005
 PAO|CG| trace_D    1.6646474640329801E-002
 PAO|CG| trace_D_Gnew   3.4005799719024588E-005
 PAO|CG| beta:   0.21542265382338543     
 PAO| norm of gradient:   5.1131509506529928E-002
 PAO| energy improvement:  -2.1552180866128978E-003
 PAO| step     15                   -7.813312282  0.320E-02  0.370E+00     0.082
 PAO|LS| adapt:  T F F
 PAO|LS| adapt: scan_steps:    0.0000000000000000        0.0000000000000000        0.0000000000000000     
 PAO|LS| adapt: energies:   -7.8133122816958815        0.0000000000000000        0.0000000000000000     
 PAO| ======================= Iteration:        16 =============================

     Lanczos converged:  T threshold:   0.100E-02
     Est. extremal eigenvalues:    0.276E+01   0.181E+00
     Est. condition number :    0.152E+02
     NS sqrt iter    1 1.00000000   0.705E+00       0.002       40.963
     NS sqrt iter    2 1.00000000   0.329E+00       0.002       63.394
     NS sqrt iter    3 1.00000000   0.749E-01       0.002       64.061
     NS sqrt iter    4 1.00000000   0.181E-02       0.002       64.766
     NS sqrt iter    5 1.00000000   0.522E-07       0.002       45.762
     Final NS sqrt iter    5 1.00000000   0.487E-09

     Est. extremal eigenvalues     -0.93810     1.70129  converged:  T
     TRS4 it   1 1.00000000   0.872E+00       0.001       16.128   0.100E-07
     TRS4 it   2 1.00000000   0.618E+00       0.001       32.256   0.100E-07
     TRS4 it   3 1.00000000   0.421E+00       0.001       32.256   0.100E-07
     TRS4 it   4 1.00000000   0.214E+00       0.001       32.256   0.100E-07
     TRS4 it   5 1.00000000   0.684E-01       0.001       32.256   0.100E-07
     TRS4 it   6 1.00000000   0.875E-02       0.001       32.256   0.100E-07
     TRS4 it   7 1.00000000   0.191E-03       0.001       32.256   0.100E-07
     TRS4 it   8 1.00000000   0.127E-06       0.001       32.256   0.100E-07
     TRS4 it   9 1.00000000   0.688E-13       0.001       32.256   0.100E-07
     Final TRS4 iteration    9 1.00000000   0.688E-13
     Chemical potential (mu):       0.01210
 
 PAO| energy:  -7.8134398326027119      penalty:   1.5015335479236966E-005
 PAO|LS| adapt:  T T F
 PAO|LS| adapt: scan_steps:    0.0000000000000000       0.36972720398867770        0.0000000000000000     
 PAO|LS| adapt: energies:   -7.8133122816958815       -7.8134398326027119        0.0000000000000000     
 PAO| ======================= Iteration:        17 =============================

     Lanczos converged:  T threshold:   0.100E-02
     Est. extremal eigenvalues:    0.275E+01   0.182E+00
     Est. condition number :    0.151E+02
     NS sqrt iter    1 1.00000000   0.703E+00       0.002       40.979
     NS sqrt iter    2 1.00000000   0.328E+00       0.002       63.397
     NS sqrt iter    3 1.00000000   0.743E-01       0.002       64.368
     NS sqrt iter    4 1.00000000   0.176E-02       0.002       63.581
     NS sqrt iter    5 1.00000000   0.480E-07       0.002       45.852
     Final NS sqrt iter    5 1.00000000   0.454E-09

     Est. extremal eigenvalues     -0.93800     1.70072  converged:  T
     TRS4 it   1 1.00000000   0.872E+00       0.001       16.128   0.100E-07
     TRS4 it   2 1.00000000   0.617E+00       0.001       32.256   0.100E-07
     TRS4 it   3 1.00000000   0.420E+00       0.001       32.256   0.100E-07
     TRS4 it   4 1.00000000   0.213E+00       0.001       32.256   0.100E-07
     TRS4 it   5 1.00000000   0.673E-01       0.001       32.256   0.100E-07
     TRS4 it   6 1.00000000   0.848E-02       0.001       32.256   0.100E-07
     TRS4 it   7 1.00000000   0.180E-03       0.001       32.256   0.100E-07
     TRS4 it   8 1.00000000   0.114E-06       0.001       32.256   0.100E-07
     TRS4 it   9 1.00000000   0.553E-13       0.001       32.256   0.100E-07
     Final TRS4 iteration    9 1.00000000   0.553E-13
     Chemical potential (mu):       0.01292
 
 PAO| energy:  -7.8118890590987817      penalty:   1.4921238218755526E-005
 PAO|LS| adapt:  T T T
 PAO|LS| adapt: scan_steps:    0.0000000000000000       0.36972720398867770       0.73945440797735540     
 PAO|LS| adapt: energies:   -7.8133122816958815       -7.8134398326027119       -7.8118890590987817     
 PAO|LS| adapt: suggested step_size:   0.21296248433570969     
 PAO|LS| adapt: predicted energy  -7.8135906945686635     
 PAO| ======================= Iteration:        18 =============================

     Lanczos converged:  T threshold:   0.100E-02
     Est. extremal eigenvalues:    0.276E+01   0.181E+00
     Est. condition number :    0.153E+02
     NS sqrt iter    1 1.00000000   0.706E+00       0.002       40.916
     NS sqrt iter    2 1.00000000   0.330E+00       0.002       64.395
     NS sqrt iter    3 1.00000000   0.752E-01       0.002       64.501
     NS sqrt iter    4 1.00000000   0.183E-02       0.002       63.827
     NS sqrt iter    5 1.00000000   0.542E-07       0.002       46.201
     Final NS sqrt iter    5 1.00000000   0.626E-09

     Est. extremal eigenvalues     -0.93810     1.70155  converged:  T
     TRS4 it   1 1.00000000   0.872E+00       0.001       16.128   0.100E-07
     TRS4 it   2 1.00000000   0.618E+00       0.001       32.256   0.100E-07
     TRS4 it   3 1.00000000   0.422E+00       0.001       32.256   0.100E-07
     TRS4 it   4 1.00000000   0.215E+00       0.001       32.256   0.100E-07
     TRS4 it   5 1.00000000   0.688E-01       0.001       32.256   0.100E-07
     TRS4 it   6 1.00000000   0.887E-02       0.001       32.256   0.100E-07
     TRS4 it   7 1.00000000   0.196E-03       0.001       32.256   0.100E-07
     TRS4 it   8 1.00000000   0.133E-06       0.001       32.256   0.100E-07
     TRS4 it   9 1.00000000   0.754E-13       0.001       32.256   0.100E-07
     Final TRS4 iteration    9 1.00000000   0.754E-13
     Chemical potential (mu):       0.01175
 
 PAO| energy:  -7.8135902344884691      penalty:   1.5093189949854534E-005
 PAO|CG| trace_G_new    7.2651025041536258E-004
 PAO|CG| trace_G_prev    2.6144312644163603E-003
 PAO|CG| trace_G_mix    1.5897679452656051E-006
 PAO|CG| trace_D    3.3722916384333950E-003
 PAO|CG| trace_D_Gnew  -1.7907798591729647E-006
 PAO|CG| beta:   0.27727655048216637     
 PAO| norm of gradient:   2.6953854092047071E-002
 PAO| energy improvement:  -2.7795279258757688E-004
 PAO| step     18                   -7.813590234  0.168E-02  0.213E+00     0.082
 PAO|LS| adapt:  T F F
 PAO|LS| adapt: scan_steps:    0.0000000000000000        0.0000000000000000        0.0000000000000000     
 PAO|LS| adapt: energies:   -7.8135902344884691        0.0000000000000000        0.0000000000000000     
 PAO| ======================= Iteration:        19 =============================

     Lanczos converged:  T threshold:   0.100E-02
     Est. extremal eigenvalues:    0.276E+01   0.181E+00
     Est. condition number :    0.153E+02
     NS sqrt iter    1 1.00000000   0.706E+00       0.002       40.141
     NS sqrt iter    2 1.00000000   0.330E+00       0.002       64.336
     NS sqrt iter    3 1.00000000   0.754E-01       0.002       63.314
     NS sqrt iter    4 1.00000000   0.184E-02       0.002       63.442
     NS sqrt iter    5 1.00000000   0.548E-07       0.002       46.247
     Final NS sqrt iter    5 1.00000000   0.524E-09

     Est. extremal eigenvalues     -0.93810     1.70173  converged:  T
     TRS4 it   1 1.00000000   0.872E+00       0.001       16.128   0.100E-07
     TRS4 it   2 1.00000000   0.618E+00       0.001       32.256   0.100E-07
     TRS4 it   3 1.00000000   0.422E+00       0.001       32.256   0.100E-07
     TRS4 it   4 1.00000000   0.215E+00       0.001       32.256   0.100E-07
     TRS4 it   5 1.00000000   0.687E-01       0.001       32.256   0.100E-07
     TRS4 it   6 1.00000000   0.886E-02       0.001       32.256   0.100E-07
     TRS4 it   7 1.00000000   0.197E-03       0.001       32.256   0.100E-07
     TRS4 it   8 1.00000000   0.135E-06       0.001       32.256   0.100E-07
     TRS4 it   9 1.00000000   0.780E-13       0.001       32.256   0.100E-07
     Final TRS4 iteration    9 1.00000000   0.780E-13
     Chemical potential (mu):       0.01146
 
 PAO| energy:  -7.8137082905454847      penalty:   1.4803650940876824E-005
 PAO|LS| adapt:  T T F
 PAO|LS| adapt: scan_steps:    0.0000000000000000       0.21296248433570969        0.0000000000000000     
 PAO|LS| adapt: energies:   -7.8135902344884691       -7.8137082905454847        0.0000000000000000     
 PAO| ======================= Iteration:        20 =============================

     Lanczos converged:  T threshold:   0.100E-02
     Est. extremal eigenvalues:    0.276E+01   0.181E+00
     Est. condition number :    0.153E+02
     NS sqrt iter    1 1.00000000   0.706E+00       0.002       39.739
     NS sqrt iter    2 1.00000000   0.330E+00       0.002       63.885
     NS sqrt iter    3 1.00000000   0.756E-01       0.002       60.550
     NS sqrt iter    4 1.00000000   0.185E-02       0.002       63.137
     NS sqrt iter    5 1.00000000   0.555E-07       0.001       53.884
     Final NS sqrt iter    5 1.00000000   0.528E-09

     Est. extremal eigenvalues     -0.93810     1.70191  converged:  T
     TRS4 it   1 1.00000000   0.872E+00       0.001       16.128   0.100E-07
     TRS4 it   2 1.00000000   0.618E+00       0.001       32.256   0.100E-07
     TRS4 it   3 1.00000000   0.422E+00       0.001       32.256   0.100E-07
     TRS4 it   4 1.00000000   0.214E+00       0.001       32.256   0.100E-07
     TRS4 it   5 1.00000000   0.686E-01       0.001       32.256   0.100E-07
     TRS4 it   6 1.00000000   0.885E-02       0.001       32.256   0.100E-07
     TRS4 it   7 1.00000000   0.197E-03       0.001       32.256   0.100E-07
     TRS4 it   8 1.00000000   0.137E-06       0.001       32.256   0.100E-07
     TRS4 it   9 1.00000000   0.809E-13       0.001       32.256   0.100E-07
     Final TRS4 iteration    9 1.00000000   0.809E-13
     Chemical potential (mu):       0.01118
 
 PAO| energy:  -7.8137524016702846      penalty:   1.4526579447591742E-005
 PAO|LS| adapt:  T T F
 PAO|LS| adapt: scan_steps:    0.0000000000000000       0.42592496867141938        0.0000000000000000     
 PAO|LS| adapt: energies:   -7.8135902344884691       -7.8137524016702846        0.0000000000000000     
 PAO| ======================= Iteration:        21 =============================

     Lanczos converged:  T threshold:   0.100E-02
     Est. extremal eigenvalues:    0.276E+01   0.180E+00
     Est. condition number :    0.153E+02
     NS sqrt iter    1 1.00000000   0.706E+00       0.001       62.184
     NS sqrt iter    2 1.00000000   0.331E+00       0.001       94.702
     NS sqrt iter    3 1.00000000   0.761E-01       0.001       96.261
     NS sqrt iter    4 1.00000000   0.187E-02       0.001       92.674
     NS sqrt iter    5 1.00000000   0.570E-07       0.001       71.310
     Final NS sqrt iter    5 1.00000000   0.560E-09

     Est. extremal eigenvalues     -0.93809     1.70228  converged:  T
     TRS4 it   1 1.00000000   0.872E+00       0.000       16.128   0.100E-07
     TRS4 it   2 1.00000000   0.618E+00       0.001       32.256   0.100E-07
     TRS4 it   3 1.00000000   0.421E+00       0.001       32.256   0.100E-07
     TRS4 it   4 1.00000000   0.214E+00       0.001       32.256   0.100E-07
     TRS4 it   5 1.00000000   0.684E-01       0.001       32.256   0.100E-07
     TRS4 it   6 1.00000000   0.883E-02       0.001       32.256   0.100E-07
     TRS4 it   7 1.00000000   0.198E-03       0.001       32.256   0.100E-07
     TRS4 it   8 1.00000000   0.141E-06       0.001       32.256   0.100E-07
     TRS4 it   9 1.00000000   0.861E-13       0.001       32.256   0.100E-07
     Final TRS4 iteration    9 1.00000000   0.861E-13
     Chemical potential (mu):       0.01059
 
 PAO| energy:  -7.8136164078237904      penalty:   1.4009258658778311E-005
 PAO|LS| Need extra step
 PAO|LS| adapt:  T T T
 PAO|LS| adapt: scan_steps:    0.0000000000000000       0.42592496867141938       0.85184993734283876     
 PAO|LS| adapt: energies:   -7.8135902344884691       -7.8137524016702846       -7.8136164078237904     
 PAO|LS| adapt: suggested step_size:   0.44461935856191676     
 PAO|LS| adapt: predicted energy  -7.8137526888655486     
 PAO| ======================= Iteration:        22 =============================

     Lanczos converged:  T threshold:   0.100E-02
     Est. extremal eigenvalues:    0.276E+01   0.181E+00
     Est. condition number :    0.153E+02
     NS sqrt iter    1 1.00000000   0.706E+00       0.001       43.099
     NS sqrt iter    2 1.00000000   0.330E+00       0.002       67.412
     NS sqrt iter    3 1.00000000   0.756E-01       0.002       71.548
     NS sqrt iter    4 1.00000000   0.185E-02       0.002       68.413
     NS sqrt iter    5 1.00000000   0.555E-07       0.002       47.548
     Final NS sqrt iter    5 1.00000000   0.529E-09

     Est. extremal eigenvalues     -0.93810     1.70192  converged:  T
     TRS4 it   1 1.00000000   0.872E+00       0.001       16.128   0.100E-07
     TRS4 it   2 1.00000000   0.618E+00       0.001       32.256   0.100E-07
     TRS4 it   3 1.00000000   0.422E+00       0.001       32.256   0.100E-07
     TRS4 it   4 1.00000000   0.214E+00       0.001       32.256   0.100E-07
     TRS4 it   5 1.00000000   0.686E-01       0.001       32.256   0.100E-07
     TRS4 it   6 1.00000000   0.885E-02       0.001       32.256   0.100E-07
     TRS4 it   7 1.00000000   0.197E-03       0.001       32.256   0.100E-07
     TRS4 it   8 1.00000000   0.137E-06       0.001       32.256   0.100E-07
     TRS4 it   9 1.00000000   0.808E-13       0.001       32.256   0.100E-07
     Final TRS4 iteration    9 1.00000000   0.808E-13
     Chemical potential (mu):       0.01115
 
 PAO| energy:  -7.8137527237143809      penalty:   1.4502846755247250E-005
 PAO|CG| trace_G_new    2.2352001551201496E-004
 PAO|CG| trace_G_prev    7.2651025041536258E-004
 PAO|CG| trace_G_mix    2.9849291561583235E-006
 PAO|CG| trace_D    9.8677282129695462E-004
 PAO|CG| trace_D_Gnew  -1.8572825878637869E-006
 PAO|CG| beta:   0.30355399146780332     
 PAO| norm of gradient:   1.4950585791600775E-002
 PAO| energy improvement:  -1.6248922591177717E-004
 PAO| step     22                   -7.813752724  0.934E-03  0.445E+00     0.093
 PAO|LS| adapt:  T F F
 PAO|LS| adapt: scan_steps:    0.0000000000000000        0.0000000000000000        0.0000000000000000     
 PAO|LS| adapt: energies:   -7.8137527237143809        0.0000000000000000        0.0000000000000000     
 PAO| ======================= Iteration:        23 =============================

     Lanczos converged:  T threshold:   0.100E-02
     Est. extremal eigenvalues:    0.276E+01   0.181E+00
     Est. condition number :    0.153E+02
     NS sqrt iter    1 1.00000000   0.706E+00       0.001       46.532
     NS sqrt iter    2 1.00000000   0.330E+00       0.001       81.877
     NS sqrt iter    3 1.00000000   0.757E-01       0.001       98.534
     NS sqrt iter    4 1.00000000   0.185E-02       0.001       88.562
     NS sqrt iter    5 1.00000000   0.555E-07       0.001       70.664
     Final NS sqrt iter    5 1.00000000   0.534E-09

     Est. extremal eigenvalues     -0.93810     1.70142  converged:  T
     TRS4 it   1 1.00000000   0.871E+00       0.000       16.128   0.100E-07
     TRS4 it   2 1.00000000   0.618E+00       0.001       32.256   0.100E-07
     TRS4 it   3 1.00000000   0.422E+00       0.001       32.256   0.100E-07
     TRS4 it   4 1.00000000   0.214E+00       0.001       32.256   0.100E-07
     TRS4 it   5 1.00000000   0.687E-01       0.001       32.256   0.100E-07
     TRS4 it   6 1.00000000   0.888E-02       0.001       32.256   0.100E-07
     TRS4 it   7 1.00000000   0.199E-03       0.001       32.256   0.100E-07
     TRS4 it   8 1.00000000   0.140E-06       0.001       32.256   0.100E-07
     TRS4 it   9 1.00000000   0.838E-13       0.001       32.256   0.100E-07
     Final TRS4 iteration    9 1.00000000   0.838E-13
     Chemical potential (mu):       0.01083
 
 PAO| energy:  -7.8138025638511284      penalty:   1.3820263438885894E-005
 PAO|LS| adapt:  T T F
 PAO|LS| adapt: scan_steps:    0.0000000000000000       0.44461935856191676        0.0000000000000000     
 PAO|LS| adapt: energies:   -7.8137527237143809       -7.8138025638511284        0.0000000000000000     
 PAO| ======================= Iteration:        24 =============================

     Lanczos converged:  T threshold:   0.100E-02
     Est. extremal eigenvalues:    0.276E+01   0.181E+00
     Est. condition number :    0.153E+02
     NS sqrt iter    1 1.00000000   0.706E+00       0.001       61.773
     NS sqrt iter    2 1.00000000   0.330E+00       0.001       93.410
     NS sqrt iter    3 1.00000000   0.757E-01       0.001       95.895
     NS sqrt iter    4 1.00000000   0.185E-02       0.001       89.567
     NS sqrt iter    5 1.00000000   0.555E-07       0.001       67.600
     Final NS sqrt iter    5 1.00000000   0.538E-09

     Est. extremal eigenvalues     -0.93809     1.70092  converged:  T
     TRS4 it   1 1.00000000   0.871E+00       0.000       16.128   0.100E-07
     TRS4 it   2 1.00000000   0.618E+00       0.001       32.256   0.100E-07
     TRS4 it   3 1.00000000   0.422E+00       0.001       32.256   0.100E-07
     TRS4 it   4 1.00000000   0.214E+00       0.001       32.256   0.100E-07
     TRS4 it   5 1.00000000   0.688E-01       0.001       32.256   0.100E-07
     TRS4 it   6 1.00000000   0.891E-02       0.001       32.256   0.100E-07
     TRS4 it   7 1.00000000   0.201E-03       0.001       32.256   0.100E-07
     TRS4 it   8 1.00000000   0.143E-06       0.001       32.256   0.100E-07
     TRS4 it   9 1.00000000   0.882E-13       0.001       32.256   0.100E-07
     Final TRS4 iteration    9 1.00000000   0.882E-13
     Chemical potential (mu):       0.01051
 
 PAO| energy:  -7.8137521823761089      penalty:   1.3166184357486541E-005
 PAO|LS| adapt:  T T T
 PAO|LS| adapt: scan_steps:    0.0000000000000000       0.44461935856191676       0.88923871712383351     
 PAO|LS| adapt: energies:   -7.8137527237143809       -7.8138025638511284       -7.8137521823761089     
 PAO|LS| adapt: suggested step_size:   0.44341857226935827     
 PAO|LS| adapt: predicted energy  -7.8138025642166262     
 PAO| ======================= Iteration:        25 =============================

     Lanczos converged:  T threshold:   0.100E-02
     Est. extremal eigenvalues:    0.276E+01   0.181E+00
     Est. condition number :    0.153E+02
     NS sqrt iter    1 1.00000000   0.706E+00       0.001       51.072
     NS sqrt iter    2 1.00000000   0.330E+00       0.001       98.706
     NS sqrt iter    3 1.00000000   0.757E-01       0.001       92.829
     NS sqrt iter    4 1.00000000   0.185E-02       0.001       94.438
     NS sqrt iter    5 1.00000000   0.555E-07       0.001       66.718
     Final NS sqrt iter    5 1.00000000   0.533E-09

     Est. extremal eigenvalues     -0.93810     1.70142  converged:  T
     TRS4 it   1 1.00000000   0.871E+00       0.000       16.128   0.100E-07
     TRS4 it   2 1.00000000   0.618E+00       0.001       32.256   0.100E-07
     TRS4 it   3 1.00000000   0.422E+00       0.001       32.256   0.100E-07
     TRS4 it   4 1.00000000   0.214E+00       0.001       32.256   0.100E-07
     TRS4 it   5 1.00000000   0.687E-01       0.001       32.256   0.100E-07
     TRS4 it   6 1.00000000   0.888E-02       0.001       32.256   0.100E-07
     TRS4 it   7 1.00000000   0.199E-03       0.001       32.256   0.100E-07
     TRS4 it   8 1.00000000   0.140E-06       0.001       32.256   0.100E-07
     TRS4 it   9 1.00000000   0.847E-13       0.001       32.256   0.100E-07
     Final TRS4 iteration    9 1.00000000   0.847E-13
     Chemical potential (mu):       0.01083
 
 PAO| energy:  -7.8138025637858446      penalty:   1.3822068230948571E-005
 PAO|CG| trace_G_new    8.0574058117282638E-005
 PAO|CG| trace_G_prev    2.2352001551201496E-004
 PAO|CG| trace_G_mix    7.1770136438652337E-007
 PAO|CG| trace_D    3.1557379361170238E-004
 PAO|CG| trace_D_Gnew  -3.5879253813525983E-007
 PAO|CG| beta:   0.35726714034969081     
 PAO| norm of gradient:   8.9763053712138517E-003
 PAO| energy improvement:  -4.9840071463691515E-005
 PAO| step     25                   -7.813802564  0.561E-03  0.443E+00     0.061
 PAO|LS| adapt:  T F F
 PAO|LS| adapt: scan_steps:    0.0000000000000000        0.0000000000000000        0.0000000000000000     
 PAO|LS| adapt: energies:   -7.8138025637858446        0.0000000000000000        0.0000000000000000     
 PAO| ======================= Iteration:        26 =============================

     Lanczos converged:  T threshold:   0.100E-02
     Est. extremal eigenvalues:    0.276E+01   0.181E+00
     Est. condition number :    0.153E+02
     NS sqrt iter    1 1.00000000   0.705E+00       0.001       46.775
     NS sqrt iter    2 1.00000000   0.330E+00       0.001       96.130
     NS sqrt iter    3 1.00000000   0.756E-01       0.001       90.310
     NS sqrt iter    4 1.00000000   0.185E-02       0.001       76.691
     NS sqrt iter    5 1.00000000   0.548E-07       0.001       54.386
     Final NS sqrt iter    5 1.00000000   0.749E-09

     Est. extremal eigenvalues     -0.93810     1.70074  converged:  T
     TRS4 it   1 1.00000000   0.871E+00       0.000       16.128   0.100E-07
     TRS4 it   2 1.00000000   0.617E+00       0.001       32.256   0.100E-07
     TRS4 it   3 1.00000000   0.421E+00       0.001       32.256   0.100E-07
     TRS4 it   4 1.00000000   0.214E+00       0.001       32.256   0.100E-07
     TRS4 it   5 1.00000000   0.686E-01       0.001       32.256   0.100E-07
     TRS4 it   6 1.00000000   0.885E-02       0.001       32.256   0.100E-07
     TRS4 it   7 1.00000000   0.198E-03       0.001       32.256   0.100E-07
     TRS4 it   8 1.00000000   0.138E-06       0.001       32.256   0.100E-07
     TRS4 it   9 1.00000000   0.813E-13       0.001       32.256   0.100E-07
     Final TRS4 iteration    9 1.00000000   0.813E-13
     Chemical potential (mu):       0.01096
 
 PAO| energy:  -7.8138066874064309      penalty:   1.3096293270888221E-005
 PAO|LS| adapt:  T T F
 PAO|LS| adapt: scan_steps:    0.0000000000000000       0.44341857226935827        0.0000000000000000     
 PAO|LS| adapt: energies:   -7.8138025637858446       -7.8138066874064309        0.0000000000000000     
 PAO| ======================= Iteration:        27 =============================

     Lanczos converged:  T threshold:   0.100E-02
     Est. extremal eigenvalues:    0.276E+01   0.181E+00
     Est. condition number :    0.153E+02
     NS sqrt iter    1 1.00000000   0.705E+00       0.001       56.961
     NS sqrt iter    2 1.00000000   0.330E+00       0.001       95.052
     NS sqrt iter    3 1.00000000   0.755E-01       0.001       77.685
     NS sqrt iter    4 1.00000000   0.184E-02       0.001       97.859
     NS sqrt iter    5 1.00000000   0.542E-07       0.001       68.612
     Final NS sqrt iter    5 1.00000000   0.637E-09

     Est. extremal eigenvalues     -0.93810     1.70006  converged:  T
     TRS4 it   1 1.00000000   0.871E+00       0.000       16.128   0.100E-07
     TRS4 it   2 1.00000000   0.617E+00       0.001       32.256   0.100E-07
     TRS4 it   3 1.00000000   0.421E+00       0.001       32.256   0.100E-07
     TRS4 it   4 1.00000000   0.214E+00       0.001       32.256   0.100E-07
     TRS4 it   5 1.00000000   0.684E-01       0.001       32.256   0.100E-07
     TRS4 it   6 1.00000000   0.883E-02       0.001       32.256   0.100E-07
     TRS4 it   7 1.00000000   0.196E-03       0.001       32.256   0.100E-07
     TRS4 it   8 1.00000000   0.135E-06       0.001       32.256   0.100E-07
     TRS4 it   9 1.00000000   0.784E-13       0.001       32.256   0.100E-07
     Final TRS4 iteration    9 1.00000000   0.784E-13
     Chemical potential (mu):       0.01108
 
 PAO| energy:  -7.8137473785622822      penalty:   1.2394507203881739E-005
 PAO|LS| adapt:  T T T
 PAO|LS| adapt: scan_steps:    0.0000000000000000       0.44341857226935827       0.88683714453871654     
 PAO|LS| adapt: energies:   -7.8138025637858446       -7.8138066874064309       -7.8137473785622822     
 PAO|LS| adapt: suggested step_size:   0.25053506108457030     
 PAO|LS| adapt: predicted energy  -7.8138126886884880     
 PAO| ======================= Iteration:        28 =============================

     Lanczos converged:  T threshold:   0.100E-02
     Est. extremal eigenvalues:    0.276E+01   0.181E+00
     Est. condition number :    0.153E+02
     NS sqrt iter    1 1.00000000   0.705E+00       0.002       41.964
     NS sqrt iter    2 1.00000000   0.330E+00       0.002       64.275
     NS sqrt iter    3 1.00000000   0.756E-01       0.002       64.139
     NS sqrt iter    4 1.00000000   0.185E-02       0.002       62.768
     NS sqrt iter    5 1.00000000   0.551E-07       0.002       43.505
     Final NS sqrt iter    5 1.00000000   0.531E-09

     Est. extremal eigenvalues     -0.93810     1.70104  converged:  T
     TRS4 it   1 1.00000000   0.871E+00       0.001       16.128   0.100E-07
     TRS4 it   2 1.00000000   0.618E+00       0.001       32.256   0.100E-07
     TRS4 it   3 1.00000000   0.422E+00       0.001       32.256   0.100E-07
     TRS4 it   4 1.00000000   0.214E+00       0.001       32.256   0.100E-07
     TRS4 it   5 1.00000000   0.686E-01       0.001       32.256   0.100E-07
     TRS4 it   6 1.00000000   0.887E-02       0.001       32.256   0.100E-07
     TRS4 it   7 1.00000000   0.198E-03       0.001       32.256   0.100E-07
     TRS4 it   8 1.00000000   0.139E-06       0.001       32.256   0.100E-07
     TRS4 it   9 1.00000000   0.825E-13       0.001       32.256   0.100E-07
     Final TRS4 iteration    9 1.00000000   0.825E-13
     Chemical potential (mu):       0.01090
 
 PAO| energy:  -7.8138126789104749      penalty:   1.3409031926611040E-005
 PAO|CG| trace_G_new    3.2458839519442686E-005
 PAO|CG| trace_G_prev    8.0574058117282638E-005
 PAO|CG| trace_G_mix    5.3161516590584750E-008
 PAO|CG| trace_D    1.2111020660847009E-004
 PAO|CG| trace_D_Gnew  -2.6580632978396673E-008
 PAO|CG| beta:   0.40218500544781777     
 PAO| norm of gradient:   5.6972659688172087E-003
 PAO| energy improvement:  -1.0115124630338812E-005
 PAO| step     28                   -7.813812679  0.356E-03  0.251E+00     0.067
 PAO|LS| adapt:  T F F
 PAO|LS| adapt: scan_steps:    0.0000000000000000        0.0000000000000000        0.0000000000000000     
 PAO|LS| adapt: energies:   -7.8138126789104749        0.0000000000000000        0.0000000000000000     
 PAO| ======================= Iteration:        29 =============================

     Lanczos converged:  T threshold:   0.100E-02
     Est. extremal eigenvalues:    0.276E+01   0.181E+00
     Est. condition number :    0.153E+02
     NS sqrt iter    1 1.00000000   0.705E+00       0.001       60.397
     NS sqrt iter    2 1.00000000   0.330E+00       0.001       92.204
     NS sqrt iter    3 1.00000000   0.755E-01       0.001       98.543
     NS sqrt iter    4 1.00000000   0.185E-02       0.001       92.095
     NS sqrt iter    5 1.00000000   0.549E-07       0.001       55.826
     Final NS sqrt iter    5 1.00000000   0.645E-09

     Est. extremal eigenvalues     -0.93810     1.70080  converged:  T
     TRS4 it   1 1.00000000   0.871E+00       0.000       16.128   0.100E-07
     TRS4 it   2 1.00000000   0.617E+00       0.001       32.256   0.100E-07
     TRS4 it   3 1.00000000   0.421E+00       0.001       32.256   0.100E-07
     TRS4 it   4 1.00000000   0.214E+00       0.001       32.256   0.100E-07
     TRS4 it   5 1.00000000   0.685E-01       0.001       32.256   0.100E-07
     TRS4 it   6 1.00000000   0.884E-02       0.001       32.256   0.100E-07
     TRS4 it   7 1.00000000   0.197E-03       0.001       32.256   0.100E-07
     TRS4 it   8 1.00000000   0.137E-06       0.001       32.256   0.100E-07
     TRS4 it   9 1.00000000   0.799E-13       0.001       32.256   0.100E-07
     Final TRS4 iteration    9 1.00000000   0.799E-13
     Chemical potential (mu):       0.01104
 
 PAO| energy:  -7.8138198260406275      penalty:   1.2974626931234816E-005
 PAO|LS| adapt:  T T F
 PAO|LS| adapt: scan_steps:    0.0000000000000000       0.25053506108457030        0.0000000000000000     
 PAO|LS| adapt: energies:   -7.8138126789104749       -7.8138198260406275        0.0000000000000000     
 PAO| ======================= Iteration:        30 =============================

     Lanczos converged:  T threshold:   0.100E-02
     Est. extremal eigenvalues:    0.276E+01   0.181E+00
     Est. condition number :    0.153E+02
     NS sqrt iter    1 1.00000000   0.705E+00       0.001       54.905
     NS sqrt iter    2 1.00000000   0.330E+00       0.001       91.234
     NS sqrt iter    3 1.00000000   0.755E-01       0.002       64.502
     NS sqrt iter    4 1.00000000   0.184E-02       0.001       84.647
     NS sqrt iter    5 1.00000000   0.546E-07       0.001       71.382
     Final NS sqrt iter    5 1.00000000   0.639E-09

     Est. extremal eigenvalues     -0.93810     1.70056  converged:  T
     TRS4 it   1 1.00000000   0.871E+00       0.000       16.128   0.100E-07
     TRS4 it   2 1.00000000   0.617E+00       0.001       32.256   0.100E-07
     TRS4 it   3 1.00000000   0.421E+00       0.001       32.256   0.100E-07
     TRS4 it   4 1.00000000   0.214E+00       0.001       32.256   0.100E-07
     TRS4 it   5 1.00000000   0.684E-01       0.001       32.256   0.100E-07
     TRS4 it   6 1.00000000   0.881E-02       0.001       32.256   0.100E-07
     TRS4 it   7 1.00000000   0.196E-03       0.001       32.256   0.100E-07
     TRS4 it   8 1.00000000   0.135E-06       0.001       32.256   0.100E-07
     TRS4 it   9 1.00000000   0.779E-13       0.001       32.256   0.100E-07
     Final TRS4 iteration    9 1.00000000   0.779E-13
     Chemical potential (mu):       0.01118
 
 PAO| energy:  -7.8138250073704256      penalty:   1.2548215441662488E-005
 PAO|LS| adapt:  T T F
 PAO|LS| adapt: scan_steps:    0.0000000000000000       0.50107012216914060        0.0000000000000000     
 PAO|LS| adapt: energies:   -7.8138126789104749       -7.8138250073704256        0.0000000000000000     
 PAO| ======================= Iteration:        31 =============================

     Lanczos converged:  T threshold:   0.100E-02
     Est. extremal eigenvalues:    0.276E+01   0.181E+00
     Est. condition number :    0.153E+02
     NS sqrt iter    1 1.00000000   0.705E+00       0.001       48.494
     NS sqrt iter    2 1.00000000   0.330E+00       0.001       78.226
     NS sqrt iter    3 1.00000000   0.753E-01       0.002       68.474
     NS sqrt iter    4 1.00000000   0.184E-02       0.002       54.889
     NS sqrt iter    5 1.00000000   0.541E-07       0.002       48.421
     Final NS sqrt iter    5 1.00000000   0.627E-09

     Est. extremal eigenvalues     -0.93811     1.70008  converged:  T
     TRS4 it   1 1.00000000   0.871E+00       0.000       16.128   0.100E-07
     TRS4 it   2 1.00000000   0.617E+00       0.001       32.256   0.100E-07
     TRS4 it   3 1.00000000   0.421E+00       0.001       32.256   0.100E-07
     TRS4 it   4 1.00000000   0.214E+00       0.001       32.256   0.100E-07
     TRS4 it   5 1.00000000   0.682E-01       0.001       32.256   0.100E-07
     TRS4 it   6 1.00000000   0.876E-02       0.001       32.256   0.100E-07
     TRS4 it   7 1.00000000   0.193E-03       0.001       32.256   0.100E-07
     TRS4 it   8 1.00000000   0.131E-06       0.001       32.256   0.100E-07
     TRS4 it   9 1.00000000   0.731E-13       0.001       32.256   0.100E-07
     Final TRS4 iteration    9 1.00000000   0.731E-13
     Chemical potential (mu):       0.01145
 
 PAO| energy:  -7.8138294655337299      penalty:   1.1719206374190676E-005
 PAO|LS| Need extra step
 PAO|LS| adapt:  T T F
 PAO|LS| adapt: scan_steps:    0.0000000000000000        1.0021402443382812        0.0000000000000000     
 PAO|LS| adapt: energies:   -7.8138126789104749       -7.8138294655337299        0.0000000000000000     
 PAO| ======================= Iteration:        32 =============================

     Lanczos converged:  T threshold:   0.100E-02
     Est. extremal eigenvalues:    0.276E+01   0.181E+00
     Est. condition number :    0.152E+02
     NS sqrt iter    1 1.00000000   0.704E+00       0.001       57.365
     NS sqrt iter    2 1.00000000   0.329E+00       0.001       96.236
     NS sqrt iter    3 1.00000000   0.751E-01       0.001      100.126
     NS sqrt iter    4 1.00000000   0.182E-02       0.001       92.472
     NS sqrt iter    5 1.00000000   0.532E-07       0.001       68.357
     Final NS sqrt iter    5 1.00000000   0.608E-09

     Est. extremal eigenvalues     -0.93811     1.69909  converged:  T
     TRS4 it   1 1.00000000   0.871E+00       0.000       16.128   0.100E-07
     TRS4 it   2 1.00000000   0.617E+00       0.001       32.256   0.100E-07
     TRS4 it   3 1.00000000   0.420E+00       0.001       32.256   0.100E-07
     TRS4 it   4 1.00000000   0.213E+00       0.001       32.256   0.100E-07
     TRS4 it   5 1.00000000   0.678E-01       0.001       32.256   0.100E-07
     TRS4 it   6 1.00000000   0.866E-02       0.001       32.256   0.100E-07
     TRS4 it   7 1.00000000   0.188E-03       0.001       32.256   0.100E-07
     TRS4 it   8 1.00000000   0.123E-06       0.001       32.256   0.100E-07
     TRS4 it   9 1.00000000   0.654E-13       0.001       32.256   0.100E-07
     Final TRS4 iteration    9 1.00000000   0.654E-13
     Chemical potential (mu):       0.01200
 
 PAO| energy:  -7.8138147710301071      penalty:   1.0155289206643421E-005
 PAO|LS| Need extra step
 PAO|LS| adapt:  T T T
 PAO|LS| adapt: scan_steps:    0.0000000000000000        1.0021402443382812        2.0042804886765624     
 PAO|LS| adapt: energies:   -7.8138126789104749       -7.8138294655337299       -7.8138147710301071     
 PAO|LS| adapt: suggested step_size:    1.0354395173843070     
 PAO|LS| adapt: predicted energy  -7.8138294829130492     
 PAO| ======================= Iteration:        33 =============================

     Lanczos converged:  T threshold:   0.100E-02
     Est. extremal eigenvalues:    0.276E+01   0.181E+00
     Est. condition number :    0.153E+02
     NS sqrt iter    1 1.00000000   0.705E+00       0.001       61.514
     NS sqrt iter    2 1.00000000   0.330E+00       0.001       80.160
     NS sqrt iter    3 1.00000000   0.753E-01       0.002       71.456
     NS sqrt iter    4 1.00000000   0.183E-02       0.001       82.801
     NS sqrt iter    5 1.00000000   0.541E-07       0.001       69.449
     Final NS sqrt iter    5 1.00000000   0.627E-09

     Est. extremal eigenvalues     -0.93811     1.70004  converged:  T
     TRS4 it   1 1.00000000   0.871E+00       0.000       16.128   0.100E-07
     TRS4 it   2 1.00000000   0.617E+00       0.001       32.256   0.100E-07
     TRS4 it   3 1.00000000   0.421E+00       0.001       32.256   0.100E-07
     TRS4 it   4 1.00000000   0.214E+00       0.001       32.256   0.100E-07
     TRS4 it   5 1.00000000   0.682E-01       0.001       32.256   0.100E-07
     TRS4 it   6 1.00000000   0.876E-02       0.001       32.256   0.100E-07
[...]
     NS sqrt iter    3 1.00000000   0.490E-01       0.002       64.070
     NS sqrt iter    4 1.00000000   0.794E-03       0.002       63.456
     NS sqrt iter    5 1.00000000   0.661E-08       0.001       27.237
     Final NS sqrt iter    5 1.00000000   0.383E-09

     Est. extremal eigenvalues     -0.93779     1.63027  converged:  T
     TRS4 it   1 1.00000000   0.878E+00       0.001       16.128   0.100E-07
     TRS4 it   2 1.00000000   0.632E+00       0.001       31.533   0.100E-07
     TRS4 it   3 1.00000000   0.456E+00       0.001       32.256   0.100E-07
     TRS4 it   4 1.00000000   0.279E+00       0.001       32.256   0.100E-07
     TRS4 it   5 1.00000000   0.139E+00       0.001       32.256   0.100E-07
     TRS4 it   6 1.00000000   0.442E-01       0.001       32.256   0.100E-07
     TRS4 it   7 1.00000000   0.633E-02       0.001       32.256   0.100E-07
     TRS4 it   8 1.00000000   0.171E-03       0.001       32.256   0.100E-07
     TRS4 it   9 1.00000000   0.132E-06       0.001       32.256   0.100E-07
     TRS4 it  10 1.00000000   0.783E-13       0.001       32.256   0.100E-07
     Final TRS4 iteration   10 1.00000000   0.783E-13
     Chemical potential (mu):      -0.07798
 
 PAO| energy:  -7.8130362974822791      penalty:   2.6576935176564133E-008
 PAO|LS| Need extra step
 PAO|LS| adapt:  T T T
 PAO|LS| adapt: scan_steps:    0.0000000000000000       0.20000000000000001       0.40000000000000002     
 PAO|LS| adapt: energies:   -7.8130362937216793       -7.8130362990190294       -7.8130362974822791     
 PAO|LS| adapt: suggested step_size:   0.25502699131186085     
 PAO|LS| adapt: predicted energy  -7.8130362992776972     
 PAO| ======================= Iteration:       427 =============================

     Lanczos converged:  T threshold:   0.100E-02
     Est. extremal eigenvalues:    0.251E+01   0.190E+00
     Est. condition number :    0.132E+02
     NS sqrt iter    1 1.00000000   0.637E+00       0.002       39.313
     NS sqrt iter    2 1.00000000   0.277E+00       0.002       63.379
     NS sqrt iter    3 1.00000000   0.490E-01       0.002       62.548
     NS sqrt iter    4 1.00000000   0.794E-03       0.002       64.037
     NS sqrt iter    5 1.00000000   0.661E-08       0.001       26.724
     Final NS sqrt iter    5 1.00000000   0.383E-09

     Est. extremal eigenvalues     -0.93779     1.63027  converged:  T
     TRS4 it   1 1.00000000   0.878E+00       0.001       16.128   0.100E-07
     TRS4 it   2 1.00000000   0.632E+00       0.001       31.728   0.100E-07
     TRS4 it   3 1.00000000   0.456E+00       0.001       32.256   0.100E-07
     TRS4 it   4 1.00000000   0.279E+00       0.001       32.256   0.100E-07
     TRS4 it   5 1.00000000   0.139E+00       0.001       32.256   0.100E-07
     TRS4 it   6 1.00000000   0.442E-01       0.001       32.256   0.100E-07
     TRS4 it   7 1.00000000   0.633E-02       0.001       32.256   0.100E-07
     TRS4 it   8 1.00000000   0.171E-03       0.001       32.256   0.100E-07
     TRS4 it   9 1.00000000   0.132E-06       0.001       32.256   0.100E-07
     TRS4 it  10 1.00000000   0.788E-13       0.001       32.256   0.100E-07
     Final TRS4 iteration   10 1.00000000   0.788E-13
     Chemical potential (mu):      -0.07798
 
 PAO| energy:  -7.8130362992777016      penalty:   2.6890896356017367E-008
 PAO|CG| warming up with steepest descent
 PAO|CG| beta:    0.0000000000000000     
 PAO| norm of gradient:   1.2586353719886236E-004
 PAO| energy improvement:  -5.5560223088946259E-009
 PAO| step    427                   -7.813036299  0.787E-05  0.255E+00     0.114
 PAO| converged after          427  steps :-)
 PAO| Recalculating energy after mixing.

     Lanczos converged:  T threshold:   0.100E-02
     Est. extremal eigenvalues:    0.251E+01   0.190E+00
     Est. condition number :    0.132E+02
     NS sqrt iter    1 1.00000000   0.637E+00       0.002       40.967
     NS sqrt iter    2 1.00000000   0.277E+00       0.002       64.028
     NS sqrt iter    3 1.00000000   0.490E-01       0.002       64.552
     NS sqrt iter    4 1.00000000   0.794E-03       0.002       64.410
     NS sqrt iter    5 1.00000000   0.661E-08       0.001       27.402
     Final NS sqrt iter    5 1.00000000   0.383E-09

     Est. extremal eigenvalues     -0.93779     1.63026  converged:  T
     TRS4 it   1 1.00000000   0.878E+00       0.001       16.128   0.100E-07
     TRS4 it   2 1.00000000   0.632E+00       0.001       32.256   0.100E-07
     TRS4 it   3 1.00000000   0.456E+00       0.001       32.256   0.100E-07
     TRS4 it   4 1.00000000   0.279E+00       0.001       32.256   0.100E-07
     TRS4 it   5 1.00000000   0.139E+00       0.001       32.256   0.100E-07
     TRS4 it   6 1.00000000   0.442E-01       0.001       32.256   0.100E-07
     TRS4 it   7 1.00000000   0.633E-02       0.001       32.256   0.100E-07
     TRS4 it   8 1.00000000   0.171E-03       0.001       32.256   0.100E-07
     TRS4 it   9 1.00000000   0.132E-06       0.001       32.256   0.100E-07
     TRS4 it  10 1.00000000   0.777E-13       0.001       32.256   0.100E-07
     Final TRS4 iteration   10 1.00000000   0.777E-13
     Chemical potential (mu):      -0.07798
 
 PAO| energy:  -7.8130362978886811      penalty:   2.7168565273695467E-008
 PAO| Writing restart file.
     Est. extremal eigenvalues     -0.93779     1.63026  converged:  T
     TRS4 it   1 1.00000000   0.878E+00       0.001       16.128   0.100E-07
     TRS4 it   2 1.00000000   0.632E+00       0.001       32.256   0.100E-07
     TRS4 it   3 1.00000000   0.456E+00       0.001       32.256   0.100E-07
     TRS4 it   4 1.00000000   0.279E+00       0.001       32.256   0.100E-07
     TRS4 it   5 1.00000000   0.139E+00       0.001       32.256   0.100E-07
     TRS4 it   6 1.00000000   0.442E-01       0.001       32.256   0.100E-07
     TRS4 it   7 1.00000000   0.633E-02       0.001       32.256   0.100E-07
     TRS4 it   8 1.00000000   0.171E-03       0.001       32.256   0.100E-07
     TRS4 it   9 1.00000000   0.132E-06       0.001       32.256   0.100E-07
     TRS4 it  10 1.00000000   0.777E-13       0.001       32.256   0.100E-07
     Final TRS4 iteration   10 1.00000000   0.777E-13
     Chemical potential (mu):      -0.07798

 SCF     1       -34.449584752       -34.449584752    2.069501

*********************************************************
 Using MIXING_FRACTION=0.450 to mix KS matrix:  iscf=  2
 KS_nw=0.450*KS + 0.550*KS_old
*********************************************************
     Est. extremal eigenvalues     -0.93779     1.63027  converged:  T
     TRS4 it   1 1.00000000   0.878E+00       0.000       16.128   0.100E-07
     TRS4 it   2 1.00000000   0.632E+00       0.001       32.256   0.100E-07
     TRS4 it   3 1.00000000   0.456E+00       0.001       32.256   0.100E-07
     TRS4 it   4 1.00000000   0.279E+00       0.001       32.254   0.100E-07
     TRS4 it   5 1.00000000   0.139E+00       0.001       32.256   0.100E-07
     TRS4 it   6 1.00000000   0.442E-01       0.001       32.256   0.100E-07
     TRS4 it   7 1.00000000   0.633E-02       0.001       30.276   0.100E-07
     TRS4 it   8 1.00000000   0.171E-03       0.001       32.256   0.100E-07
     TRS4 it   9 1.00000000   0.132E-06       0.001       26.352   0.100E-07
     TRS4 it  10 1.00000000   0.782E-13       0.001       32.256   0.100E-07
     Final TRS4 iteration   10 1.00000000   0.782E-13
     Chemical potential (mu):      -0.07798

 SCF     2       -34.449584752        -0.000000000    2.405749

 PAO| Storing density matrix for ASPC guess in slot:           1

 ENERGY| Total FORCE_EVAL ( QS ) energy (a.u.):              -34.449584752245094


 -------------------------------------------------------------------------------
 -                                                                             -
 -                                DBCSR STATISTICS                             -
 -                                                                             -
 -------------------------------------------------------------------------------
 COUNTER                                    TOTAL       BLAS       SMM       ACC
 flops     5 x     5 x     4                20000     100.0%      0.0%      0.0%
 flops    13 x     5 x     4                20800     100.0%      0.0%      0.0%
 flops     5 x    13 x     4                20800     100.0%      0.0%      0.0%
 flops    13 x    13 x     4                40560     100.0%      0.0%      0.0%
 flops     4 x     4 x     5              3352320     100.0%      0.0%      0.0%
 flops     5 x     4 x     5              4099200     100.0%      0.0%      0.0%
 flops     4 x     4 x    13              4358016     100.0%      0.0%      0.0%
 flops    13 x     4 x     5              5328960     100.0%      0.0%      0.0%
 flops     5 x     4 x    13              5328960     100.0%      0.0%      0.0%
 flops     5 x     4 x     4              6477600     100.0%      0.0%      0.0%
 flops    13 x     4 x    13              6927648     100.0%      0.0%      0.0%
 flops    13 x     4 x     4              8564192     100.0%      0.0%      0.0%
 flops     4 x     4 x     4            434550400     100.0%      0.0%      0.0%
 flops inhomo. stacks                           0       0.0%      0.0%      0.0%
 flops total                       479.089456E+06     100.0%      0.0%      0.0%
 flops max/rank                    479.089456E+06     100.0%      0.0%      0.0%
 matmuls inhomo. stacks                         0       0.0%      0.0%      0.0%
 matmuls total                            3533751     100.0%      0.0%      0.0%
 number of processed stacks                 28163     100.0%      0.0%      0.0%
 average stack size                                   125.5       0.0       0.0
 marketing flops                   779.509056E+06
 -------------------------------------------------------------------------------
 # multiplications                          23559
 max memory usage/rank             328.196096E+06
 # max total images/rank                        1
 # max 3D layers                                1
 # MPI messages exchanged                       0
 MPI messages size (bytes):
  total size                         0.000000E+00
  min size                           0.000000E+00
  max size                           0.000000E+00
  average size                       0.000000E+00
 MPI breakdown and total messages size (bytes):
             size <=      128                   0                        0
       128 < size <=     8192                   0                        0
      8192 < size <=    32768                   0                        0
     32768 < size <=   131072                   0                        0
    131072 < size <=  4194304                   0                        0
   4194304 < size <= 16777216                   0                        0
  16777216 < size                               0                        0
 -------------------------------------------------------------------------------

 MEMORY| Estimated peak process memory [MiB]                                 313

 -------------------------------------------------------------------------------
 -                                                                             -
 -                           R E F E R E N C E S                               -
 -                                                                             -
 -------------------------------------------------------------------------------
 
 CP2K version 7.0 (Development Version), the CP2K developers group (2018).
 CP2K is freely available from https://www.cp2k.org/ .

 Schuett, O; VandeVondele, J. 
 Journal of Chemical Theory and Computation, 14, (2018). 
 Machine Learning Adaptive Basis Sets for Efficient Large Scale Density Functional Theory Simulation.
 https://dx.doi.org/10.1021/acs.jctc.8b00378


 Schuett, Ole; Messmer, Peter; Hutter, Juerg; VandeVondele, Joost. 
 Electronic Structure Calculations on Graphics Processing Units, John Wiley & Sons, Ltd, 173-190 (2016). 
 GPU-Accelerated Sparse Matrix-Matrix Multiplication for Linear Scaling Density Functional Theory.
 https://dx.doi.org/10.1002/9781118670712.ch8


 Borstnik, U; VandeVondele, J; Weber, V; Hutter, J. 
 PARALLEL COMPUTING, 40 (5-6), 47-58 (2014). 
 Sparse matrix multiplication: The distributed block-compressed sparse
 row library.
 https://dx.doi.org/10.1016/j.parco.2014.03.012


 Hutter, J; Iannuzzi, M; Schiffmann, F; VandeVondele, J. 
 WILEY INTERDISCIPLINARY REVIEWS-COMPUTATIONAL MOLECULAR SCIENCE, 4 (1), 15-25 (2014). 
 CP2K: atomistic simulations of condensed matter systems.
 https://dx.doi.org/10.1002/wcms.1159


 VandeVondele, J; Borstnik, U; Hutter, J. 
 JOURNAL OF CHEMICAL THEORY AND COMPUTATION, 8 (10), 3565-3573 (2012). 
 Linear Scaling Self-Consistent Field Calculations with Millions of Atoms
 in the Condensed Phase.
 https://dx.doi.org/10.1021/ct200897x


 VandeVondele, J; Hutter, J. 
 JOURNAL OF CHEMICAL PHYSICS, 127 (11), 114105 (2007). 
 Gaussian basis sets for accurate calculations on molecular systems in
 gas and condensed phases.
 https://dx.doi.org/10.1063/1.2770708


 Krack, M. 
 THEORETICAL CHEMISTRY ACCOUNTS, 114 (1-3), 145-152 (2005). 
 Pseudopotentials for H to Kr optimized for gradient-corrected
 exchange-correlation functionals.
 https://dx.doi.org/10.1007/s00214-005-0655-y


 VandeVondele, J; Krack, M; Mohamed, F; Parrinello, M; Chassaing, T;
 Hutter, J. COMPUTER PHYSICS COMMUNICATIONS, 167 (2), 103-128 (2005). 
 QUICKSTEP: Fast and accurate density functional calculations using a
 mixed Gaussian and plane waves approach.
 https://dx.doi.org/10.1016/j.cpc.2004.12.014


 Frigo, M; Johnson, SG. 
 PROCEEDINGS OF THE IEEE, 93 (2), 216-231 (2005). 
 The design and implementation of FFTW3.
 https://dx.doi.org/10.1109/JPROC.2004.840301


 Niklasson, AMN; Tymczak, CJ; Challacombe, M. 
 JOURNAL OF CHEMICAL PHYSICS, 118 (19), 8611-8620 (2003). 
 Trace resetting density matrix purification in O(N)
 self-consistent-field theory.
 https://dx.doi.org/10.1063/1.1559913


 Hartwigsen, C; Goedecker, S; Hutter, J. 
 PHYSICAL REVIEW B, 58 (7), 3641-3662 (1998). 
 Relativistic separable dual-space Gaussian pseudopotentials from H to Rn.
 https://dx.doi.org/10.1103/PhysRevB.58.3641


 Lippert, G; Hutter, J; Parrinello, M. 
 MOLECULAR PHYSICS, 92 (3), 477-487 (1997). 
 A hybrid Gaussian and plane wave density functional scheme.
 https://dx.doi.org/10.1080/002689797170220


 Perdew, JP; Burke, K; Ernzerhof, M. 
 PHYSICAL REVIEW LETTERS, 77 (18), 3865-3868 (1996). 
 Generalized gradient approximation made simple.
 https://dx.doi.org/10.1103/PhysRevLett.77.3865


 Goedecker, S; Teter, M; Hutter, J. 
 PHYSICAL REVIEW B, 54 (3), 1703-1710 (1996). 
 Separable dual-space Gaussian pseudopotentials.
 https://dx.doi.org/10.1103/PhysRevB.54.1703


 -------------------------------------------------------------------------------
 -                                                                             -
 -                                T I M I N G                                  -
 -                                                                             -
 -------------------------------------------------------------------------------
 SUBROUTINE                       CALLS  ASD         SELF TIME        TOTAL TIME
                                MAXIMUM       AVERAGE  MAXIMUM  AVERAGE  MAXIMUM
 CP2K                                 1  1.0    0.014    0.014   31.291   31.291
 qs_energies                          1  2.0    0.000    0.000   30.850   30.850
 ls_scf                               1  3.0    0.000    0.000   30.708   30.708
 ls_scf_main                          4  4.0    0.001    0.001   18.962   18.962
 ls_scf_dm_to_ks                      9  5.0    0.000    0.000   18.846   18.846
 qs_ks_update_qs_env                 10  6.0    0.000    0.000   14.632   14.632
 rebuild_ks_matrix                   10  7.0    0.000    0.000   14.631   14.631
 qs_ks_build_kohn_sham_matrix        10  8.0    0.001    0.001   14.631   14.631
 pao_update                           4  4.0    0.010    0.010    9.542    9.542
 qs_vxc_create                       10  9.0    0.000    0.000    8.685    8.685
 xc_vxc_pw_create                    10 10.0    0.112    0.112    8.685    8.685
 pao_calc_energy                    430  5.0    0.004    0.004    8.594    8.594
 dbcsr_multiply_generic           23559  8.4    0.464    0.464    7.418    7.418
 xc_rho_set_and_dset_create          10 11.0    0.032    0.032    6.380    6.380
 qs_rho_update_rho                   10  6.0    0.000    0.000    6.333    6.333
 calculate_rho_elec                  10  7.0    4.925    4.925    6.333    6.333
 pw_transfer                        191 10.6    0.013    0.013    6.134    6.134
 fft_wrap_pw1pw2                    171 11.7    0.002    0.002    6.036    6.036
 fft_wrap_pw1pw2_200                111 12.8    0.323    0.323    5.764    5.764
 sum_up_and_integrate                10  9.0    0.017    0.017    4.964    4.964
 integrate_v_rspace                  10 10.0    4.298    4.298    4.946    4.946
 pao_dm_trs4                        430  6.0    0.003    0.003    4.478    4.478
 xc_functional_eval                  10 12.0    0.000    0.000    4.382    4.382
 pbe_lda_eval                        10 13.0    4.382    4.382    4.382    4.382
 density_matrix_trs4                439  7.0    0.174    0.174    4.336    4.336
 ls_scf_init_matrix_S               434  7.0    0.003    0.003    4.119    4.119
 pao_rebuild_S                      430  6.0    0.002    0.002    4.075    4.075
 matrix_sqrt_Newton_Schulz          434  8.0    0.102    0.102    3.695    3.695
 multiply_cannon                  23559  9.4    1.215    1.215    3.467    3.467
 fft3d_s                            172 13.6    3.246    3.246    3.262    3.262
 make_m2s                         47118  9.4    0.171    0.171    2.360    2.360
 pao_guess_initial_P                  1  4.0    0.000    0.000    2.125    2.125
 pao_read_preopt_dm                   1  5.0    0.000    0.000    2.125    2.125
 make_images                      47118 10.4    0.567    0.567    2.080    2.080
 density_rs2pw                       10  8.0    0.001    0.001    1.394    1.394
 pw_gather_s                         81 13.1    1.307    1.307    1.307    1.307
 multiply_cannon_multrec          23559 10.4    1.188    1.188    1.303    1.303
 pw_scatter_s                        90 14.2    1.127    1.127    1.127    1.127
 arnoldi_extremal                   873  8.5    0.004    0.004    1.003    1.003
 arnoldi_normal_ev                  873  9.5    0.012    0.012    0.999    0.999
 pao_calc_AB                        567  5.8    0.001    0.001    0.929    0.929
 pao_calc_AB_direct                 567  6.8    0.026    0.026    0.928    0.928
 pao_calc_grad_lnv_wrt_AB           136  7.0    0.007    0.007    0.875    0.875
 build_subspace                     873 10.5    0.055    0.055    0.752    0.752
 dbcsr_finalize                   56185  9.6    0.117    0.117    0.690    0.690
 dbcsr_matrix_vector_mult         20895 11.5    0.110    0.110    0.674    0.674
 potential_pw2rs                     10 11.0    0.003    0.003    0.647    0.647
 dbcsr_create_new                180157 10.7    0.344    0.344    0.646    0.646
 -------------------------------------------------------------------------------

 The number of warnings for this run is : 0
 
 -------------------------------------------------------------------------------
  **** **** ******  **  PROGRAM ENDED AT                 2019-03-28 17:33:27.376
 ***** ** ***  *** **   PROGRAM RAN ON            oleschuett.zrh.corp.google.com
 **    ****   ******    PROGRAM RAN BY                                oleschuett
 ***** **    ** ** **   PROGRAM PROCESS ID                                 32640
  **** **  *******  **  PROGRAM STOPPED IN /usr/local/google/home/oleschuett/git
                                           /pao_ml_equivar/2H2O_rotations/phi_28
