 DBCSR| CPU Multiplication driver                                           BLAS
 DBCSR| Multrec recursion limit                                              512
 DBCSR| Multiplication stack size                                           1000
 DBCSR| Maximum elements for images                                    UNLIMITED
 DBCSR| Multiplicative factor virtual images                                   1
 DBCSR| Use multiplication densification                                       T
 DBCSR| Multiplication size stacks                                             3


  **** **** ******  **  PROGRAM STARTED AT               2019-03-28 17:33:29.611
 ***** ** ***  *** **   PROGRAM STARTED ON        oleschuett.zrh.corp.google.com
 **    ****   ******    PROGRAM STARTED BY                            oleschuett
 ***** **    ** ** **   PROGRAM PROCESS ID                                 34259
  **** **  *******  **  PROGRAM STARTED IN /usr/local/google/home/oleschuett/git
                                           /pao_ml_equivar/2H2O_rotations/rand_0
                                           1

 CP2K| version string:                    CP2K version 7.0 (Development Version)
 CP2K| source code revision number:                                git:d9814d431
 CP2K| cp2kflags: libint fftw3 libxc libderiv_max_am1=5 libint_max_am=6         
 CP2K| is freely available from                            https://www.cp2k.org/
 CP2K| Program compiled at                          Mon Mar 25 16:50:07 CET 2019
 CP2K| Program compiled on                        oleschuett.zrh.corp.google.com
 CP2K| Program compiled for                                                local
 CP2K| Data directory path       /usr/local/google/home/oleschuett/git/cp2k/data
 CP2K| Input file name                                            2H2O_pao44.inp

 GLOBAL| Force Environment number                                              1
 GLOBAL| Basis set file name                                        BASIS_MOLOPT
 GLOBAL| Potential file name                                      GTH_POTENTIALS
 GLOBAL| MM Potential file name                                     MM_POTENTIAL
 GLOBAL| Coordinate file name                                         coords.xyz
 GLOBAL| Method name                                                        CP2K
 GLOBAL| Project name                                                 2H2O_pao44
 GLOBAL| Preferred FFT library                                             FFTW3
 GLOBAL| Preferred diagonalization lib.                                       SL
 GLOBAL| Run type                                                         ENERGY
 GLOBAL| All-to-all communication in single precision                          F
 GLOBAL| FFTs using library dependent lengths                                  F
 GLOBAL| Global print level                                                  LOW
 GLOBAL| MPI I/O enabled                                                       T
 GLOBAL| Total number of message passing processes                             1
 GLOBAL| Number of threads for this process                                    1
 GLOBAL| This output is from process                                           0
 GLOBAL| CPU model name :  Intel(R) Xeon(R) CPU E5-1650 v4 @ 3.60GHz

 MEMORY| system memory details [Kb]
 MEMORY|                        rank 0           min           max       average
 MEMORY| MemTotal             65953612      65953612      65953612      65953612
 MEMORY| MemFree               4271576       4271576       4271576       4271576
 MEMORY| Buffers               2543220       2543220       2543220       2543220
 MEMORY| Cached               25363776      25363776      25363776      25363776
 MEMORY| Slab                  3622420       3622420       3622420       3622420
 MEMORY| SReclaimable          2421472       2421472       2421472       2421472
 MEMORY| MemLikelyFree        34600044      34600044      34600044      34600044


 GENERATE|  Preliminary Number of Bonds generated:                             0
 GENERATE|  Achieved consistency in connectivity generation.

 *******************************************************************************
 *******************************************************************************
 **                                                                           **
 **     #####                         ##              ##                      **
 **    ##   ##            ##          ##              ##                      **
 **   ##     ##                       ##            ######                    **
 **   ##     ##  ##   ##  ##   #####  ##  ##   ####   ##    #####    #####    **
 **   ##     ##  ##   ##  ##  ##      ## ##   ##      ##   ##   ##  ##   ##   **
 **   ##  ## ##  ##   ##  ##  ##      ####     ###    ##   ######   ######    **
 **    ##  ###   ##   ##  ##  ##      ## ##      ##   ##   ##       ##        **
 **     #######   #####   ##   #####  ##  ##  ####    ##    #####   ##        **
 **           ##                                                    ##        **
 **                                                                           **
 **                                                ... make the atoms dance   **
 **                                                                           **
 **            Copyright (C) by CP2K developers group (2000 - 2018)           **
 **                                                                           **
 *******************************************************************************


 TOTAL NUMBERS AND MAXIMUM NUMBERS

  Total number of            - Atomic kinds:                                   2
                             - Atoms:                                          6
                             - Shell sets:                                     6
                             - Shells:                                        22
                             - Primitive Cartesian functions:                 42
                             - Cartesian basis functions:                     48
                             - Spherical basis functions:                     46

  Maximum angular momentum of- Orbital basis functions:                        2
                             - Local part of the GTH pseudopotential:          2
                             - Non-local part of the GTH pseudopotential:      0

 ------------------------------ Linear scaling SCF -----------------------------
 eps_scf:                                                              0.100E-07
 eps_filter:                                                           0.100E-07
 mixing_fraction:                                                      0.450E+00
 max_scf:                                                                     25
 fixed chemical potential (mu)                                                 F
 has unit metric:                                                              F
 Computing inv(S):                                                             T
 Computing sqrt(S):                                                            T
 Computing s preconditioner                                                    F
 sign sqrt order:                                                              3
 Extrapolation order:                                                          1
 Use single precision matrices                                                 F
 S preconditioner type                                                      NONE
 Polarized Atomic Orbitals (PAO)                                               T
 Purification method                                   Trace resetting 4th order
 Cluster type                                                             ATOMIC
 Computing Chebyshev                                                       FALSE
 Using PAO                                                                     T
 -------------------------------------------------------------------------------

 
 PAO|                                  EPS_PAO                           0.1E-04
 PAO|                                  MIXING                            0.5E+00
 PAO|                                  MAX_PAO                              1000
 PAO|                                  MAX_CYCLES                           1000
 PAO|                                  PARAMETERIZATION                   DIRECT
 PAO|                                  PRECONDITION                            F
 PAO|                                  REGULARIZATION                    0.0E+00
 PAO|                                  EPS_PGF                           0.1E-09
 PAO|                                  PENALTY_DISTANCE                  0.1E+00
 PAO|                                  PENALTY_STRENGTH                  0.5E-02
 PAO|                                  LINPOT_PRECONDITION_DELTA         0.0E+00
 PAO|                                  LINPOT_INITGUESS_DELT             0.0E+00
 PAO|                                  LINPOT_REGULARIZATION_DELTA       0.0E+00
 PAO|                                  LINPOT_REGULARIZATION_STRENGTH    0.0E+00
 PAO|                                  OPTIMIZER                              CG
 PAO|                                  CG_INIT_STEPS                           2
 PAO|                                  CG_RESET_LIMIT                    0.1E+00
 PAO|                                  CHECK_UNITARY_TOL                -0.1E+01
 PAO|                                  CHECK_GRADIENT_TOL               -0.1E+01
 PAO|                                  NUM_GRADIENT_ORDER                      2
 PAO|                                  NUM_GRADIENT_EPS                  0.1E-07
 PAO|                                  PRINT%RESTART%WRITE_CYCLES            100
 PAO|                                  RESTART_FILE 
 PAO|                                  PREOPT_DM_FILE 2H2O_ref_LS_DM_SPIN_1_RESTART.dm
 PAO|                                  MACHINE_LEARNING%METHOD        GAUSSIAN_P
 PAO|                                  MACHINE_LEARNING%PRIOR               ZERO
 PAO|                                  MACHINE_LEARNING%DESCRIPTOR     POTENTIAL
 PAO|                                  MACHINE_LEARNING%TOLERANCE        0.1E-01
 PAO|                                  MACHINE_LEARNING%GP_NOISE_VAR     0.1E+00
 PAO|                                  MACHINE_LEARNING%GP_SCALE         0.5E-01
 

 Calculating atomic Fock matrix for atomic kind: O

 Electronic structure
    Total number of core electrons                                          2.00
    Total number of valence electrons                                       6.00
    Total number of electrons                                               8.00
    Multiplicity                                                   not specified
    S   [  2.00] 2.00
    P      4.00


 *******************************************************************************
                  Iteration          Convergence                     Energy [au]
 *******************************************************************************
                          1        0.708315                     -15.576645311500
                          2        0.608879                     -15.587933561584
                          3        0.102828E-01                 -15.656849565404
                          4        0.113889E-02                 -15.656866888140
                          5        0.434197E-03                 -15.656867072159
                          6        0.263771E-03                 -15.656867091904
                          7        0.478536E-06                 -15.656867103452

 Energy components [Hartree]           Total Energy ::          -15.656867103452
                                        Band Energy ::           -3.000198112285
                                     Kinetic Energy ::           11.759971203220
                                   Potential Energy ::          -27.416838306672
                                      Virial (-V/T) ::            2.331369510426
                                        Core Energy ::          -26.140716385623
                                          XC Energy ::           -3.154051012914
                                     Coulomb Energy ::           13.637900295084
                       Total Pseudopotential Energy ::          -37.935781716540
                       Local Pseudopotential Energy ::          -39.218907440693
                    Nonlocal Pseudopotential Energy ::            1.283125724153
                                        Confinement ::            0.350941276976

 Orbital energies  State     L     Occupation   Energy[a.u.]          Energy[eV]

                       1     0          2.000      -0.864471          -23.523463

                       1     1          4.000      -0.317814           -8.648154


 Total Electron Density at R=0:                                         0.000068

 Calculating atomic Fock matrix for atomic kind: H

 Electronic structure
    Total number of core electrons                                          0.00
    Total number of valence electrons                                       1.00
    Total number of electrons                                               1.00
    Multiplicity                                                   not specified
    S      1.00


 *******************************************************************************
                  Iteration          Convergence                     Energy [au]
 *******************************************************************************
                          1        0.437545E-02                  -0.424159432110
                          2        0.531356E-03                  -0.424178438213
                          3        0.259176E-06                  -0.424178722480

 Energy components [Hartree]           Total Energy ::           -0.424178722480
                                        Band Energy ::           -0.199015229016
                                     Kinetic Energy ::            0.464007633961
                                   Potential Energy ::           -0.888186356441
                                      Virial (-V/T) ::            1.914163240935
                                        Core Energy ::           -0.479160803564
                                          XC Energy ::           -0.244352904054
                                     Coulomb Energy ::            0.299334985138
                       Total Pseudopotential Energy ::           -0.962295316385
                       Local Pseudopotential Energy ::           -0.962295316385
                    Nonlocal Pseudopotential Energy ::            0.000000000000
                                        Confinement ::            0.191268788606

 Orbital energies  State     L     Occupation   Energy[a.u.]          Energy[eV]

                       1     0          1.000      -0.199015           -5.415480


 Total Electron Density at R=0:                                         0.242907
 PAO| Made initial guess for matrix_X with norm:   4.8989794855663558     

     Lanczos converged:  T threshold:   0.100E-02
     Est. extremal eigenvalues:    0.337E+01   0.113E+00
     Est. condition number :    0.299E+02
     NS sqrt iter    1 1.00000000   0.822E+00       0.002       40.889
     NS sqrt iter    2 1.00000000   0.440E+00       0.002       63.665
     NS sqrt iter    3 1.00000000   0.171E+00       0.002       64.329
     NS sqrt iter    4 1.00000000   0.210E-01       0.002       62.185
     NS sqrt iter    5 1.00000000   0.587E-04       0.002       53.417
     Final NS sqrt iter    5 1.00000000   0.237E-08

 PAO| Read restart DM 2H2O_ref_LS_DM_SPIN_1_RESTART.dm with checksum:    58.525827965718406     
 PAO| Quickstep energy from restart density:  -34.450022696403359     
 PAO| ======================= Iteration:         1 =============================

     Lanczos converged:  T threshold:   0.100E-02
     Est. extremal eigenvalues:    0.337E+01   0.113E+00
     Est. condition number :    0.299E+02
     NS sqrt iter    1 1.00000000   0.822E+00       0.002       41.769
     NS sqrt iter    2 1.00000000   0.440E+00       0.002       64.420
     NS sqrt iter    3 1.00000000   0.171E+00       0.002       62.248
     NS sqrt iter    4 1.00000000   0.210E-01       0.002       65.622
     NS sqrt iter    5 1.00000000   0.587E-04       0.002       57.479
     Final NS sqrt iter    5 1.00000000   0.237E-08

     Est. extremal eigenvalues     -0.92058     1.91868  converged:  T
     TRS4 it   1 1.00000000   0.896E+00       0.001       16.128   0.100E-07
     TRS4 it   2 1.00000000   0.701E+00       0.001       32.256   0.100E-07
     TRS4 it   3 1.00000000   0.503E+00       0.001       32.256   0.100E-07
     TRS4 it   4 1.00000000   0.316E+00       0.001       32.256   0.100E-07
     TRS4 it   5 1.00000000   0.158E+00       0.001       32.256   0.100E-07
     TRS4 it   6 1.00000000   0.502E-01       0.001       32.256   0.100E-07
     TRS4 it   7 1.00000000   0.707E-02       0.001       32.256   0.100E-07
     TRS4 it   8 1.00000000   0.200E-03       0.001       32.256   0.100E-07
     TRS4 it   9 1.00000000   0.178E-06       0.001       32.256   0.100E-07
     TRS4 it  10 1.00000000   0.143E-12       0.001       32.256   0.100E-07
     Final TRS4 iteration   10 1.00000000   0.143E-12
     Chemical potential (mu):      -0.06421
 
 PAO| energy:  -7.6197151432727903      penalty:   3.0814879110195774E-033
 PAO|CG| warming up with steepest descent
 PAO|CG| beta:    0.0000000000000000     
 PAO| norm of gradient:  0.78408320474395554     
 PAO|LS| adapt:  T F F
 PAO|LS| adapt: scan_steps:    0.0000000000000000        0.0000000000000000        0.0000000000000000     
 PAO|LS| adapt: energies:   -7.6197151432727903        0.0000000000000000        0.0000000000000000     
 PAO| ======================= Iteration:         2 =============================

     Lanczos converged:  T threshold:   0.100E-02
     Est. extremal eigenvalues:    0.328E+01   0.125E+00
     Est. condition number :    0.262E+02
     NS sqrt iter    1 1.00000000   0.805E+00       0.002       41.019
     NS sqrt iter    2 1.00000000   0.424E+00       0.002       65.045
     NS sqrt iter    3 1.00000000   0.153E+00       0.002       65.555
     NS sqrt iter    4 1.00000000   0.145E-01       0.002       65.794
     NS sqrt iter    5 1.00000000   0.193E-04       0.002       53.833
     Final NS sqrt iter    5 1.00000000   0.572E-09

     Est. extremal eigenvalues     -0.92426     1.85998  converged:  T
     TRS4 it   1 1.00000000   0.893E+00       0.001       16.128   0.100E-07
     TRS4 it   2 1.00000000   0.681E+00       0.001       32.256   0.100E-07
     TRS4 it   3 1.00000000   0.487E+00       0.001       32.256   0.100E-07
     TRS4 it   4 1.00000000   0.296E+00       0.001       32.256   0.100E-07
     TRS4 it   5 1.00000000   0.138E+00       0.001       32.256   0.100E-07
     TRS4 it   6 1.00000000   0.388E-01       0.001       32.256   0.100E-07
     TRS4 it   7 1.00000000   0.430E-02       0.001       32.256   0.100E-07
     TRS4 it   8 1.00000000   0.745E-04       0.001       32.256   0.100E-07
     TRS4 it   9 1.00000000   0.248E-07       0.001       32.256   0.100E-07
     Final TRS4 iteration    9 1.00000000   0.248E-07
     Chemical potential (mu):      -0.05237
 
 PAO| energy:  -7.6752798517858620      penalty:   2.2597399466688593E-008
 PAO|LS| adapt:  T T F
 PAO|LS| adapt: scan_steps:    0.0000000000000000       0.10000000000000001        0.0000000000000000     
 PAO|LS| adapt: energies:   -7.6197151432727903       -7.6752798517858620        0.0000000000000000     
 PAO| ======================= Iteration:         3 =============================

     Lanczos converged:  T threshold:   0.100E-02
     Est. extremal eigenvalues:    0.319E+01   0.136E+00
     Est. condition number :    0.234E+02
     NS sqrt iter    1 1.00000000   0.787E+00       0.002       40.436
     NS sqrt iter    2 1.00000000   0.408E+00       0.002       63.739
     NS sqrt iter    3 1.00000000   0.136E+00       0.002       65.096
     NS sqrt iter    4 1.00000000   0.100E-01       0.002       63.531
     NS sqrt iter    5 1.00000000   0.654E-05       0.002       51.783
     Final NS sqrt iter    5 1.00000000   0.661E-10

     Est. extremal eigenvalues     -0.92770     1.81168  converged:  T
     TRS4 it   1 1.00000000   0.890E+00       0.001       16.128   0.100E-07
     TRS4 it   2 1.00000000   0.664E+00       0.001       32.256   0.100E-07
     TRS4 it   3 1.00000000   0.471E+00       0.001       32.256   0.100E-07
     TRS4 it   4 1.00000000   0.276E+00       0.001       32.256   0.100E-07
     TRS4 it   5 1.00000000   0.120E+00       0.001       32.256   0.100E-07
     TRS4 it   6 1.00000000   0.291E-01       0.001       32.256   0.100E-07
     TRS4 it   7 1.00000000   0.242E-02       0.001       32.256   0.100E-07
     TRS4 it   8 1.00000000   0.236E-04       0.001       32.256   0.100E-07
     TRS4 it   9 1.00000000   0.249E-08       0.001       32.256   0.100E-07
     Final TRS4 iteration    9 1.00000000   0.249E-08
     Chemical potential (mu):      -0.03956
 
 PAO| energy:  -7.7183600117949211      penalty:   3.6155837408738796E-007
 PAO|LS| adapt:  T T F
 PAO|LS| adapt: scan_steps:    0.0000000000000000       0.20000000000000001        0.0000000000000000     
 PAO|LS| adapt: energies:   -7.6197151432727903       -7.7183600117949211        0.0000000000000000     
 PAO| ======================= Iteration:         4 =============================

     Lanczos converged:  T threshold:   0.100E-02
     Est. extremal eigenvalues:    0.299E+01   0.156E+00
     Est. condition number :    0.192E+02
     NS sqrt iter    1 1.00000000   0.750E+00       0.002       41.628
     NS sqrt iter    2 1.00000000   0.373E+00       0.002       64.868
     NS sqrt iter    3 1.00000000   0.106E+00       0.002       65.307
     NS sqrt iter    4 1.00000000   0.487E-02       0.002       63.889
     NS sqrt iter    5 1.00000000   0.884E-06       0.002       53.334
     Final NS sqrt iter    5 1.00000000   0.128E-11

     Est. extremal eigenvalues     -0.93302     1.73934  converged:  T
     TRS4 it   1 1.00000000   0.884E+00       0.001       16.128   0.100E-07
     TRS4 it   2 1.00000000   0.635E+00       0.001       32.256   0.100E-07
     TRS4 it   3 1.00000000   0.441E+00       0.001       32.256   0.100E-07
     TRS4 it   4 1.00000000   0.238E+00       0.001       32.256   0.100E-07
     TRS4 it   5 1.00000000   0.875E-01       0.001       32.256   0.100E-07
     TRS4 it   6 1.00000000   0.151E-01       0.001       32.256   0.100E-07
     TRS4 it   7 1.00000000   0.622E-03       0.001       32.256   0.100E-07
     TRS4 it   8 1.00000000   0.153E-05       0.001       32.256   0.100E-07
     TRS4 it   9 1.00000000   0.104E-10       0.001       32.256   0.100E-07
     Final TRS4 iteration    9 1.00000000   0.104E-10
     Chemical potential (mu):      -0.01134
 
 PAO| energy:  -7.7654935019108944      penalty:   5.7849338463647049E-006
 PAO|LS| Need extra step
 PAO|LS| adapt:  T T F
 PAO|LS| adapt: scan_steps:    0.0000000000000000       0.40000000000000002        0.0000000000000000     
 PAO|LS| adapt: energies:   -7.6197151432727903       -7.7654935019108944        0.0000000000000000     
 PAO| ======================= Iteration:         5 =============================

     Lanczos converged:  T threshold:   0.100E-02
     Est. extremal eigenvalues:    0.263E+01   0.185E+00
     Est. condition number :    0.142E+02
     NS sqrt iter    1 1.00000000   0.684E+00       0.002       41.278
     NS sqrt iter    2 1.00000000   0.310E+00       0.002       64.945
     NS sqrt iter    3 1.00000000   0.651E-01       0.002       64.795
     NS sqrt iter    4 1.00000000   0.129E-02       0.002       64.893
     NS sqrt iter    5 1.00000000   0.195E-07       0.001       37.621
     Final NS sqrt iter    5 1.00000000   0.612E-09

     Est. extremal eigenvalues     -0.93422     1.65527  converged:  T
     TRS4 it   1 1.00000000   0.876E+00       0.001       16.128   0.100E-07
     TRS4 it   2 1.00000000   0.595E+00       0.001       32.256   0.100E-07
     TRS4 it   3 1.00000000   0.390E+00       0.008        3.967   0.100E-07
     TRS4 it   4 1.00000000   0.179E+00       0.001       32.256   0.100E-07
     TRS4 it   5 1.00000000   0.461E-01       0.001       32.256   0.100E-07
     TRS4 it   6 1.00000000   0.379E-02       0.001       32.256   0.100E-07
     TRS4 it   7 1.00000000   0.330E-04       0.001       32.256   0.100E-07
     TRS4 it   8 1.00000000   0.314E-08       0.001       32.256   0.100E-07
     Final TRS4 iteration    8 1.00000000   0.314E-08
     Chemical potential (mu):       0.03860
 
 PAO| energy:  -7.7103924131497212      penalty:   9.2558940429583156E-005
 PAO|LS| Need extra step
 PAO|LS| adapt:  T T T
 PAO|LS| adapt: scan_steps:    0.0000000000000000       0.40000000000000002       0.80000000000000004     
 PAO|LS| adapt: energies:   -7.6197151432727903       -7.7654935019108944       -7.7103924131497212     
 PAO|LS| adapt: suggested step_size:   0.49028028606301033     
 PAO|LS| adapt: predicted energy  -7.7706099830758335     
 PAO| ======================= Iteration:         6 =============================

     Lanczos converged:  T threshold:   0.100E-02
     Est. extremal eigenvalues:    0.290E+01   0.163E+00
     Est. condition number :    0.178E+02
     NS sqrt iter    1 1.00000000   0.733E+00       0.002       41.735
     NS sqrt iter    2 1.00000000   0.358E+00       0.002       65.897
     NS sqrt iter    3 1.00000000   0.947E-01       0.002       67.325
     NS sqrt iter    4 1.00000000   0.356E-02       0.002       64.606
     NS sqrt iter    5 1.00000000   0.370E-06       0.002       52.985
     Final NS sqrt iter    5 1.00000000   0.803E-11

     Est. extremal eigenvalues     -0.93449     1.71470  converged:  T
     TRS4 it   1 1.00000000   0.882E+00       0.001       16.128   0.100E-07
     TRS4 it   2 1.00000000   0.624E+00       0.001       32.256   0.100E-07
     TRS4 it   3 1.00000000   0.428E+00       0.001       32.256   0.100E-07
     TRS4 it   4 1.00000000   0.223E+00       0.001       32.256   0.100E-07
     TRS4 it   5 1.00000000   0.754E-01       0.001       32.256   0.100E-07
     TRS4 it   6 1.00000000   0.109E-01       0.001       32.256   0.100E-07
     TRS4 it   7 1.00000000   0.315E-03       0.001       32.256   0.100E-07
     TRS4 it   8 1.00000000   0.375E-06       0.001       32.256   0.100E-07
     TRS4 it   9 1.00000000   0.624E-12       0.001       32.256   0.100E-07
     Final TRS4 iteration    9 1.00000000   0.624E-12
     Chemical potential (mu):       0.00226
 
 PAO| energy:  -7.7698565679331564      penalty:   1.3056781998090387E-005
 PAO|CG| warming up with steepest descent
 PAO|CG| beta:    0.0000000000000000     
 PAO| norm of gradient:  0.41622366804020466     
 PAO| energy improvement: -0.15014142466036606     
 PAO| step      6                   -7.769856568  0.260E-01  0.490E+00     0.135
 PAO|LS| adapt:  T F F
 PAO|LS| adapt: scan_steps:    0.0000000000000000        0.0000000000000000        0.0000000000000000     
 PAO|LS| adapt: energies:   -7.7698565679331564        0.0000000000000000        0.0000000000000000     
 PAO| ======================= Iteration:         7 =============================

     Lanczos converged:  T threshold:   0.100E-02
     Est. extremal eigenvalues:    0.281E+01   0.177E+00
     Est. condition number :    0.159E+02
     NS sqrt iter    1 1.00000000   0.715E+00       0.002       42.257
     NS sqrt iter    2 1.00000000   0.337E+00       0.002       65.795
     NS sqrt iter    3 1.00000000   0.792E-01       0.002       65.344
     NS sqrt iter    4 1.00000000   0.217E-02       0.002       64.208
     NS sqrt iter    5 1.00000000   0.936E-07       0.002       50.611
     Final NS sqrt iter    5 1.00000000   0.780E-09

     Est. extremal eigenvalues     -0.93620     1.70300  converged:  T
     TRS4 it   1 1.00000000   0.882E+00       0.001       16.128   0.100E-07
     TRS4 it   2 1.00000000   0.623E+00       0.001       32.256   0.100E-07
     TRS4 it   3 1.00000000   0.428E+00       0.001       32.256   0.100E-07
     TRS4 it   4 1.00000000   0.224E+00       0.001       32.256   0.100E-07
     TRS4 it   5 1.00000000   0.763E-01       0.001       32.256   0.100E-07
     TRS4 it   6 1.00000000   0.109E-01       0.001       32.256   0.100E-07
     TRS4 it   7 1.00000000   0.300E-03       0.001       32.256   0.100E-07
     TRS4 it   8 1.00000000   0.326E-06       0.001       32.256   0.100E-07
     TRS4 it   9 1.00000000   0.465E-12       0.001       32.256   0.100E-07
     Final TRS4 iteration    9 1.00000000   0.465E-12
     Chemical potential (mu):       0.00375
 
 PAO| energy:  -7.7640668136827200      penalty:   1.9680303113594491E-005
 PAO|LS| adapt:  T F T
 PAO|LS| adapt: scan_steps:    0.0000000000000000        0.0000000000000000       0.49028028606301033     
 PAO|LS| adapt: energies:   -7.7698565679331564        0.0000000000000000       -7.7640668136827200     
 PAO| ======================= Iteration:         8 =============================

     Lanczos converged:  T threshold:   0.100E-02
     Est. extremal eigenvalues:    0.286E+01   0.170E+00
     Est. condition number :    0.168E+02
     NS sqrt iter    1 1.00000000   0.724E+00       0.002       41.464
     NS sqrt iter    2 1.00000000   0.347E+00       0.002       64.602
     NS sqrt iter    3 1.00000000   0.868E-01       0.002       64.734
     NS sqrt iter    4 1.00000000   0.280E-02       0.002       65.516
     NS sqrt iter    5 1.00000000   0.190E-06       0.002       51.458
     Final NS sqrt iter    5 1.00000000   0.106E-08

     Est. extremal eigenvalues     -0.93630     1.70824  converged:  T
     TRS4 it   1 1.00000000   0.881E+00       0.001       16.128   0.100E-07
     TRS4 it   2 1.00000000   0.623E+00       0.001       32.256   0.100E-07
     TRS4 it   3 1.00000000   0.428E+00       0.001       32.256   0.100E-07
     TRS4 it   4 1.00000000   0.223E+00       0.001       32.256   0.100E-07
     TRS4 it   5 1.00000000   0.757E-01       0.001       32.256   0.100E-07
     TRS4 it   6 1.00000000   0.110E-01       0.001       32.256   0.100E-07
     TRS4 it   7 1.00000000   0.316E-03       0.001       30.082   0.100E-07
     TRS4 it   8 1.00000000   0.373E-06       0.001       32.256   0.100E-07
     TRS4 it   9 1.00000000   0.613E-12       0.001       32.256   0.100E-07
     Final TRS4 iteration    9 1.00000000   0.613E-12
     Chemical potential (mu):       0.00251
 
 PAO| energy:  -7.7894101461601881      penalty:   1.4142167462517592E-005
 PAO|LS| adapt:  T T T
 PAO|LS| adapt: scan_steps:    0.0000000000000000       0.24514014303150516       0.49028028606301033     
 PAO|LS| adapt: energies:   -7.7698565679331564       -7.7894101461601881       -7.7640668136827200     
 PAO|LS| adapt: suggested step_size:   0.22933391981037177     
 PAO|LS| adapt: predicted energy  -7.7895034745589431     
 PAO| ======================= Iteration:         9 =============================

     Lanczos converged:  T threshold:   0.100E-02
     Est. extremal eigenvalues:    0.286E+01   0.169E+00
     Est. condition number :    0.169E+02
     NS sqrt iter    1 1.00000000   0.725E+00       0.002       41.743
     NS sqrt iter    2 1.00000000   0.348E+00       0.002       65.080
     NS sqrt iter    3 1.00000000   0.873E-01       0.002       65.358
     NS sqrt iter    4 1.00000000   0.284E-02       0.002       65.512
     NS sqrt iter    5 1.00000000   0.198E-06       0.001       53.987
     Final NS sqrt iter    5 1.00000000   0.108E-08

     Est. extremal eigenvalues     -0.93625     1.70862  converged:  T
     TRS4 it   1 1.00000000   0.881E+00       0.001       16.128   0.100E-07
     TRS4 it   2 1.00000000   0.623E+00       0.001       32.256   0.100E-07
     TRS4 it   3 1.00000000   0.428E+00       0.001       32.256   0.100E-07
     TRS4 it   4 1.00000000   0.223E+00       0.001       32.256   0.100E-07
     TRS4 it   5 1.00000000   0.756E-01       0.001       32.256   0.100E-07
     TRS4 it   6 1.00000000   0.110E-01       0.001       32.256   0.100E-07
     TRS4 it   7 1.00000000   0.317E-03       0.001       32.256   0.100E-07
     TRS4 it   8 1.00000000   0.374E-06       0.001       32.256   0.100E-07
     TRS4 it   9 1.00000000   0.619E-12       0.001       32.256   0.100E-07
     Final TRS4 iteration    9 1.00000000   0.619E-12
     Chemical potential (mu):       0.00246
 
 PAO| energy:  -7.7895266516496608      penalty:   1.3975176894387404E-005
 PAO|CG| trace_G_new    3.6567641869811193E-002
 PAO|CG| trace_G_prev   0.17324214183684250     
 PAO|CG| trace_G_mix   -1.4200492558331334E-003
 PAO|CG| trace_D   0.17324214183684250     
 PAO|CG| trace_D_Gnew   1.4200492558331334E-003
 PAO|CG| beta:   0.21927511818354628     
 PAO| norm of gradient:  0.19122667666884555     
 PAO| energy improvement:  -1.9670083716504472E-002
 PAO| step      9                   -7.789526652  0.120E-01  0.229E+00     0.080
 PAO|LS| adapt:  T F F
 PAO|LS| adapt: scan_steps:    0.0000000000000000        0.0000000000000000        0.0000000000000000     
 PAO|LS| adapt: energies:   -7.7895266516496608        0.0000000000000000        0.0000000000000000     
 PAO| ======================= Iteration:        10 =============================

     Lanczos converged:  T threshold:   0.100E-02
     Est. extremal eigenvalues:    0.282E+01   0.175E+00
     Est. condition number :    0.161E+02
     NS sqrt iter    1 1.00000000   0.717E+00       0.002       41.106
     NS sqrt iter    2 1.00000000   0.340E+00       0.002       64.946
     NS sqrt iter    3 1.00000000   0.817E-01       0.002       65.062
     NS sqrt iter    4 1.00000000   0.233E-02       0.002       64.861
     NS sqrt iter    5 1.00000000   0.109E-06       0.002       50.681
     Final NS sqrt iter    5 1.00000000   0.907E-09

     Est. extremal eigenvalues     -0.93714     1.70235  converged:  T
     TRS4 it   1 1.00000000   0.879E+00       0.001       16.128   0.100E-07
     TRS4 it   2 1.00000000   0.621E+00       0.001       32.256   0.100E-07
     TRS4 it   3 1.00000000   0.425E+00       0.001       32.256   0.100E-07
     TRS4 it   4 1.00000000   0.220E+00       0.001       32.256   0.100E-07
     TRS4 it   5 1.00000000   0.734E-01       0.001       32.256   0.100E-07
     TRS4 it   6 1.00000000   0.103E-01       0.001       32.256   0.100E-07
     TRS4 it   7 1.00000000   0.274E-03       0.001       32.256   0.100E-07
     TRS4 it   8 1.00000000   0.275E-06       0.001       32.256   0.100E-07
     TRS4 it   9 1.00000000   0.330E-12       0.001       32.256   0.100E-07
     Final TRS4 iteration    9 1.00000000   0.330E-12
     Chemical potential (mu):       0.00550
 
 PAO| energy:  -7.7945095139706950      penalty:   1.4502845436965271E-005
 PAO|LS| adapt:  T T F
 PAO|LS| adapt: scan_steps:    0.0000000000000000       0.22933391981037177        0.0000000000000000     
 PAO|LS| adapt: energies:   -7.7895266516496608       -7.7945095139706950        0.0000000000000000     
 PAO| ======================= Iteration:        11 =============================

     Lanczos converged:  T threshold:   0.100E-02
     Est. extremal eigenvalues:    0.278E+01   0.181E+00
     Est. condition number :    0.154E+02
     NS sqrt iter    1 1.00000000   0.709E+00       0.002       41.571
     NS sqrt iter    2 1.00000000   0.331E+00       0.002       65.419
     NS sqrt iter    3 1.00000000   0.763E-01       0.002       66.083
     NS sqrt iter    4 1.00000000   0.191E-02       0.002       64.932
     NS sqrt iter    5 1.00000000   0.588E-07       0.002       47.267
     Final NS sqrt iter    5 1.00000000   0.789E-09

     Est. extremal eigenvalues     -0.93705     1.69718  converged:  T
     TRS4 it   1 1.00000000   0.877E+00       0.001       16.128   0.100E-07
     TRS4 it   2 1.00000000   0.619E+00       0.001       32.256   0.100E-07
     TRS4 it   3 1.00000000   0.423E+00       0.001       32.256   0.100E-07
     TRS4 it   4 1.00000000   0.217E+00       0.001       32.256   0.100E-07
     TRS4 it   5 1.00000000   0.713E-01       0.001       32.256   0.100E-07
     TRS4 it   6 1.00000000   0.966E-02       0.001       32.256   0.100E-07
     TRS4 it   7 1.00000000   0.237E-03       0.001       32.256   0.100E-07
     TRS4 it   8 1.00000000   0.199E-06       0.001       32.256   0.100E-07
     TRS4 it   9 1.00000000   0.172E-12       0.001       32.256   0.100E-07
     Final TRS4 iteration    9 1.00000000   0.172E-12
     Chemical potential (mu):       0.00868
 
 PAO| energy:  -7.7930712613287785      penalty:   1.5690587714160505E-005
 PAO|LS| adapt:  T T T
 PAO|LS| adapt: scan_steps:    0.0000000000000000       0.22933391981037177       0.45866783962074353     
 PAO|LS| adapt: energies:   -7.7895266516496608       -7.7945095139706950       -7.7930712613287785     
 PAO|LS| adapt: suggested step_size:   0.29263283569960497     
 PAO|LS| adapt: predicted energy  -7.7947541026801677     
 PAO| ======================= Iteration:        12 =============================

     Lanczos converged:  T threshold:   0.100E-02
     Est. extremal eigenvalues:    0.281E+01   0.177E+00
     Est. condition number :    0.159E+02
     NS sqrt iter    1 1.00000000   0.715E+00       0.002       41.048
     NS sqrt iter    2 1.00000000   0.337E+00       0.002       64.168
     NS sqrt iter    3 1.00000000   0.802E-01       0.002       65.090
     NS sqrt iter    4 1.00000000   0.221E-02       0.002       65.303
     NS sqrt iter    5 1.00000000   0.919E-07       0.002       49.593
     Final NS sqrt iter    5 1.00000000   0.123E-08

     Est. extremal eigenvalues     -0.93721     1.70082  converged:  T
     TRS4 it   1 1.00000000   0.878E+00       0.001       16.128   0.100E-07
     TRS4 it   2 1.00000000   0.620E+00       0.001       32.256   0.100E-07
     TRS4 it   3 1.00000000   0.425E+00       0.001       32.256   0.100E-07
     TRS4 it   4 1.00000000   0.219E+00       0.001       32.256   0.100E-07
     TRS4 it   5 1.00000000   0.729E-01       0.001       32.256   0.100E-07
     TRS4 it   6 1.00000000   0.101E-01       0.001       32.256   0.100E-07
     TRS4 it   7 1.00000000   0.263E-03       0.001       32.256   0.100E-07
     TRS4 it   8 1.00000000   0.252E-06       0.001       32.256   0.100E-07
     TRS4 it   9 1.00000000   0.276E-12       0.001       32.256   0.100E-07
     Final TRS4 iteration    9 1.00000000   0.276E-12
     Chemical potential (mu):       0.00636
 
 PAO| energy:  -7.7947382095455584      penalty:   1.4757281344999121E-005
 PAO|CG| trace_G_new    1.1686978714194151E-002
 PAO|CG| trace_G_prev    3.6567641869811193E-002
 PAO|CG| trace_G_mix   -4.6002446475931053E-004
 PAO|CG| trace_D    4.4274634394108364E-002
 PAO|CG| trace_D_Gnew   2.1086369254266269E-004
 PAO|CG| beta:   0.33217901286058998     
 PAO| norm of gradient:  0.10810633059258903     
 PAO| energy improvement:  -5.2115578958975561E-003
 PAO| step     12                   -7.794738210  0.676E-02  0.293E+00     0.080
 PAO|LS| adapt:  T F F
 PAO|LS| adapt: scan_steps:    0.0000000000000000        0.0000000000000000        0.0000000000000000     
 PAO|LS| adapt: energies:   -7.7947382095455584        0.0000000000000000        0.0000000000000000     
 PAO| ======================= Iteration:        13 =============================

     Lanczos converged:  T threshold:   0.100E-02
     Est. extremal eigenvalues:    0.278E+01   0.181E+00
     Est. condition number :    0.153E+02
     NS sqrt iter    1 1.00000000   0.707E+00       0.002       41.627
     NS sqrt iter    2 1.00000000   0.330E+00       0.002       64.844
     NS sqrt iter    3 1.00000000   0.758E-01       0.002       65.386
     NS sqrt iter    4 1.00000000   0.188E-02       0.002       57.933
     NS sqrt iter    5 1.00000000   0.570E-07       0.002       46.500
     Final NS sqrt iter    5 1.00000000   0.779E-09

     Est. extremal eigenvalues     -0.93769     1.69339  converged:  T
     TRS4 it   1 1.00000000   0.877E+00       0.001       16.128   0.100E-07
     TRS4 it   2 1.00000000   0.617E+00       0.001       32.256   0.100E-07
     TRS4 it   3 1.00000000   0.420E+00       0.001       32.256   0.100E-07
     TRS4 it   4 1.00000000   0.214E+00       0.001       32.256   0.100E-07
     TRS4 it   5 1.00000000   0.692E-01       0.001       32.256   0.100E-07
     TRS4 it   6 1.00000000   0.910E-02       0.001       32.256   0.100E-07
     TRS4 it   7 1.00000000   0.210E-03       0.001       32.256   0.100E-07
     TRS4 it   8 1.00000000   0.156E-06       0.001       32.256   0.100E-07
     TRS4 it   9 1.00000000   0.105E-12       0.001       32.256   0.100E-07
     Final TRS4 iteration    9 1.00000000   0.105E-12
     Chemical potential (mu):       0.01079
 
 PAO| energy:  -7.7967840133435056      penalty:   1.5049439788382641E-005
 PAO|LS| adapt:  T T F
 PAO|LS| adapt: scan_steps:    0.0000000000000000       0.29263283569960497        0.0000000000000000     
 PAO|LS| adapt: energies:   -7.7947382095455584       -7.7967840133435056        0.0000000000000000     
 PAO| ======================= Iteration:        14 =============================

     Lanczos converged:  T threshold:   0.100E-02
     Est. extremal eigenvalues:    0.274E+01   0.185E+00
     Est. condition number :    0.148E+02
     NS sqrt iter    1 1.00000000   0.700E+00       0.002       39.502
     NS sqrt iter    2 1.00000000   0.323E+00       0.002       65.671
     NS sqrt iter    3 1.00000000   0.717E-01       0.002       66.863
     NS sqrt iter    4 1.00000000   0.160E-02       0.002       64.711
     NS sqrt iter    5 1.00000000   0.353E-07       0.002       43.861
     Final NS sqrt iter    5 1.00000000   0.453E-09

     Est. extremal eigenvalues     -0.93768     1.68624  converged:  T
     TRS4 it   1 1.00000000   0.876E+00       0.001       16.128   0.100E-07
     TRS4 it   2 1.00000000   0.614E+00       0.001       32.256   0.100E-07
     TRS4 it   3 1.00000000   0.416E+00       0.001       32.256   0.100E-07
     TRS4 it   4 1.00000000   0.209E+00       0.001       32.256   0.100E-07
     TRS4 it   5 1.00000000   0.658E-01       0.001       32.256   0.100E-07
     TRS4 it   6 1.00000000   0.816E-02       0.001       32.256   0.100E-07
     TRS4 it   7 1.00000000   0.167E-03       0.001       32.256   0.100E-07
     TRS4 it   8 1.00000000   0.960E-07       0.001       32.256   0.100E-07
     TRS4 it   9 1.00000000   0.390E-13       0.001       32.256   0.100E-07
     Final TRS4 iteration    9 1.00000000   0.390E-13
     Chemical potential (mu):       0.01515
 
 PAO| energy:  -7.7961716432810553      penalty:   1.5809996629683560E-005
 PAO|LS| adapt:  T T T
 PAO|LS| adapt: scan_steps:    0.0000000000000000       0.29263283569960497       0.58526567139920993     
 PAO|LS| adapt: energies:   -7.7947382095455584       -7.7967840133435056       -7.7961716432810553     
 PAO|LS| adapt: suggested step_size:   0.37153470608802369     
 PAO|LS| adapt: predicted energy  -7.7968806366449694     
 PAO| ======================= Iteration:        15 =============================

     Lanczos converged:  T threshold:   0.100E-02
     Est. extremal eigenvalues:    0.277E+01   0.182E+00
     Est. condition number :    0.152E+02
     NS sqrt iter    1 1.00000000   0.706E+00       0.002       40.656
     NS sqrt iter    2 1.00000000   0.328E+00       0.002       65.110
     NS sqrt iter    3 1.00000000   0.747E-01       0.002       65.698
     NS sqrt iter    4 1.00000000   0.180E-02       0.002       63.605
     NS sqrt iter    5 1.00000000   0.501E-07       0.002       46.135
     Final NS sqrt iter    5 1.00000000   0.425E-09

     Est. extremal eigenvalues     -0.93773     1.69144  converged:  T
     TRS4 it   1 1.00000000   0.877E+00       0.001       16.128   0.100E-07
     TRS4 it   2 1.00000000   0.616E+00       0.001       32.256   0.100E-07
     TRS4 it   3 1.00000000   0.419E+00       0.001       32.256   0.100E-07
     TRS4 it   4 1.00000000   0.213E+00       0.001       32.256   0.100E-07
     TRS4 it   5 1.00000000   0.683E-01       0.001       32.256   0.100E-07
     TRS4 it   6 1.00000000   0.883E-02       0.001       32.256   0.100E-07
     TRS4 it   7 1.00000000   0.197E-03       0.001       32.256   0.100E-07
     TRS4 it   8 1.00000000   0.137E-06       0.001       32.256   0.100E-07
     TRS4 it   9 1.00000000   0.805E-13       0.001       32.256   0.100E-07
     Final TRS4 iteration    9 1.00000000   0.805E-13
     Chemical potential (mu):       0.01198
 
 PAO| energy:  -7.7968775296487216      penalty:   1.5205353562020196E-005
 PAO|CG| trace_G_new    2.5929967419172678E-003
 PAO|CG| trace_G_prev    1.1686978714194151E-002
 PAO|CG| trace_G_mix    6.2940628926827627E-005
 PAO|CG| trace_D    1.6432281132009608E-002
 PAO|CG| trace_D_Gnew   3.3225600479207368E-005
 PAO|CG| beta:   0.21648504501147237     
 PAO| norm of gradient:   5.0921476234662207E-002
 PAO| energy improvement:  -2.1393201031632003E-003
 PAO| step     15                   -7.796877530  0.318E-02  0.372E+00     0.081
 PAO|LS| adapt:  T F F
 PAO|LS| adapt: scan_steps:    0.0000000000000000        0.0000000000000000        0.0000000000000000     
 PAO|LS| adapt: energies:   -7.7968775296487216        0.0000000000000000        0.0000000000000000     
 PAO| ======================= Iteration:        16 =============================

     Lanczos converged:  T threshold:   0.100E-02
     Est. extremal eigenvalues:    0.276E+01   0.183E+00
     Est. condition number :    0.151E+02
     NS sqrt iter    1 1.00000000   0.704E+00       0.002       40.712
     NS sqrt iter    2 1.00000000   0.327E+00       0.002       62.930
     NS sqrt iter    3 1.00000000   0.740E-01       0.002       64.825
     NS sqrt iter    4 1.00000000   0.174E-02       0.002       65.406
     NS sqrt iter    5 1.00000000   0.457E-07       0.002       46.237
     Final NS sqrt iter    5 1.00000000   0.373E-09

     Est. extremal eigenvalues     -0.93776     1.69062  converged:  T
     TRS4 it   1 1.00000000   0.877E+00       0.001       16.128   0.100E-07
     TRS4 it   2 1.00000000   0.615E+00       0.001       32.256   0.100E-07
     TRS4 it   3 1.00000000   0.418E+00       0.001       32.256   0.100E-07
     TRS4 it   4 1.00000000   0.211E+00       0.001       32.256   0.100E-07
     TRS4 it   5 1.00000000   0.671E-01       0.001       32.256   0.100E-07
     TRS4 it   6 1.00000000   0.855E-02       0.001       32.256   0.100E-07
     TRS4 it   7 1.00000000   0.186E-03       0.001       32.256   0.100E-07
     TRS4 it   8 1.00000000   0.123E-06       0.001       32.256   0.100E-07
     TRS4 it   9 1.00000000   0.646E-13       0.001       32.256   0.100E-07
     Final TRS4 iteration    9 1.00000000   0.646E-13
     Chemical potential (mu):       0.01276
 
 PAO| energy:  -7.7969991024141478      penalty:   1.4982035652964271E-005
 PAO|LS| adapt:  T T F
 PAO|LS| adapt: scan_steps:    0.0000000000000000       0.37153470608802369        0.0000000000000000     
 PAO|LS| adapt: energies:   -7.7968775296487216       -7.7969991024141478        0.0000000000000000     
 PAO| ======================= Iteration:        17 =============================

     Lanczos converged:  T threshold:   0.100E-02
     Est. extremal eigenvalues:    0.275E+01   0.184E+00
     Est. condition number :    0.150E+02
     NS sqrt iter    1 1.00000000   0.702E+00       0.002       41.713
     NS sqrt iter    2 1.00000000   0.326E+00       0.002       65.573
     NS sqrt iter    3 1.00000000   0.733E-01       0.002       63.898
     NS sqrt iter    4 1.00000000   0.169E-02       0.002       65.365
     NS sqrt iter    5 1.00000000   0.418E-07       0.002       45.218
     Final NS sqrt iter    5 1.00000000   0.386E-09

     Est. extremal eigenvalues     -0.93767     1.68986  converged:  T
     TRS4 it   1 1.00000000   0.878E+00       0.001       16.128   0.100E-07
     TRS4 it   2 1.00000000   0.615E+00       0.001       32.256   0.100E-07
     TRS4 it   3 1.00000000   0.417E+00       0.001       32.256   0.100E-07
     TRS4 it   4 1.00000000   0.209E+00       0.001       32.256   0.100E-07
     TRS4 it   5 1.00000000   0.660E-01       0.001       32.256   0.100E-07
     TRS4 it   6 1.00000000   0.828E-02       0.001       32.256   0.100E-07
     TRS4 it   7 1.00000000   0.175E-03       0.001       32.256   0.100E-07
     TRS4 it   8 1.00000000   0.110E-06       0.001       32.256   0.100E-07
     TRS4 it   9 1.00000000   0.523E-13       0.001       32.256   0.100E-07
     Final TRS4 iteration    9 1.00000000   0.523E-13
     Chemical potential (mu):       0.01352
 
 PAO| energy:  -7.7954371161960303      penalty:   1.4883883165816578E-005
 PAO|LS| adapt:  T T T
 PAO|LS| adapt: scan_steps:    0.0000000000000000       0.37153470608802369       0.74306941217604738     
 PAO|LS| adapt: energies:   -7.7968775296487216       -7.7969991024141478       -7.7954371161960303     
 PAO|LS| adapt: suggested step_size:   0.21259652987265407     
 PAO|LS| adapt: predicted energy  -7.7971531503963520     
 PAO| ======================= Iteration:        18 =============================

     Lanczos converged:  T threshold:   0.100E-02
     Est. extremal eigenvalues:    0.276E+01   0.183E+00
     Est. condition number :    0.151E+02
     NS sqrt iter    1 1.00000000   0.704E+00       0.002       41.590
     NS sqrt iter    2 1.00000000   0.328E+00       0.002       65.174
     NS sqrt iter    3 1.00000000   0.743E-01       0.002       66.289
     NS sqrt iter    4 1.00000000   0.177E-02       0.002       66.032
     NS sqrt iter    5 1.00000000   0.475E-07       0.002       46.874
     Final NS sqrt iter    5 1.00000000   0.408E-09

     Est. extremal eigenvalues     -0.93777     1.69097  converged:  T
     TRS4 it   1 1.00000000   0.877E+00       0.001       16.128   0.100E-07
     TRS4 it   2 1.00000000   0.616E+00       0.001       32.256   0.100E-07
     TRS4 it   3 1.00000000   0.418E+00       0.001       32.256   0.100E-07
     TRS4 it   4 1.00000000   0.212E+00       0.001       32.256   0.100E-07
     TRS4 it   5 1.00000000   0.676E-01       0.001       32.256   0.100E-07
     TRS4 it   6 1.00000000   0.867E-02       0.001       32.256   0.100E-07
     TRS4 it   7 1.00000000   0.191E-03       0.001       32.256   0.100E-07
     TRS4 it   8 1.00000000   0.128E-06       0.001       32.256   0.100E-07
     TRS4 it   9 1.00000000   0.711E-13       0.001       32.256   0.100E-07
     Final TRS4 iteration    9 1.00000000   0.711E-13
     Chemical potential (mu):       0.01243
 
 PAO| energy:  -7.7971527162746721      penalty:   1.5062527171085438E-005
 PAO|CG| trace_G_new    7.1545958659611651E-004
 PAO|CG| trace_G_prev    2.5929967419172678E-003
 PAO|CG| trace_G_mix    1.1727271030427658E-006
 PAO|CG| trace_D    3.3487226362503373E-003
 PAO|CG| trace_D_Gnew  -1.6373658148799695E-006
 PAO|CG| beta:   0.27546770419963135     
 PAO| norm of gradient:   2.6748076315804777E-002
 PAO| energy improvement:  -2.7518662595049648E-004
 PAO| step     18                   -7.797152716  0.167E-02  0.213E+00     0.080
 PAO|LS| adapt:  T F F
 PAO|LS| adapt: scan_steps:    0.0000000000000000        0.0000000000000000        0.0000000000000000     
 PAO|LS| adapt: energies:   -7.7971527162746721        0.0000000000000000        0.0000000000000000     
 PAO| ======================= Iteration:        19 =============================

     Lanczos converged:  T threshold:   0.100E-02
     Est. extremal eigenvalues:    0.276E+01   0.183E+00
     Est. condition number :    0.151E+02
     NS sqrt iter    1 1.00000000   0.704E+00       0.002       35.018
     NS sqrt iter    2 1.00000000   0.328E+00       0.002       64.568
     NS sqrt iter    3 1.00000000   0.745E-01       0.002       67.900
     NS sqrt iter    4 1.00000000   0.178E-02       0.002       66.230
     NS sqrt iter    5 1.00000000   0.481E-07       0.002       47.622
     Final NS sqrt iter    5 1.00000000   0.416E-09

     Est. extremal eigenvalues     -0.93777     1.69129  converged:  T
     TRS4 it   1 1.00000000   0.877E+00       0.001       16.128   0.100E-07
     TRS4 it   2 1.00000000   0.616E+00       0.001       32.256   0.100E-07
     TRS4 it   3 1.00000000   0.418E+00       0.001       32.256   0.100E-07
     TRS4 it   4 1.00000000   0.212E+00       0.001       32.256   0.100E-07
     TRS4 it   5 1.00000000   0.675E-01       0.001       32.256   0.100E-07
     TRS4 it   6 1.00000000   0.867E-02       0.001       32.256   0.100E-07
     TRS4 it   7 1.00000000   0.191E-03       0.001       32.256   0.100E-07
     TRS4 it   8 1.00000000   0.131E-06       0.001       32.256   0.100E-07
     TRS4 it   9 1.00000000   0.741E-13       0.001       32.256   0.100E-07
     Final TRS4 iteration    9 1.00000000   0.741E-13
     Chemical potential (mu):       0.01212
 
 PAO| energy:  -7.7972687292281506      penalty:   1.4773572541288552E-005
 PAO|LS| adapt:  T T F
 PAO|LS| adapt: scan_steps:    0.0000000000000000       0.21259652987265407        0.0000000000000000     
 PAO|LS| adapt: energies:   -7.7971527162746721       -7.7972687292281506        0.0000000000000000     
 PAO| ======================= Iteration:        20 =============================

     Lanczos converged:  T threshold:   0.100E-02
     Est. extremal eigenvalues:    0.276E+01   0.182E+00
     Est. condition number :    0.151E+02
     NS sqrt iter    1 1.00000000   0.704E+00       0.002       42.127
     NS sqrt iter    2 1.00000000   0.328E+00       0.002       66.809
     NS sqrt iter    3 1.00000000   0.747E-01       0.002       68.280
     NS sqrt iter    4 1.00000000   0.179E-02       0.002       65.731
     NS sqrt iter    5 1.00000000   0.488E-07       0.002       47.235
     Final NS sqrt iter    5 1.00000000   0.421E-09

     Est. extremal eigenvalues     -0.93776     1.69161  converged:  T
     TRS4 it   1 1.00000000   0.877E+00       0.001       16.128   0.100E-07
     TRS4 it   2 1.00000000   0.616E+00       0.001       32.256   0.100E-07
     TRS4 it   3 1.00000000   0.418E+00       0.001       32.256   0.100E-07
     TRS4 it   4 1.00000000   0.211E+00       0.001       32.256   0.100E-07
     TRS4 it   5 1.00000000   0.675E-01       0.001       32.256   0.100E-07
     TRS4 it   6 1.00000000   0.867E-02       0.001       32.256   0.100E-07
     TRS4 it   7 1.00000000   0.192E-03       0.001       32.256   0.100E-07
     TRS4 it   8 1.00000000   0.133E-06       0.001       32.256   0.100E-07
     TRS4 it   9 1.00000000   0.776E-13       0.001       32.256   0.100E-07
     Final TRS4 iteration    9 1.00000000   0.776E-13
     Chemical potential (mu):       0.01181
 
 PAO| energy:  -7.7973119912574296      penalty:   1.4496930887681341E-005
 PAO|LS| adapt:  T T F
 PAO|LS| adapt: scan_steps:    0.0000000000000000       0.42519305974530813        0.0000000000000000     
 PAO|LS| adapt: energies:   -7.7971527162746721       -7.7973119912574296        0.0000000000000000     
 PAO| ======================= Iteration:        21 =============================

     Lanczos converged:  T threshold:   0.100E-02
     Est. extremal eigenvalues:    0.276E+01   0.182E+00
     Est. condition number :    0.152E+02
     NS sqrt iter    1 1.00000000   0.704E+00       0.002       42.374
     NS sqrt iter    2 1.00000000   0.329E+00       0.002       66.151
     NS sqrt iter    3 1.00000000   0.751E-01       0.002       66.441
     NS sqrt iter    4 1.00000000   0.181E-02       0.002       65.886
     NS sqrt iter    5 1.00000000   0.503E-07       0.002       47.694
     Final NS sqrt iter    5 1.00000000   0.454E-09

     Est. extremal eigenvalues     -0.93775     1.69228  converged:  T
     TRS4 it   1 1.00000000   0.878E+00       0.001       16.128   0.100E-07
     TRS4 it   2 1.00000000   0.616E+00       0.001       32.256   0.100E-07
     TRS4 it   3 1.00000000   0.418E+00       0.001       32.256   0.100E-07
     TRS4 it   4 1.00000000   0.211E+00       0.001       32.256   0.100E-07
     TRS4 it   5 1.00000000   0.673E-01       0.001       32.256   0.100E-07
     TRS4 it   6 1.00000000   0.867E-02       0.001       32.256   0.100E-07
     TRS4 it   7 1.00000000   0.195E-03       0.001       32.256   0.100E-07
     TRS4 it   8 1.00000000   0.139E-06       0.001       32.256   0.100E-07
     TRS4 it   9 1.00000000   0.838E-13       0.001       32.256   0.100E-07
     Final TRS4 iteration    9 1.00000000   0.838E-13
     Chemical potential (mu):       0.01118
 
 PAO| energy:  -7.7971780073919295      penalty:   1.3980000550390835E-005
 PAO|LS| Need extra step
 PAO|LS| adapt:  T T T
 PAO|LS| adapt: scan_steps:    0.0000000000000000       0.42519305974530813       0.85038611949061627     
 PAO|LS| adapt: energies:   -7.7971527162746721       -7.7973119912574296       -7.7971780073919295     
 PAO|LS| adapt: suggested step_size:   0.44352772823855957     
 PAO|LS| adapt: predicted energy  -7.7973122639007864     
 PAO| ======================= Iteration:        22 =============================

     Lanczos converged:  T threshold:   0.100E-02
     Est. extremal eigenvalues:    0.276E+01   0.182E+00
     Est. condition number :    0.151E+02
     NS sqrt iter    1 1.00000000   0.704E+00       0.002       42.551
     NS sqrt iter    2 1.00000000   0.328E+00       0.002       65.822
     NS sqrt iter    3 1.00000000   0.747E-01       0.002       66.069
     NS sqrt iter    4 1.00000000   0.179E-02       0.002       66.114
     NS sqrt iter    5 1.00000000   0.489E-07       0.002       47.498
     Final NS sqrt iter    5 1.00000000   0.428E-09

     Est. extremal eigenvalues     -0.93776     1.69164  converged:  T
     TRS4 it   1 1.00000000   0.877E+00       0.000       16.128   0.100E-07
     TRS4 it   2 1.00000000   0.616E+00       0.001       32.256   0.100E-07
     TRS4 it   3 1.00000000   0.418E+00       0.001       32.256   0.100E-07
     TRS4 it   4 1.00000000   0.211E+00       0.001       32.256   0.100E-07
     TRS4 it   5 1.00000000   0.675E-01       0.001       32.256   0.100E-07
     TRS4 it   6 1.00000000   0.867E-02       0.001       32.256   0.100E-07
     TRS4 it   7 1.00000000   0.193E-03       0.001       32.256   0.100E-07
     TRS4 it   8 1.00000000   0.134E-06       0.001       32.256   0.100E-07
     TRS4 it   9 1.00000000   0.779E-13       0.001       32.256   0.100E-07
     Final TRS4 iteration    9 1.00000000   0.779E-13
     Chemical potential (mu):       0.01178
 
 PAO| energy:  -7.7973122972629350      penalty:   1.4473643819737096E-005
 PAO|CG| trace_G_new    2.1647213674975756E-004
 PAO|CG| trace_G_prev    7.1545958659611651E-004
 PAO|CG| trace_G_mix    2.7934344361131613E-006
 PAO|CG| trace_D    9.7047096769243657E-004
 PAO|CG| trace_D_Gnew  -1.7593105792141068E-006
 PAO|CG| beta:   0.29865936010480493     
 PAO| norm of gradient:   1.4712992107309700E-002
 PAO| energy improvement:  -1.5958098826285294E-004
 PAO| step     22                   -7.797312297  0.920E-03  0.444E+00     0.102
 PAO|LS| adapt:  T F F
 PAO|LS| adapt: scan_steps:    0.0000000000000000        0.0000000000000000        0.0000000000000000     
 PAO|LS| adapt: energies:   -7.7973122972629350        0.0000000000000000        0.0000000000000000     
 PAO| ======================= Iteration:        23 =============================

     Lanczos converged:  T threshold:   0.100E-02
     Est. extremal eigenvalues:    0.276E+01   0.182E+00
     Est. condition number :    0.151E+02
     NS sqrt iter    1 1.00000000   0.704E+00       0.002       42.539
     NS sqrt iter    2 1.00000000   0.328E+00       0.002       65.131
     NS sqrt iter    3 1.00000000   0.748E-01       0.002       68.467
     NS sqrt iter    4 1.00000000   0.179E-02       0.002       66.508
     NS sqrt iter    5 1.00000000   0.490E-07       0.002       46.507
     Final NS sqrt iter    5 1.00000000   0.435E-09

     Est. extremal eigenvalues     -0.93776     1.69166  converged:  T
     TRS4 it   1 1.00000000   0.877E+00       0.001       16.128   0.100E-07
     TRS4 it   2 1.00000000   0.616E+00       0.001       32.256   0.100E-07
     TRS4 it   3 1.00000000   0.418E+00       0.001       32.256   0.100E-07
     TRS4 it   4 1.00000000   0.212E+00       0.001       32.256   0.100E-07
     TRS4 it   5 1.00000000   0.676E-01       0.001       32.256   0.100E-07
     TRS4 it   6 1.00000000   0.872E-02       0.001       32.256   0.100E-07
     TRS4 it   7 1.00000000   0.195E-03       0.001       32.256   0.100E-07
     TRS4 it   8 1.00000000   0.138E-06       0.001       32.256   0.100E-07
     TRS4 it   9 1.00000000   0.834E-13       0.001       32.256   0.100E-07
     Final TRS4 iteration    9 1.00000000   0.834E-13
     Chemical potential (mu):       0.01142
 
 PAO| energy:  -7.7973605693403991      penalty:   1.3796144412493929E-005
 PAO|LS| adapt:  T T F
 PAO|LS| adapt: scan_steps:    0.0000000000000000       0.44352772823855957        0.0000000000000000     
 PAO|LS| adapt: energies:   -7.7973122972629350       -7.7973605693403991        0.0000000000000000     
 PAO| ======================= Iteration:        24 =============================

     Lanczos converged:  T threshold:   0.100E-02
     Est. extremal eigenvalues:    0.276E+01   0.182E+00
     Est. condition number :    0.152E+02
     NS sqrt iter    1 1.00000000   0.704E+00       0.002       42.312
     NS sqrt iter    2 1.00000000   0.328E+00       0.002       64.995
     NS sqrt iter    3 1.00000000   0.748E-01       0.002       67.557
     NS sqrt iter    4 1.00000000   0.179E-02       0.002       66.215
     NS sqrt iter    5 1.00000000   0.491E-07       0.002       47.202
     Final NS sqrt iter    5 1.00000000   0.441E-09

     Est. extremal eigenvalues     -0.93776     1.69168  converged:  T
     TRS4 it   1 1.00000000   0.877E+00       0.001       16.128   0.100E-07
     TRS4 it   2 1.00000000   0.616E+00       0.001       32.256   0.100E-07
     TRS4 it   3 1.00000000   0.418E+00       0.001       32.256   0.100E-07
     TRS4 it   4 1.00000000   0.212E+00       0.001       32.256   0.100E-07
     TRS4 it   5 1.00000000   0.678E-01       0.001       32.256   0.100E-07
     TRS4 it   6 1.00000000   0.877E-02       0.001       32.256   0.100E-07
     TRS4 it   7 1.00000000   0.198E-03       0.001       32.256   0.100E-07
     TRS4 it   8 1.00000000   0.142E-06       0.001       32.256   0.100E-07
     TRS4 it   9 1.00000000   0.883E-13       0.001       32.256   0.100E-07
     Final TRS4 iteration    9 1.00000000   0.883E-13
     Chemical potential (mu):       0.01106
 
 PAO| energy:  -7.7973123073467896      penalty:   1.3146467744896895E-005
 PAO|LS| adapt:  T T T
 PAO|LS| adapt: scan_steps:    0.0000000000000000       0.44352772823855957       0.88705545647711914     
 PAO|LS| adapt: energies:   -7.7973122972629350       -7.7973605693403991       -7.7973123073467896     
 PAO|LS| adapt: suggested step_size:   0.44355089347488863     
 PAO|LS| adapt: predicted energy  -7.7973605693405297     
 PAO| ======================= Iteration:        25 =============================

     Lanczos converged:  T threshold:   0.100E-02
     Est. extremal eigenvalues:    0.276E+01   0.182E+00
     Est. condition number :    0.151E+02
     NS sqrt iter    1 1.00000000   0.704E+00       0.002       42.287
     NS sqrt iter    2 1.00000000   0.328E+00       0.002       66.109
     NS sqrt iter    3 1.00000000   0.748E-01       0.002       65.805
     NS sqrt iter    4 1.00000000   0.179E-02       0.002       68.177
     NS sqrt iter    5 1.00000000   0.490E-07       0.002       47.147
     Final NS sqrt iter    5 1.00000000   0.435E-09

     Est. extremal eigenvalues     -0.93776     1.69166  converged:  T
     TRS4 it   1 1.00000000   0.877E+00       0.001       16.128   0.100E-07
     TRS4 it   2 1.00000000   0.616E+00       0.001       32.256   0.100E-07
     TRS4 it   3 1.00000000   0.418E+00       0.001       32.256   0.100E-07
     TRS4 it   4 1.00000000   0.212E+00       0.001       32.256   0.100E-07
     TRS4 it   5 1.00000000   0.676E-01       0.001       32.256   0.100E-07
     TRS4 it   6 1.00000000   0.872E-02       0.001       32.256   0.100E-07
     TRS4 it   7 1.00000000   0.195E-03       0.001       32.256   0.100E-07
     TRS4 it   8 1.00000000   0.138E-06       0.001       32.256   0.100E-07
     TRS4 it   9 1.00000000   0.831E-13       0.001       32.256   0.100E-07
     Final TRS4 iteration    9 1.00000000   0.831E-13
     Chemical potential (mu):       0.01142
 
 PAO| energy:  -7.7973605693482284      penalty:   1.3796109758887329E-005
 PAO|CG| trace_G_new    7.5932146527445184E-005
 PAO|CG| trace_G_prev    2.1647213674975756E-004
 PAO|CG| trace_G_mix    6.4208397850227981E-007
 PAO|CG| trace_D    3.0408650597020000E-004
 PAO|CG| trace_D_Gnew  -3.3225591015116121E-007
 PAO|CG| beta:   0.34780486615687839     
 PAO| norm of gradient:   8.7139053545149999E-003
 PAO| energy improvement:  -4.8272085293454836E-005
 PAO| step     25                   -7.797360569  0.545E-03  0.444E+00     0.079
 PAO|LS| adapt:  T F F
 PAO|LS| adapt: scan_steps:    0.0000000000000000        0.0000000000000000        0.0000000000000000     
 PAO|LS| adapt: energies:   -7.7973605693482284        0.0000000000000000        0.0000000000000000     
 PAO| ======================= Iteration:        26 =============================

     Lanczos converged:  T threshold:   0.100E-02
     Est. extremal eigenvalues:    0.276E+01   0.183E+00
     Est. condition number :    0.151E+02
     NS sqrt iter    1 1.00000000   0.704E+00       0.002       42.246
     NS sqrt iter    2 1.00000000   0.328E+00       0.002       66.284
     NS sqrt iter    3 1.00000000   0.747E-01       0.002       67.453
     NS sqrt iter    4 1.00000000   0.178E-02       0.002       66.262
     NS sqrt iter    5 1.00000000   0.484E-07       0.002       47.246
     Final NS sqrt iter    5 1.00000000   0.429E-09

     Est. extremal eigenvalues     -0.93777     1.69139  converged:  T
     TRS4 it   1 1.00000000   0.877E+00       0.001       16.128   0.100E-07
     TRS4 it   2 1.00000000   0.616E+00       0.001       32.256   0.100E-07
     TRS4 it   3 1.00000000   0.418E+00       0.001       32.256   0.100E-07
     TRS4 it   4 1.00000000   0.211E+00       0.001       32.256   0.100E-07
     TRS4 it   5 1.00000000   0.676E-01       0.001       32.256   0.100E-07
     TRS4 it   6 1.00000000   0.871E-02       0.001       32.256   0.100E-07
     TRS4 it   7 1.00000000   0.195E-03       0.001       32.256   0.100E-07
     TRS4 it   8 1.00000000   0.137E-06       0.001       32.256   0.100E-07
     TRS4 it   9 1.00000000   0.819E-13       0.001       32.256   0.100E-07
     Final TRS4 iteration    9 1.00000000   0.819E-13
     Chemical potential (mu):       0.01150
 
 PAO| energy:  -7.7973636235178434      penalty:   1.3078079669997197E-005
 PAO|LS| adapt:  T T F
 PAO|LS| adapt: scan_steps:    0.0000000000000000       0.44355089347488863        0.0000000000000000     
 PAO|LS| adapt: energies:   -7.7973605693482284       -7.7973636235178434        0.0000000000000000     
 PAO| ======================= Iteration:        27 =============================

     Lanczos converged:  T threshold:   0.100E-02
     Est. extremal eigenvalues:    0.276E+01   0.183E+00
     Est. condition number :    0.151E+02
     NS sqrt iter    1 1.00000000   0.704E+00       0.002       42.092
     NS sqrt iter    2 1.00000000   0.328E+00       0.002       67.603
     NS sqrt iter    3 1.00000000   0.746E-01       0.002       65.730
     NS sqrt iter    4 1.00000000   0.178E-02       0.002       67.041
     NS sqrt iter    5 1.00000000   0.479E-07       0.002       47.180
     Final NS sqrt iter    5 1.00000000   0.423E-09

     Est. extremal eigenvalues     -0.93777     1.69111  converged:  T
     TRS4 it   1 1.00000000   0.877E+00       0.001       16.128   0.100E-07
     TRS4 it   2 1.00000000   0.616E+00       0.001       32.256   0.100E-07
     TRS4 it   3 1.00000000   0.418E+00       0.001       32.256   0.100E-07
     TRS4 it   4 1.00000000   0.211E+00       0.001       32.256   0.100E-07
     TRS4 it   5 1.00000000   0.675E-01       0.001       32.256   0.100E-07
     TRS4 it   6 1.00000000   0.870E-02       0.001       32.256   0.100E-07
     TRS4 it   7 1.00000000   0.194E-03       0.001       32.256   0.100E-07
     TRS4 it   8 1.00000000   0.136E-06       0.001       32.256   0.100E-07
     TRS4 it   9 1.00000000   0.798E-13       0.001       32.256   0.100E-07
     Final TRS4 iteration    9 1.00000000   0.798E-13
     Chemical potential (mu):       0.01157
 
 PAO| energy:  -7.7973052286832889      penalty:   1.2383282419994751E-005
 PAO|LS| adapt:  T T T
 PAO|LS| adapt: scan_steps:    0.0000000000000000       0.44355089347488863       0.88710178694977726     
 PAO|LS| adapt: energies:   -7.7973605693482284       -7.7973636235178434       -7.7973052286832889     
 PAO|LS| adapt: suggested step_size:   0.24382103852305970     
 PAO|LS| adapt: predicted energy  -7.7973698534585019     
 PAO| ======================= Iteration:        28 =============================

     Lanczos converged:  T threshold:   0.100E-02
     Est. extremal eigenvalues:    0.276E+01   0.183E+00
     Est. condition number :    0.151E+02
     NS sqrt iter    1 1.00000000   0.704E+00       0.002       42.594
     NS sqrt iter    2 1.00000000   0.328E+00       0.002       66.578
     NS sqrt iter    3 1.00000000   0.747E-01       0.002       67.326
     NS sqrt iter    4 1.00000000   0.179E-02       0.002       66.971
     NS sqrt iter    5 1.00000000   0.487E-07       0.001       47.937
     Final NS sqrt iter    5 1.00000000   0.426E-09

     Est. extremal eigenvalues     -0.93776     1.69151  converged:  T
     TRS4 it   1 1.00000000   0.877E+00       0.001       16.128   0.100E-07
     TRS4 it   2 1.00000000   0.616E+00       0.001       32.256   0.100E-07
     TRS4 it   3 1.00000000   0.418E+00       0.001       32.256   0.100E-07
     TRS4 it   4 1.00000000   0.211E+00       0.001       32.256   0.100E-07
     TRS4 it   5 1.00000000   0.676E-01       0.001       32.256   0.100E-07
     TRS4 it   6 1.00000000   0.871E-02       0.001       32.256   0.100E-07
     TRS4 it   7 1.00000000   0.195E-03       0.001       32.256   0.100E-07
     TRS4 it   8 1.00000000   0.137E-06       0.001       32.256   0.100E-07
     TRS4 it   9 1.00000000   0.825E-13       0.001       32.256   0.100E-07
     Final TRS4 iteration    9 1.00000000   0.825E-13
     Chemical potential (mu):       0.01146
 
 PAO| energy:  -7.7973698443115182      penalty:   1.3398513175656017E-005
 PAO|CG| trace_G_new    2.8872569187527789E-005
 PAO|CG| trace_G_prev    7.5932146527445184E-005
 PAO|CG| trace_G_mix    3.9945356461063776E-008
 PAO|CG| trace_D    1.1294807182223629E-004
 PAO|CG| trace_D_Gnew  -2.3116984245462977E-008
 PAO|CG| beta:   0.37971564284232845     
 PAO| norm of gradient:   5.3733201270283340E-003
 PAO| energy improvement:  -9.2749632898403434E-006
 PAO| step     28                   -7.797369844  0.336E-03  0.244E+00     0.079
 PAO|LS| adapt:  T F F
 PAO|LS| adapt: scan_steps:    0.0000000000000000        0.0000000000000000        0.0000000000000000     
 PAO|LS| adapt: energies:   -7.7973698443115182        0.0000000000000000        0.0000000000000000     
 PAO| ======================= Iteration:        29 =============================

     Lanczos converged:  T threshold:   0.100E-02
     Est. extremal eigenvalues:    0.276E+01   0.183E+00
     Est. condition number :    0.151E+02
     NS sqrt iter    1 1.00000000   0.704E+00       0.002       41.669
     NS sqrt iter    2 1.00000000   0.328E+00       0.002       65.489
     NS sqrt iter    3 1.00000000   0.747E-01       0.002       66.560
     NS sqrt iter    4 1.00000000   0.178E-02       0.002       60.244
     NS sqrt iter    5 1.00000000   0.484E-07       0.001       47.621
     Final NS sqrt iter    5 1.00000000   0.428E-09

     Est. extremal eigenvalues     -0.93777     1.69140  converged:  T
     TRS4 it   1 1.00000000   0.877E+00       0.001       16.128   0.100E-07
     TRS4 it   2 1.00000000   0.616E+00       0.001       32.256   0.100E-07
     TRS4 it   3 1.00000000   0.418E+00       0.001       32.256   0.100E-07
     TRS4 it   4 1.00000000   0.211E+00       0.001       32.256   0.100E-07
     TRS4 it   5 1.00000000   0.675E-01       0.001       32.256   0.100E-07
     TRS4 it   6 1.00000000   0.870E-02       0.001       32.256   0.100E-07
     TRS4 it   7 1.00000000   0.194E-03       0.001       32.256   0.100E-07
     TRS4 it   8 1.00000000   0.136E-06       0.001       32.256   0.100E-07
     TRS4 it   9 1.00000000   0.804E-13       0.001       32.256   0.100E-07
     Final TRS4 iteration    9 1.00000000   0.804E-13
     Chemical potential (mu):       0.01156
 
 PAO| energy:  -7.7973760485274193      penalty:   1.2986145146582637E-005
 PAO|LS| adapt:  T T F
 PAO|LS| adapt: scan_steps:    0.0000000000000000       0.24382103852305970        0.0000000000000000     
 PAO|LS| adapt: energies:   -7.7973698443115182       -7.7973760485274193        0.0000000000000000     
 PAO| ======================= Iteration:        30 =============================

     Lanczos converged:  T threshold:   0.100E-02
     Est. extremal eigenvalues:    0.276E+01   0.183E+00
     Est. condition number :    0.151E+02
     NS sqrt iter    1 1.00000000   0.704E+00       0.002       41.446
     NS sqrt iter    2 1.00000000   0.328E+00       0.002       64.945
     NS sqrt iter    3 1.00000000   0.746E-01       0.002       65.541
     NS sqrt iter    4 1.00000000   0.178E-02       0.002       65.491
     NS sqrt iter    5 1.00000000   0.482E-07       0.002       46.390
     Final NS sqrt iter    5 1.00000000   0.425E-09

     Est. extremal eigenvalues     -0.93777     1.69130  converged:  T
     TRS4 it   1 1.00000000   0.877E+00       0.001       16.128   0.100E-07
     TRS4 it   2 1.00000000   0.616E+00       0.001       32.256   0.100E-07
     TRS4 it   3 1.00000000   0.418E+00       0.001       32.256   0.100E-07
     TRS4 it   4 1.00000000   0.211E+00       0.001       29.852   0.100E-07
     TRS4 it   5 1.00000000   0.674E-01       0.001       32.256   0.100E-07
     TRS4 it   6 1.00000000   0.868E-02       0.001       32.256   0.100E-07
     TRS4 it   7 1.00000000   0.193E-03       0.001       32.256   0.100E-07
     TRS4 it   8 1.00000000   0.134E-06       0.001       32.256   0.100E-07
     TRS4 it   9 1.00000000   0.785E-13       0.001       32.256   0.100E-07
     Final TRS4 iteration    9 1.00000000   0.785E-13
     Chemical potential (mu):       0.01167
 
 PAO| energy:  -7.7973805768551507      penalty:   1.2580893491010333E-005
 PAO|LS| adapt:  T T F
 PAO|LS| adapt: scan_steps:    0.0000000000000000       0.48764207704611939        0.0000000000000000     
 PAO|LS| adapt: energies:   -7.7973698443115182       -7.7973805768551507        0.0000000000000000     
 PAO| ======================= Iteration:        31 =============================

     Lanczos converged:  T threshold:   0.100E-02
     Est. extremal eigenvalues:    0.276E+01   0.183E+00
     Est. condition number :    0.151E+02
     NS sqrt iter    1 1.00000000   0.703E+00       0.002       41.091
     NS sqrt iter    2 1.00000000   0.328E+00       0.002       65.084
     NS sqrt iter    3 1.00000000   0.745E-01       0.002       65.160
     NS sqrt iter    4 1.00000000   0.177E-02       0.002       64.833
     NS sqrt iter    5 1.00000000   0.477E-07       0.002       45.147
     Final NS sqrt iter    5 1.00000000   0.397E-09

     Est. extremal eigenvalues     -0.93777     1.69109  converged:  T
     TRS4 it   1 1.00000000   0.878E+00       0.001       16.128   0.100E-07
     TRS4 it   2 1.00000000   0.616E+00       0.001       32.256   0.100E-07
     TRS4 it   3 1.00000000   0.418E+00       0.001       32.256   0.100E-07
     TRS4 it   4 1.00000000   0.211E+00       0.001       32.256   0.100E-07
     TRS4 it   5 1.00000000   0.673E-01       0.001       32.256   0.100E-07
     TRS4 it   6 1.00000000   0.864E-02       0.001       32.256   0.100E-07
     TRS4 it   7 1.00000000   0.191E-03       0.001       32.256   0.100E-07
     TRS4 it   8 1.00000000   0.132E-06       0.001       32.256   0.100E-07
     TRS4 it   9 1.00000000   0.752E-13       0.001       32.256   0.100E-07
     Final TRS4 iteration    9 1.00000000   0.752E-13
     Chemical potential (mu):       0.01188
 
 PAO| energy:  -7.7973846026732581      penalty:   1.1791613027332877E-005
 PAO|LS| Need extra step
 PAO|LS| adapt:  T T F
 PAO|LS| adapt: scan_steps:    0.0000000000000000       0.97528415409223879        0.0000000000000000     
 PAO|LS| adapt: energies:   -7.7973698443115182       -7.7973846026732581        0.0000000000000000     
 PAO| ======================= Iteration:        32 =============================

     Lanczos converged:  T threshold:   0.100E-02
     Est. extremal eigenvalues:    0.276E+01   0.183E+00
     Est. condition number :    0.151E+02
     NS sqrt iter    1 1.00000000   0.703E+00       0.002       39.639
     NS sqrt iter    2 1.00000000   0.327E+00       0.002       66.212
     NS sqrt iter    3 1.00000000   0.742E-01       0.002       64.259
     NS sqrt iter    4 1.00000000   0.176E-02       0.002       64.702
     NS sqrt iter    5 1.00000000   0.468E-07       0.002       44.875
     Final NS sqrt iter    5 1.00000000   0.383E-09

     Est. extremal eigenvalues     -0.93778     1.69065  converged:  T
     TRS4 it   1 1.00000000   0.878E+00       0.001       16.128   0.100E-07
     TRS4 it   2 1.00000000   0.615E+00       0.001       32.256   0.100E-07
     TRS4 it   3 1.00000000   0.418E+00       0.001       32.256   0.100E-07
     TRS4 it   4 1.00000000   0.211E+00       0.001       32.256   0.100E-07
     TRS4 it   5 1.00000000   0.670E-01       0.001       32.256   0.100E-07
     TRS4 it   6 1.00000000   0.857E-02       0.001       32.256   0.100E-07
     TRS4 it   7 1.00000000   0.188E-03       0.001       32.256   0.100E-07
     TRS4 it   8 1.00000000   0.126E-06       0.001       32.256   0.100E-07
     TRS4 it   9 1.00000000   0.694E-13       0.001       32.256   0.100E-07
     Final TRS4 iteration    9 1.00000000   0.694E-13
     Chemical potential (mu):       0.01229
 
 PAO| energy:  -7.7973725412564043      penalty:   1.0297067161442592E-005
 PAO|LS| Need extra step
 PAO|LS| adapt:  T T T
 PAO|LS| adapt: scan_steps:    0.0000000000000000       0.97528415409223879        1.9505683081844776     
 PAO|LS| adapt: energies:   -7.7973698443115182       -7.7973846026732581       -7.7973725412564043     
 PAO|LS| adapt: suggested step_size:    1.0243204949904909     
 PAO|LS| adapt: predicted energy  -7.7973846365732014     
 PAO| ======================= Iteration:        33 =============================

     Lanczos converged:  T threshold:   0.100E-02
     Est. extremal eigenvalues:    0.276E+01   0.183E+00
     Est. condition number :    0.151E+02
     NS sqrt iter    1 1.00000000   0.703E+00       0.002       41.433
     NS sqrt iter    2 1.00000000   0.328E+00       0.002       66.086
     NS sqrt iter    3 1.00000000   0.744E-01       0.002       64.810
     NS sqrt iter    4 1.00000000   0.177E-02       0.002       63.516
     NS sqrt iter    5 1.00000000   0.476E-07       0.002       45.337
     Final NS sqrt iter    5 1.00000000   0.397E-09

     Est. extremal eigenvalues     -0.93777     1.69107  converged:  T
     TRS4 it   1 1.00000000   0.878E+00       0.001       16.128   0.100E-07
     TRS4 it   2 1.00000000   0.616E+00       0.001       32.256   0.100E-07
     TRS4 it   3 1.00000000   0.418E+00       0.001       32.256   0.100E-07
     TRS4 it   4 1.00000000   0.211E+00       0.001       32.256   0.100E-07
     TRS4 it   5 1.00000000   0.673E-01       0.001       32.256   0.100E-07
     TRS4 it   6 1.00000000   0.864E-02       0.001       32.256   0.100E-07
[...]
     NS sqrt iter    4 1.00000000   0.735E-03       0.002       66.912
     NS sqrt iter    5 1.00000000   0.529E-08       0.001       28.278
     Final NS sqrt iter    5 1.00000000   0.322E-09

     Est. extremal eigenvalues     -0.93748     1.63090  converged:  T
     TRS4 it   1 1.00000000   0.885E+00       0.003        5.474   0.100E-07
     TRS4 it   2 1.00000000   0.634E+00       0.001       29.851   0.100E-07
     TRS4 it   3 1.00000000   0.455E+00       0.001       32.256   0.100E-07
     TRS4 it   4 1.00000000   0.278E+00       0.001       32.256   0.100E-07
     TRS4 it   5 1.00000000   0.139E+00       0.001       32.256   0.100E-07
     TRS4 it   6 1.00000000   0.437E-01       0.001       32.256   0.100E-07
     TRS4 it   7 1.00000000   0.609E-02       0.001       32.256   0.100E-07
     TRS4 it   8 1.00000000   0.159E-03       0.001       32.256   0.100E-07
     TRS4 it   9 1.00000000   0.114E-06       0.001       32.256   0.100E-07
     TRS4 it  10 1.00000000   0.588E-13       0.001       32.256   0.100E-07
     Final TRS4 iteration   10 1.00000000   0.588E-13
     Chemical potential (mu):      -0.07482
 
 PAO| energy:  -7.7967486879809060      penalty:   3.3476414144751222E-008
 PAO|LS| Need extra step
 PAO|LS| adapt:  T T T
 PAO|LS| adapt: scan_steps:    0.0000000000000000       0.20000000000000001       0.40000000000000002     
 PAO|LS| adapt: energies:   -7.7967486834854505       -7.7967486888490063       -7.7967486879809060     
 PAO|LS| adapt: suggested step_size:   0.27213901899612347     
 PAO|LS| adapt: predicted energy  -7.7967486892543789     
 PAO| ======================= Iteration:       411 =============================

     Lanczos converged:  T threshold:   0.100E-02
     Est. extremal eigenvalues:    0.248E+01   0.191E+00
     Est. condition number :    0.130E+02
     NS sqrt iter    1 1.00000000   0.629E+00       0.001       58.477
     NS sqrt iter    2 1.00000000   0.272E+00       0.001       97.981
     NS sqrt iter    3 1.00000000   0.475E-01       0.001       86.008
     NS sqrt iter    4 1.00000000   0.735E-03       0.001       89.105
     NS sqrt iter    5 1.00000000   0.529E-08       0.001       35.867
     Final NS sqrt iter    5 1.00000000   0.322E-09

     Est. extremal eigenvalues     -0.93748     1.63090  converged:  T
     TRS4 it   1 1.00000000   0.885E+00       0.000       16.128   0.100E-07
     TRS4 it   2 1.00000000   0.634E+00       0.001       32.256   0.100E-07
     TRS4 it   3 1.00000000   0.455E+00       0.001       32.256   0.100E-07
     TRS4 it   4 1.00000000   0.278E+00       0.001       32.256   0.100E-07
     TRS4 it   5 1.00000000   0.139E+00       0.001       32.256   0.100E-07
     TRS4 it   6 1.00000000   0.437E-01       0.001       32.256   0.100E-07
     TRS4 it   7 1.00000000   0.609E-02       0.001       32.256   0.100E-07
     TRS4 it   8 1.00000000   0.159E-03       0.001       32.256   0.100E-07
     TRS4 it   9 1.00000000   0.114E-06       0.001       32.256   0.100E-07
     TRS4 it  10 1.00000000   0.582E-13       0.001       32.256   0.100E-07
     Final TRS4 iteration   10 1.00000000   0.582E-13
     Chemical potential (mu):      -0.07482
 
 PAO| energy:  -7.7967486892543860      penalty:   3.3825053743354004E-008
 PAO|CG| warming up with steepest descent
 PAO|CG| beta:    0.0000000000000000     
 PAO| norm of gradient:   1.4642001817065454E-004
 PAO| energy improvement:  -5.7689355514867202E-009
 PAO| step    411                   -7.796748689  0.915E-05  0.272E+00     0.088
 PAO| converged after          411  steps :-)
 PAO| Recalculating energy after mixing.

     Lanczos converged:  T threshold:   0.100E-02
     Est. extremal eigenvalues:    0.248E+01   0.191E+00
     Est. condition number :    0.130E+02
     NS sqrt iter    1 1.00000000   0.629E+00       0.001       49.482
     NS sqrt iter    2 1.00000000   0.272E+00       0.001       84.495
     NS sqrt iter    3 1.00000000   0.475E-01       0.002       70.510
     NS sqrt iter    4 1.00000000   0.735E-03       0.001       84.971
     NS sqrt iter    5 1.00000000   0.529E-08       0.001       37.883
     Final NS sqrt iter    5 1.00000000   0.322E-09

     Est. extremal eigenvalues     -0.93748     1.63090  converged:  T
     TRS4 it   1 1.00000000   0.885E+00       0.001       16.128   0.100E-07
     TRS4 it   2 1.00000000   0.634E+00       0.001       32.256   0.100E-07
     TRS4 it   3 1.00000000   0.455E+00       0.001       32.256   0.100E-07
     TRS4 it   4 1.00000000   0.278E+00       0.001       32.256   0.100E-07
     TRS4 it   5 1.00000000   0.139E+00       0.001       32.256   0.100E-07
     TRS4 it   6 1.00000000   0.437E-01       0.001       32.256   0.100E-07
     TRS4 it   7 1.00000000   0.609E-02       0.001       32.256   0.100E-07
     TRS4 it   8 1.00000000   0.159E-03       0.001       32.256   0.100E-07
     TRS4 it   9 1.00000000   0.114E-06       0.001       32.256   0.100E-07
     TRS4 it  10 1.00000000   0.588E-13       0.001       32.256   0.100E-07
     Final TRS4 iteration   10 1.00000000   0.588E-13
     Chemical potential (mu):      -0.07482
 
 PAO| energy:  -7.7967486878121388      penalty:   3.4198054141515697E-008
 PAO| Writing restart file.
     Est. extremal eigenvalues     -0.93748     1.63090  converged:  T
     TRS4 it   1 1.00000000   0.885E+00       0.001       16.128   0.100E-07
     TRS4 it   2 1.00000000   0.634E+00       0.001       32.256   0.100E-07
     TRS4 it   3 1.00000000   0.455E+00       0.001       32.256   0.100E-07
     TRS4 it   4 1.00000000   0.278E+00       0.001       32.256   0.100E-07
     TRS4 it   5 1.00000000   0.139E+00       0.001       32.256   0.100E-07
     TRS4 it   6 1.00000000   0.437E-01       0.001       32.256   0.100E-07
     TRS4 it   7 1.00000000   0.609E-02       0.001       32.256   0.100E-07
     TRS4 it   8 1.00000000   0.159E-03       0.001       32.256   0.100E-07
     TRS4 it   9 1.00000000   0.114E-06       0.001       32.256   0.100E-07
     TRS4 it  10 1.00000000   0.588E-13       0.001       32.256   0.100E-07
     Final TRS4 iteration   10 1.00000000   0.588E-13
     Chemical potential (mu):      -0.07482

 SCF     1       -34.449474586       -34.449474586    1.687555

*********************************************************
 Using MIXING_FRACTION=0.450 to mix KS matrix:  iscf=  2
 KS_nw=0.450*KS + 0.550*KS_old
*********************************************************
     Est. extremal eigenvalues     -0.93749     1.63090  converged:  T
     TRS4 it   1 1.00000000   0.885E+00       0.000       16.128   0.100E-07
     TRS4 it   2 1.00000000   0.634E+00       0.001       32.256   0.100E-07
     TRS4 it   3 1.00000000   0.455E+00       0.001       32.256   0.100E-07
     TRS4 it   4 1.00000000   0.278E+00       0.001       32.256   0.100E-07
     TRS4 it   5 1.00000000   0.139E+00       0.001       32.256   0.100E-07
     TRS4 it   6 1.00000000   0.437E-01       0.001       32.256   0.100E-07
     TRS4 it   7 1.00000000   0.609E-02       0.001       32.256   0.100E-07
     TRS4 it   8 1.00000000   0.159E-03       0.001       32.256   0.100E-07
     TRS4 it   9 1.00000000   0.114E-06       0.001       32.256   0.100E-07
     TRS4 it  10 1.00000000   0.585E-13       0.001       32.256   0.100E-07
     Final TRS4 iteration   10 1.00000000   0.585E-13
     Chemical potential (mu):      -0.07482

 SCF     2       -34.449474586        -0.000000000    1.780513

 PAO| Storing density matrix for ASPC guess in slot:           1

 ENERGY| Total FORCE_EVAL ( QS ) energy (a.u.):              -34.449474586137157


 -------------------------------------------------------------------------------
 -                                                                             -
 -                                DBCSR STATISTICS                             -
 -                                                                             -
 -------------------------------------------------------------------------------
 COUNTER                                    TOTAL       BLAS       SMM       ACC
 flops     5 x     5 x     4                20000     100.0%      0.0%      0.0%
 flops    13 x     5 x     4                20800     100.0%      0.0%      0.0%
 flops     5 x    13 x     4                20800     100.0%      0.0%      0.0%
 flops    13 x    13 x     4                40560     100.0%      0.0%      0.0%
 flops     4 x     4 x     5              3229440     100.0%      0.0%      0.0%
 flops     5 x     4 x     5              3939200     100.0%      0.0%      0.0%
 flops     4 x     4 x    13              4198272     100.0%      0.0%      0.0%
 flops    13 x     4 x     5              5120960     100.0%      0.0%      0.0%
 flops     5 x     4 x    13              5120960     100.0%      0.0%      0.0%
 flops     5 x     4 x     4              6276800     100.0%      0.0%      0.0%
 flops    13 x     4 x    13              6657248     100.0%      0.0%      0.0%
 flops    13 x     4 x     4              8363680     100.0%      0.0%      0.0%
 flops     4 x     4 x     4            417631488     100.0%      0.0%      0.0%
 flops inhomo. stacks                           0       0.0%      0.0%      0.0%
 flops total                       460.640208E+06     100.0%      0.0%      0.0%
 flops max/rank                    460.640208E+06     100.0%      0.0%      0.0%
 matmuls inhomo. stacks                         0       0.0%      0.0%      0.0%
 matmuls total                            3396883     100.0%      0.0%      0.0%
 number of processed stacks                 27121     100.0%      0.0%      0.0%
 average stack size                                   125.2       0.0       0.0
 marketing flops                   749.220288E+06
 -------------------------------------------------------------------------------
 # multiplications                          22643
 max memory usage/rank             328.085504E+06
 # max total images/rank                        1
 # max 3D layers                                1
 # MPI messages exchanged                       0
 MPI messages size (bytes):
  total size                         0.000000E+00
  min size                           0.000000E+00
  max size                           0.000000E+00
  average size                       0.000000E+00
 MPI breakdown and total messages size (bytes):
             size <=      128                   0                        0
       128 < size <=     8192                   0                        0
      8192 < size <=    32768                   0                        0
     32768 < size <=   131072                   0                        0
    131072 < size <=  4194304                   0                        0
   4194304 < size <= 16777216                   0                        0
  16777216 < size                               0                        0
 -------------------------------------------------------------------------------

 MEMORY| Estimated peak process memory [MiB]                                 313

 -------------------------------------------------------------------------------
 -                                                                             -
 -                           R E F E R E N C E S                               -
 -                                                                             -
 -------------------------------------------------------------------------------
 
 CP2K version 7.0 (Development Version), the CP2K developers group (2018).
 CP2K is freely available from https://www.cp2k.org/ .

 Schuett, O; VandeVondele, J. 
 Journal of Chemical Theory and Computation, 14, (2018). 
 Machine Learning Adaptive Basis Sets for Efficient Large Scale Density Functional Theory Simulation.
 https://dx.doi.org/10.1021/acs.jctc.8b00378


 Schuett, Ole; Messmer, Peter; Hutter, Juerg; VandeVondele, Joost. 
 Electronic Structure Calculations on Graphics Processing Units, John Wiley & Sons, Ltd, 173-190 (2016). 
 GPU-Accelerated Sparse Matrix-Matrix Multiplication for Linear Scaling Density Functional Theory.
 https://dx.doi.org/10.1002/9781118670712.ch8


 Borstnik, U; VandeVondele, J; Weber, V; Hutter, J. 
 PARALLEL COMPUTING, 40 (5-6), 47-58 (2014). 
 Sparse matrix multiplication: The distributed block-compressed sparse
 row library.
 https://dx.doi.org/10.1016/j.parco.2014.03.012


 Hutter, J; Iannuzzi, M; Schiffmann, F; VandeVondele, J. 
 WILEY INTERDISCIPLINARY REVIEWS-COMPUTATIONAL MOLECULAR SCIENCE, 4 (1), 15-25 (2014). 
 CP2K: atomistic simulations of condensed matter systems.
 https://dx.doi.org/10.1002/wcms.1159


 VandeVondele, J; Borstnik, U; Hutter, J. 
 JOURNAL OF CHEMICAL THEORY AND COMPUTATION, 8 (10), 3565-3573 (2012). 
 Linear Scaling Self-Consistent Field Calculations with Millions of Atoms
 in the Condensed Phase.
 https://dx.doi.org/10.1021/ct200897x


 VandeVondele, J; Hutter, J. 
 JOURNAL OF CHEMICAL PHYSICS, 127 (11), 114105 (2007). 
 Gaussian basis sets for accurate calculations on molecular systems in
 gas and condensed phases.
 https://dx.doi.org/10.1063/1.2770708


 Krack, M. 
 THEORETICAL CHEMISTRY ACCOUNTS, 114 (1-3), 145-152 (2005). 
 Pseudopotentials for H to Kr optimized for gradient-corrected
 exchange-correlation functionals.
 https://dx.doi.org/10.1007/s00214-005-0655-y


 VandeVondele, J; Krack, M; Mohamed, F; Parrinello, M; Chassaing, T;
 Hutter, J. COMPUTER PHYSICS COMMUNICATIONS, 167 (2), 103-128 (2005). 
 QUICKSTEP: Fast and accurate density functional calculations using a
 mixed Gaussian and plane waves approach.
 https://dx.doi.org/10.1016/j.cpc.2004.12.014


 Frigo, M; Johnson, SG. 
 PROCEEDINGS OF THE IEEE, 93 (2), 216-231 (2005). 
 The design and implementation of FFTW3.
 https://dx.doi.org/10.1109/JPROC.2004.840301


 Niklasson, AMN; Tymczak, CJ; Challacombe, M. 
 JOURNAL OF CHEMICAL PHYSICS, 118 (19), 8611-8620 (2003). 
 Trace resetting density matrix purification in O(N)
 self-consistent-field theory.
 https://dx.doi.org/10.1063/1.1559913


 Hartwigsen, C; Goedecker, S; Hutter, J. 
 PHYSICAL REVIEW B, 58 (7), 3641-3662 (1998). 
 Relativistic separable dual-space Gaussian pseudopotentials from H to Rn.
 https://dx.doi.org/10.1103/PhysRevB.58.3641


 Lippert, G; Hutter, J; Parrinello, M. 
 MOLECULAR PHYSICS, 92 (3), 477-487 (1997). 
 A hybrid Gaussian and plane wave density functional scheme.
 https://dx.doi.org/10.1080/002689797170220


 Perdew, JP; Burke, K; Ernzerhof, M. 
 PHYSICAL REVIEW LETTERS, 77 (18), 3865-3868 (1996). 
 Generalized gradient approximation made simple.
 https://dx.doi.org/10.1103/PhysRevLett.77.3865


 Goedecker, S; Teter, M; Hutter, J. 
 PHYSICAL REVIEW B, 54 (3), 1703-1710 (1996). 
 Separable dual-space Gaussian pseudopotentials.
 https://dx.doi.org/10.1103/PhysRevB.54.1703


 -------------------------------------------------------------------------------
 -                                                                             -
 -                                T I M I N G                                  -
 -                                                                             -
 -------------------------------------------------------------------------------
 SUBROUTINE                       CALLS  ASD         SELF TIME        TOTAL TIME
                                MAXIMUM       AVERAGE  MAXIMUM  AVERAGE  MAXIMUM
 CP2K                                 1  1.0    0.031    0.031   28.905   28.905
 qs_energies                          1  2.0    0.000    0.000   28.405   28.405
 ls_scf                               1  3.0    0.000    0.000   28.262   28.262
 ls_scf_main                          4  4.0    0.001    0.001   15.579   15.579
 ls_scf_dm_to_ks                      9  5.0    0.000    0.000   15.483   15.483
 qs_ks_update_qs_env                 10  6.0    0.000    0.000   12.749   12.749
 rebuild_ks_matrix                   10  7.0    0.000    0.000   12.749   12.749
 qs_ks_build_kohn_sham_matrix        10  8.0    0.001    0.001   12.749   12.749
 pao_update                           4  4.0    0.010    0.010   10.320   10.320
 pao_calc_energy                    414  5.0    0.004    0.004    9.301    9.301
 dbcsr_multiply_generic           22643  8.4    0.490    0.490    7.970    7.970
 qs_vxc_create                       10  9.0    0.000    0.000    7.729    7.729
 xc_vxc_pw_create                    10 10.0    0.105    0.105    7.729    7.729
 xc_rho_set_and_dset_create          10 11.0    0.032    0.032    5.575    5.575
 pw_transfer                        191 10.6    0.012    0.012    5.407    5.407
 fft_wrap_pw1pw2                    171 11.7    0.002    0.002    5.314    5.314
 fft_wrap_pw1pw2_200                111 12.8    0.311    0.311    5.090    5.090
 qs_rho_update_rho                   10  6.0    0.000    0.000    5.027    5.027
 calculate_rho_elec                  10  7.0    3.859    3.859    5.027    5.027
 pao_dm_trs4                        414  6.0    0.003    0.003    4.820    4.820
 density_matrix_trs4                423  7.0    0.176    0.176    4.640    4.640
 ls_scf_init_matrix_S               418  7.0    0.004    0.004    4.473    4.473
 pao_rebuild_S                      414  6.0    0.003    0.003    4.437    4.437
 sum_up_and_integrate                10  9.0    0.017    0.017    4.204    4.204
 integrate_v_rspace                  10 10.0    3.567    3.567    4.187    4.187
 matrix_sqrt_Newton_Schulz          418  8.0    0.110    0.110    4.038    4.038
 xc_functional_eval                  10 12.0    0.000    0.000    3.841    3.841
 pbe_lda_eval                        10 13.0    3.841    3.841    3.841    3.841
 multiply_cannon                  22643  9.4    1.269    1.269    3.739    3.739
 fft3d_s                            172 13.6    2.808    2.808    2.824    2.824
 make_m2s                         45286  9.4    0.189    0.189    2.540    2.540
 pao_guess_initial_P                  1  4.0    0.000    0.000    2.298    2.298
 pao_read_preopt_dm                   1  5.0    0.000    0.000    2.298    2.298
 make_images                      45286 10.4    0.610    0.610    2.234    2.234
 multiply_cannon_multrec          22643 10.4    1.312    1.312    1.434    1.434
 pw_gather_s                         81 13.1    1.198    1.198    1.198    1.198
 density_rs2pw                       10  8.0    0.001    0.001    1.153    1.153
 arnoldi_extremal                   841  8.5    0.004    0.004    1.101    1.101
 arnoldi_normal_ev                  841  9.5    0.013    0.013    1.097    1.097
 pao_calc_AB                        545  5.8    0.001    0.001    1.000    1.000
 pao_calc_AB_direct                 545  6.8    0.028    0.028    0.999    0.999
 pw_scatter_s                        90 14.2    0.968    0.968    0.968    0.968
 pao_calc_grad_lnv_wrt_AB           130  7.0    0.008    0.008    0.943    0.943
 build_subspace                     841 10.5    0.059    0.059    0.823    0.823
 dbcsr_finalize                   53990  9.6    0.122    0.122    0.739    0.739
 dbcsr_matrix_vector_mult         20153 11.5    0.114    0.114    0.738    0.738
 dbcsr_create_new                173166 10.7    0.362    0.362    0.684    0.684
 potential_pw2rs                     10 11.0    0.002    0.002    0.619    0.619
 -------------------------------------------------------------------------------

 The number of warnings for this run is : 0
 
 -------------------------------------------------------------------------------
  **** **** ******  **  PROGRAM ENDED AT                 2019-03-28 17:33:58.563
 ***** ** ***  *** **   PROGRAM RAN ON            oleschuett.zrh.corp.google.com
 **    ****   ******    PROGRAM RAN BY                                oleschuett
 ***** **    ** ** **   PROGRAM PROCESS ID                                 34259
  **** **  *******  **  PROGRAM STOPPED IN /usr/local/google/home/oleschuett/git
                                           /pao_ml_equivar/2H2O_rotations/rand_0
                                           1
