 DBCSR| CPU Multiplication driver                                           XSMM (U)
 DBCSR| Multrec recursion limit                                              512 (U)
 DBCSR| Multiplication stack size                                           1000 (D)
 DBCSR| Maximum elements for images                                    UNLIMITED (U)
 DBCSR| Multiplicative factor virtual images                                   1 (U)
 DBCSR| Use multiplication densification                                       T (D)
 DBCSR| Multiplication size stacks                                             3 (U)
 DBCSR| Use memory pool for CPU allocation                                     F (U)
 DBCSR| OMP: Current number of threads                                         1
 DBCSR| OMP: Max number of threads                                             1
 DBCSR| Split modifier for TAS multiplication algorithm                  1.0E+00 (U)


  **** **** ******  **  PROGRAM STARTED AT               2023-02-01 10:43:54.930
 ***** ** ***  *** **   PROGRAM STARTED ON                                moritz
 **    ****   ******    PROGRAM STARTED BY                                   ole
 ***** **    ** ** **   PROGRAM PROCESS ID                                148490
  **** **  *******  **  PROGRAM STARTED IN /home/ole/git/pao_ml_equivar/2H2O_rot
                                           ations/rand_01

 CP2K| version string:                 CP2K version 2023.1 (Development Version)
 CP2K| source code revision number:                                  git:03b4147
 CP2K| cp2kflags: omp libint fftw3 libxc quip xsmm spglib libvori libbqb libtorc
 CP2K|            h
 CP2K| is freely available from                            https://www.cp2k.org/
 CP2K| Program compiled at                           Mi 01 Feb 2023 10:36:52 CET
 CP2K| Program compiled on                                                moritz
 CP2K| Program compiled for                                                local
 CP2K| Data directory path                               /home/ole/git/cp2k/data
 CP2K| Input file name                                            2H2O_pao44.inp

 GLOBAL| Force Environment number                                              1
 GLOBAL| Basis set file name                                        BASIS_MOLOPT
 GLOBAL| Potential file name                                      GTH_POTENTIALS
 GLOBAL| MM Potential file name                                     MM_POTENTIAL
 GLOBAL| Coordinate file name                                         coords.xyz
 GLOBAL| Method name                                                        CP2K
 GLOBAL| Project name                                                 2H2O_pao44
 GLOBAL| Run type                                                         ENERGY
 GLOBAL| FFT library                                                       FFTW3
 GLOBAL| Diagonalization library                                       ScaLAPACK
 GLOBAL| DGEMM library                                                      BLAS
 GLOBAL| Orthonormality check for eigenvectors                          DISABLED
 GLOBAL| Matrix multiplication library                                 ScaLAPACK
 GLOBAL| All-to-all communication in single precision                          F
 GLOBAL| FFTs using library dependent lengths                                  F
 GLOBAL| Grid backend                                                       AUTO
 GLOBAL| Global print level                                                  LOW
 GLOBAL| MPI I/O enabled                                                       T
 GLOBAL| Total number of message passing processes                             1
 GLOBAL| Number of threads for this process                                    1
 GLOBAL| This output is from process                                           0
 GLOBAL| Stack size for threads created by OpenMP (OMP_STACKSIZE)        default
 GLOBAL| CPU model name           AMD Ryzen Threadripper 3970X 32-Core Processor
 GLOBAL| CPUID                                                              1002
 GLOBAL| Compiled for CPUID                                                    0

 *** HINT in environment.F:884 :: The compiler target flags (generic) used ***
 *** to build this binary cannot exploit all extensions of this CPU model  ***
 *** (x86_avx2). Consider compiler target flags as part of FCFLAGS and     ***
 *** CFLAGS (ARCH file).                                                   ***


 MEMORY| system memory details [Kb]
 MEMORY|                        rank 0           min           max       average
 MEMORY| MemTotal            131773860     131773860     131773860     131773860
 MEMORY| MemFree             115349072     115349072     115349072     115349072
 MEMORY| Buffers                301492        301492        301492        301492
 MEMORY| Cached                7000768       7000768       7000768       7000768
 MEMORY| Slab                   776600        776600        776600        776600
 MEMORY| SReclaimable           330700        330700        330700        330700
 MEMORY| MemLikelyFree       122982032     122982032     122982032     122982032


 GENERATE|  Preliminary Number of Bonds generated:                             0
 GENERATE|  Achieved consistency in connectivity generation.

 *******************************************************************************
 *******************************************************************************
 **                                                                           **
 **     #####                         ##              ##                      **
 **    ##   ##            ##          ##              ##                      **
 **   ##     ##                       ##            ######                    **
 **   ##     ##  ##   ##  ##   #####  ##  ##   ####   ##    #####    #####    **
 **   ##     ##  ##   ##  ##  ##      ## ##   ##      ##   ##   ##  ##   ##   **
 **   ##  ## ##  ##   ##  ##  ##      ####     ###    ##   ######   ######    **
 **    ##  ###   ##   ##  ##  ##      ## ##      ##   ##   ##       ##        **
 **     #######   #####   ##   #####  ##  ##  ####    ##    #####   ##        **
 **           ##                                                    ##        **
 **                                                                           **
 **                                                ... make the atoms dance   **
 **                                                                           **
 **            Copyright (C) by CP2K developers group (2000-2023)             **
 **                      J. Chem. Phys. 152, 194103 (2020)                    **
 **                                                                           **
 *******************************************************************************


 TOTAL NUMBERS AND MAXIMUM NUMBERS

  Total number of            - Atomic kinds:                                   2
                             - Atoms:                                          6
                             - Shell sets:                                     6
                             - Shells:                                        22
                             - Primitive Cartesian functions:                 42
                             - Cartesian basis functions:                     48
                             - Spherical basis functions:                     46

  Maximum angular momentum of- Orbital basis functions:                        2
                             - Local part of the GTH pseudopotential:          2
                             - Non-local part of the GTH pseudopotential:      0

 ------------------------------ Linear scaling SCF -----------------------------
 eps_scf:                                                              0.100E-07
 eps_filter:                                                           0.100E-07
 mixing_fraction:                                                      0.450E+00
 max_scf:                                                                     25
 fixed chemical potential (mu)                                                 F
 has unit metric:                                                              F
 Computing inv(S):                                                             T
 Computing sqrt(S):                                                            T
 Computing S preconditioner                                                    F
 S sqrt method:                                                     NEWTONSCHULZ
 S sqrt order:                                                                 3
 Extrapolation order:                                                          1
 Use single precision matrices                                                 F
 S preconditioner type                                                      NONE
 Polarized Atomic Orbitals (PAO)                                               T
 Purification method                                   Trace resetting 4th order
 Cluster type                                                             ATOMIC
 Computing Chebyshev                                                       FALSE
 Using PAO                                                                     T
 -------------------------------------------------------------------------------

 
 PAO|                                  EPS_PAO                           0.1E-04
 PAO|                                  MIXING                            0.5E+00
 PAO|                                  MAX_PAO                              1000
 PAO|                                  MAX_CYCLES                           1000
 PAO|                                  PARAMETERIZATION              EQUIVARIANT
 PAO|                                  PRECONDITION                            F
 PAO|                                  REGULARIZATION                    0.0E+00
 PAO|                                  EPS_PGF                           0.1E-09
 PAO|                                  PENALTY_DISTANCE                  0.1E+00
 PAO|                                  PENALTY_STRENGTH                  0.5E-02
 PAO|                                  LINPOT_PRECONDITION_DELTA         0.0E+00
 PAO|                                  LINPOT_INITGUESS_DELT             0.0E+00
 PAO|                                  LINPOT_REGULARIZATION_DELTA       0.0E+00
 PAO|                                  LINPOT_REGULARIZATION_STRENGTH    0.0E+00
 PAO|                                  OPTIMIZER                              CG
 PAO|                                  CG_INIT_STEPS                           2
 PAO|                                  CG_RESET_LIMIT                    0.1E+00
 PAO|                                  CHECK_UNITARY_TOL                -0.1E+01
 PAO|                                  CHECK_GRADIENT_TOL               -0.1E+01
 PAO|                                  NUM_GRADIENT_ORDER                      2
 PAO|                                  NUM_GRADIENT_EPS                  0.1E-07
 PAO|                                  PRINT%RESTART%WRITE_CYCLES            100
 PAO|                                  RESTART_FILE 
 PAO|                                  PREOPT_DM_FILE 2H2O_ref_LS_DM_SPIN_1_RESTART.dm
 PAO|                                  MACHINE_LEARNING%METHOD       GAUSSIAN_PR
 PAO|                                  MACHINE_LEARNING%PRIOR               ZERO
 PAO|                                  MACHINE_LEARNING%DESCRIPTOR     POTENTIAL
 PAO|                                  MACHINE_LEARNING%TOLERANCE        0.1E-01
 PAO|                                  MACHINE_LEARNING%GP_NOISE_VAR     0.1E+00
 PAO|                                  MACHINE_LEARNING%GP_SCALE         0.5E-01
 

 Calculating atomic Fock matrix for atomic kind: O

 Electronic structure
    Total number of core electrons                                          2.00
    Total number of valence electrons                                       6.00
    Total number of electrons                                               8.00
    Multiplicity                                                   not specified
    S   [  2.00] 2.00
    P      4.00


 *******************************************************************************
                  Iteration          Convergence                     Energy [au]
 *******************************************************************************
                          1        0.708315                     -15.576645311500
                          2        0.608879                     -15.587933561584
                          3        0.102828E-01                 -15.656849565404
                          4        0.113889E-02                 -15.656866888140
                          5        0.434197E-03                 -15.656867072159
                          6        0.263771E-03                 -15.656867091904
                          7        0.478536E-06                 -15.656867103452

 Energy components [Hartree]           Total Energy ::          -15.656867103452
                                        Band Energy ::           -3.000198112285
                                     Kinetic Energy ::           11.759971203220
                                   Potential Energy ::          -27.416838306672
                                      Virial (-V/T) ::            2.331369510426
                                        Core Energy ::          -26.140716385623
                                          XC Energy ::           -3.154051012914
                                     Coulomb Energy ::           13.637900295084
                       Total Pseudopotential Energy ::          -37.935781716540
                       Local Pseudopotential Energy ::          -39.218907440693
                    Nonlocal Pseudopotential Energy ::            1.283125724153
                                        Confinement ::            0.350941276976

 Orbital energies  State     L     Occupation   Energy[a.u.]          Energy[eV]

                       1     0          2.000      -0.864471          -23.523463

                       1     1          4.000      -0.317814           -8.648154


 Total Electron Density at R=0:                                         0.000068

 Calculating atomic Fock matrix for atomic kind: H

 Electronic structure
    Total number of core electrons                                          0.00
    Total number of valence electrons                                       1.00
    Total number of electrons                                               1.00
    Multiplicity                                                   not specified
    S      1.00


 *******************************************************************************
                  Iteration          Convergence                     Energy [au]
 *******************************************************************************
                          1        0.437545E-02                  -0.424159432110
                          2        0.531356E-03                  -0.424178438213
                          3        0.259176E-06                  -0.424178722480

 Energy components [Hartree]           Total Energy ::           -0.424178722480
                                        Band Energy ::           -0.199015229016
                                     Kinetic Energy ::            0.464007633961
                                   Potential Energy ::           -0.888186356441
                                      Virial (-V/T) ::            1.914163240935
                                        Core Energy ::           -0.479160803564
                                          XC Energy ::           -0.244352904054
                                     Coulomb Energy ::            0.299334985138
                       Total Pseudopotential Energy ::           -0.962295316385
                       Local Pseudopotential Energy ::           -0.962295316385
                    Nonlocal Pseudopotential Energy ::            0.000000000000
                                        Confinement ::            0.191268788606

 Orbital energies  State     L     Occupation   Energy[a.u.]          Energy[eV]

                       1     0          1.000      -0.199015           -5.415480


 Total Electron Density at R=0:                                         0.242907
 PAO| Made initial guess for matrix_X with norm:   4.8989794855663558     

     Lanczos converged:  T threshold:   0.100E-02
     Est. extremal eigenvalues:    0.336E+01   0.113E+00
     Est. condition number :    0.297E+02

 Order=           3
     NS sqrt iter    1 1.00000000   0.820E+00       0.001       58.374
     NS sqrt iter    2 1.00000000   0.440E+00       0.001      104.687
     NS sqrt iter    3 1.00000000   0.171E+00       0.001      104.087
     NS sqrt iter    4 1.00000000   0.207E-01       0.001      104.841
     NS sqrt iter    5 1.00000000   0.553E-04       0.001       88.325
     Symmetrizing Results
     Final NS sqrt iter    5 1.00000000   0.332E-08

 PAO| Read restart DM 2H2O_ref_LS_DM_SPIN_1_RESTART.dm with checksum:    74.127165531553061     
 PAO| Quickstep energy from restart density:  -34.450705003749455     
 PAO| ======================= Iteration:         1 =============================

     Lanczos converged:  T threshold:   0.100E-02
     Est. extremal eigenvalues:    0.336E+01   0.113E+00
     Est. condition number :    0.297E+02

 Order=           3
     NS sqrt iter    1 1.00000000   0.820E+00       0.001       64.512
     NS sqrt iter    2 1.00000000   0.440E+00       0.001      110.592
     NS sqrt iter    3 1.00000000   0.171E+00       0.001      110.592
     NS sqrt iter    4 1.00000000   0.207E-01       0.001      110.592
     NS sqrt iter    5 1.00000000   0.553E-04       0.001       87.644
     Symmetrizing Results
     Final NS sqrt iter    5 1.00000000   0.332E-08

     Est. extremal eigenvalues     -0.91997     1.91230  converged:  T
     TRS4 it   1 1.00000000   0.889E+00       0.000       16.128   0.100E-07
     TRS4 it   2 1.00000000   0.698E+00       0.001       32.256   0.100E-07
     TRS4 it   3 1.00000000   0.502E+00       0.001       32.256   0.100E-07
     TRS4 it   4 1.00000000   0.315E+00       0.001       32.256   0.100E-07
     TRS4 it   5 1.00000000   0.157E+00       0.001       32.256   0.100E-07
     TRS4 it   6 1.00000000   0.495E-01       0.001       32.256   0.100E-07
     TRS4 it   7 1.00000000   0.692E-02       0.001       32.256   0.100E-07
     TRS4 it   8 1.00000000   0.190E-03       0.001       32.256   0.100E-07
     TRS4 it   9 1.00000000   0.160E-06       0.001       32.256   0.100E-07
     TRS4 it  10 1.00000000   0.116E-12       0.001       32.256   0.100E-07
     Final TRS4 iteration   10 1.00000000   0.116E-12
     Chemical potential (mu):      -0.06545
 
 PAO| energy:  -7.6249407417364434      penalty:   4.9303806576313234E-033
 PAO|CG| warming up with steepest descent
 PAO|CG| beta:    0.0000000000000000     
 PAO| norm of gradient:  0.78325435247385145     
 PAO|LS| adapt:  T F F
 PAO|LS| adapt: scan_steps:    0.0000000000000000        0.0000000000000000        0.0000000000000000     
 PAO|LS| adapt: energies:   -7.6249407417364434        0.0000000000000000        0.0000000000000000     
 PAO| ======================= Iteration:         2 =============================

     Lanczos converged:  T threshold:   0.100E-02
     Est. extremal eigenvalues:    0.327E+01   0.126E+00
     Est. condition number :    0.261E+02

 Order=           3
     NS sqrt iter    1 1.00000000   0.804E+00       0.001       59.792
     NS sqrt iter    2 1.00000000   0.425E+00       0.001      101.056
     NS sqrt iter    3 1.00000000   0.153E+00       0.001      100.413
     NS sqrt iter    4 1.00000000   0.144E-01       0.001      101.137
     NS sqrt iter    5 1.00000000   0.182E-04       0.001       76.740
     Symmetrizing Results
     Final NS sqrt iter    5 1.00000000   0.512E-09

     Est. extremal eigenvalues     -0.92363     1.85834  converged:  T
     TRS4 it   1 1.00000000   0.887E+00       0.000       16.128   0.100E-07
     TRS4 it   2 1.00000000   0.680E+00       0.001       32.256   0.100E-07
     TRS4 it   3 1.00000000   0.487E+00       0.001       32.256   0.100E-07
     TRS4 it   4 1.00000000   0.295E+00       0.001       32.256   0.100E-07
     TRS4 it   5 1.00000000   0.138E+00       0.001       32.256   0.100E-07
     TRS4 it   6 1.00000000   0.384E-01       0.001       32.256   0.100E-07
     TRS4 it   7 1.00000000   0.421E-02       0.001       32.256   0.100E-07
     TRS4 it   8 1.00000000   0.708E-04       0.001       32.256   0.100E-07
     TRS4 it   9 1.00000000   0.223E-07       0.001       32.256   0.100E-07
     Final TRS4 iteration    9 1.00000000   0.223E-07
     Chemical potential (mu):      -0.05344
 
 PAO| energy:  -7.6804127547296392      penalty:   2.2464168649051231E-008
 PAO|LS| adapt:  T T F
 PAO|LS| adapt: scan_steps:    0.0000000000000000       0.10000000000000001        0.0000000000000000     
 PAO|LS| adapt: energies:   -7.6249407417364434       -7.6804127547296392        0.0000000000000000     
 PAO| ======================= Iteration:         3 =============================

     Lanczos converged:  T threshold:   0.100E-02
     Est. extremal eigenvalues:    0.318E+01   0.137E+00
     Est. condition number :    0.233E+02

 Order=           3
     NS sqrt iter    1 1.00000000   0.786E+00       0.001       58.951
     NS sqrt iter    2 1.00000000   0.408E+00       0.001       99.586
     NS sqrt iter    3 1.00000000   0.136E+00       0.001       99.979
     NS sqrt iter    4 1.00000000   0.999E-02       0.001       99.569
     NS sqrt iter    5 1.00000000   0.633E-05       0.001       77.440
     Symmetrizing Results
     Final NS sqrt iter    5 1.00000000   0.625E-10

     Est. extremal eigenvalues     -0.92706     1.81430  converged:  T
     TRS4 it   1 1.00000000   0.884E+00       0.000       16.128   0.100E-07
     TRS4 it   2 1.00000000   0.664E+00       0.001       32.256   0.100E-07
     TRS4 it   3 1.00000000   0.472E+00       0.001       32.256   0.100E-07
     TRS4 it   4 1.00000000   0.276E+00       0.001       32.256   0.100E-07
     TRS4 it   5 1.00000000   0.120E+00       0.001       32.256   0.100E-07
     TRS4 it   6 1.00000000   0.289E-01       0.001       32.256   0.100E-07
     TRS4 it   7 1.00000000   0.237E-02       0.001       32.256   0.100E-07
     TRS4 it   8 1.00000000   0.226E-04       0.001       32.256   0.100E-07
     TRS4 it   9 1.00000000   0.226E-08       0.001       32.256   0.100E-07
     Final TRS4 iteration    9 1.00000000   0.226E-08
     Chemical potential (mu):      -0.04046
 
 PAO| energy:  -7.7234723134878198      penalty:   3.5942677872544586E-007
 PAO|LS| adapt:  T T F
 PAO|LS| adapt: scan_steps:    0.0000000000000000       0.20000000000000001        0.0000000000000000     
 PAO|LS| adapt: energies:   -7.6249407417364434       -7.7234723134878198        0.0000000000000000     
 PAO| ======================= Iteration:         4 =============================

     Lanczos converged:  T threshold:   0.100E-02
     Est. extremal eigenvalues:    0.299E+01   0.154E+00
     Est. condition number :    0.193E+02

 Order=           3
     NS sqrt iter    1 1.00000000   0.750E+00       0.001       58.759
     NS sqrt iter    2 1.00000000   0.374E+00       0.001      100.640
     NS sqrt iter    3 1.00000000   0.107E+00       0.001       99.724
     NS sqrt iter    4 1.00000000   0.494E-02       0.001       99.260
     NS sqrt iter    5 1.00000000   0.944E-06       0.001       77.486
     Symmetrizing Results
     Final NS sqrt iter    5 1.00000000   0.151E-11

     Est. extremal eigenvalues     -0.93239     1.74891  converged:  T
     TRS4 it   1 1.00000000   0.880E+00       0.000       16.128   0.100E-07
     TRS4 it   2 1.00000000   0.637E+00       0.001       32.256   0.100E-07
     TRS4 it   3 1.00000000   0.443E+00       0.001       32.256   0.100E-07
     TRS4 it   4 1.00000000   0.240E+00       0.001       32.256   0.100E-07
     TRS4 it   5 1.00000000   0.882E-01       0.001       32.256   0.100E-07
     TRS4 it   6 1.00000000   0.152E-01       0.001       32.256   0.100E-07
     TRS4 it   7 1.00000000   0.622E-03       0.001       32.256   0.100E-07
     TRS4 it   8 1.00000000   0.150E-05       0.001       32.256   0.100E-07
     TRS4 it   9 1.00000000   0.999E-11       0.001       32.256   0.100E-07
     Final TRS4 iteration    9 1.00000000   0.999E-11
     Chemical potential (mu):      -0.01176
 
 PAO| energy:  -7.7707308042124010      penalty:   5.7508291023435328E-006
 PAO|LS| Need extra step
 PAO|LS| adapt:  T T F
 PAO|LS| adapt: scan_steps:    0.0000000000000000       0.40000000000000002        0.0000000000000000     
 PAO|LS| adapt: energies:   -7.6249407417364434       -7.7707308042124010        0.0000000000000000     
 PAO| ======================= Iteration:         5 =============================

     Lanczos converged:  T threshold:   0.100E-02
     Est. extremal eigenvalues:    0.263E+01   0.182E+00
     Est. condition number :    0.145E+02

 Order=           3
     NS sqrt iter    1 1.00000000   0.686E+00       0.001       58.373
     NS sqrt iter    2 1.00000000   0.313E+00       0.001       99.204
     NS sqrt iter    3 1.00000000   0.661E-01       0.001       98.957
     NS sqrt iter    4 1.00000000   0.138E-02       0.001       99.574
     NS sqrt iter    5 1.00000000   0.263E-07       0.001       54.108
     Symmetrizing Results
     Final NS sqrt iter    5 1.00000000   0.316E-08

     Est. extremal eigenvalues     -0.93366     1.67269  converged:  T
     TRS4 it   1 1.00000000   0.874E+00       0.000       16.128   0.100E-07
     TRS4 it   2 1.00000000   0.599E+00       0.001       32.256   0.100E-07
     TRS4 it   3 1.00000000   0.396E+00       0.001       32.256   0.100E-07
     TRS4 it   4 1.00000000   0.184E+00       0.001       32.256   0.100E-07
     TRS4 it   5 1.00000000   0.480E-01       0.001       32.256   0.100E-07
     TRS4 it   6 1.00000000   0.406E-02       0.001       32.256   0.100E-07
     TRS4 it   7 1.00000000   0.375E-04       0.001       32.256   0.100E-07
     TRS4 it   8 1.00000000   0.410E-08       0.001       32.256   0.100E-07
     Final TRS4 iteration    8 1.00000000   0.410E-08
     Chemical potential (mu):       0.03726
 
 PAO| energy:  -7.7160420157139162      penalty:   9.2013270779442219E-005
 PAO|LS| Need extra step
 PAO|LS| adapt:  T T T
 PAO|LS| adapt: scan_steps:    0.0000000000000000       0.40000000000000002       0.80000000000000004     
 PAO|LS| adapt: energies:   -7.6249407417364434       -7.7707308042124010       -7.7160420157139162     
 PAO|LS| adapt: suggested step_size:   0.49088367529509308     
 PAO|LS| adapt: predicted energy  -7.7759055658393619     
 PAO| ======================= Iteration:         6 =============================

     Lanczos converged:  T threshold:   0.100E-02
     Est. extremal eigenvalues:    0.290E+01   0.161E+00
     Est. condition number :    0.180E+02

 Order=           3
     NS sqrt iter    1 1.00000000   0.733E+00       0.001       59.102
     NS sqrt iter    2 1.00000000   0.359E+00       0.001       99.742
     NS sqrt iter    3 1.00000000   0.953E-01       0.001      100.534
     NS sqrt iter    4 1.00000000   0.365E-02       0.001       99.383
     NS sqrt iter    5 1.00000000   0.415E-06       0.001       77.104
     Symmetrizing Results
     Final NS sqrt iter    5 1.00000000   0.141E-09

     Est. extremal eigenvalues     -0.93388     1.72658  converged:  T
     TRS4 it   1 1.00000000   0.879E+00       0.000       16.128   0.100E-07
     TRS4 it   2 1.00000000   0.627E+00       0.001       32.256   0.100E-07
     TRS4 it   3 1.00000000   0.431E+00       0.001       32.256   0.100E-07
     TRS4 it   4 1.00000000   0.225E+00       0.001       32.256   0.100E-07
     TRS4 it   5 1.00000000   0.764E-01       0.001       32.256   0.100E-07
     TRS4 it   6 1.00000000   0.111E-01       0.001       32.256   0.100E-07
     TRS4 it   7 1.00000000   0.318E-03       0.001       32.256   0.100E-07
     TRS4 it   8 1.00000000   0.373E-06       0.001       32.256   0.100E-07
     TRS4 it   9 1.00000000   0.613E-12       0.001       32.256   0.100E-07
     Final TRS4 iteration    9 1.00000000   0.613E-12
     Chemical potential (mu):       0.00218
 
 PAO| energy:  -7.7751872248044771      penalty:   1.3043822001837662E-005
 PAO|CG| warming up with steepest descent
 PAO|CG| beta:    0.0000000000000000     
 PAO| norm of gradient:  0.41765909612209778     
 PAO| energy improvement: -0.15024648306803368     
 PAO| step      6                   -7.775187225  0.261E-01  0.491E+00     0.092
 PAO|LS| adapt:  T F F
 PAO|LS| adapt: scan_steps:    0.0000000000000000        0.0000000000000000        0.0000000000000000     
 PAO|LS| adapt: energies:   -7.7751872248044771        0.0000000000000000        0.0000000000000000     
 PAO| ======================= Iteration:         7 =============================

     Lanczos converged:  T threshold:   0.100E-02
     Est. extremal eigenvalues:    0.281E+01   0.175E+00
     Est. condition number :    0.161E+02

 Order=           3
     NS sqrt iter    1 1.00000000   0.716E+00       0.001       59.515
     NS sqrt iter    2 1.00000000   0.338E+00       0.001       99.130
     NS sqrt iter    3 1.00000000   0.797E-01       0.001      100.426
     NS sqrt iter    4 1.00000000   0.223E-02       0.001      100.780
     NS sqrt iter    5 1.00000000   0.105E-06       0.001       72.079
     Symmetrizing Results
     Final NS sqrt iter    5 1.00000000   0.111E-08

     Est. extremal eigenvalues     -0.93561     1.71350  converged:  T
     TRS4 it   1 1.00000000   0.878E+00       0.000       16.128   0.100E-07
     TRS4 it   2 1.00000000   0.625E+00       0.001       32.256   0.100E-07
     TRS4 it   3 1.00000000   0.431E+00       0.001       32.256   0.100E-07
     TRS4 it   4 1.00000000   0.226E+00       0.001       32.256   0.100E-07
     TRS4 it   5 1.00000000   0.771E-01       0.001       32.256   0.100E-07
     TRS4 it   6 1.00000000   0.110E-01       0.001       32.256   0.100E-07
     TRS4 it   7 1.00000000   0.297E-03       0.001       32.256   0.100E-07
     TRS4 it   8 1.00000000   0.307E-06       0.001       32.256   0.100E-07
     TRS4 it   9 1.00000000   0.406E-12       0.001       32.256   0.100E-07
     Final TRS4 iteration    9 1.00000000   0.406E-12
     Chemical potential (mu):       0.00439
 
 PAO| energy:  -7.7692714373767959      penalty:   1.9781487597976084E-005
 PAO|LS| adapt:  T F T
 PAO|LS| adapt: scan_steps:    0.0000000000000000        0.0000000000000000       0.49088367529509308     
 PAO|LS| adapt: energies:   -7.7751872248044771        0.0000000000000000       -7.7692714373767959     
 PAO| ======================= Iteration:         8 =============================

     Lanczos converged:  T threshold:   0.100E-02
     Est. extremal eigenvalues:    0.286E+01   0.168E+00
     Est. condition number :    0.170E+02

 Order=           3
     NS sqrt iter    1 1.00000000   0.725E+00       0.001       58.194
     NS sqrt iter    2 1.00000000   0.349E+00       0.001       99.371
     NS sqrt iter    3 1.00000000   0.873E-01       0.001      101.079
     NS sqrt iter    4 1.00000000   0.287E-02       0.001       95.916
     NS sqrt iter    5 1.00000000   0.213E-06       0.001       75.150
     Symmetrizing Results
     Final NS sqrt iter    5 1.00000000   0.821E-09

     Est. extremal eigenvalues     -0.93570     1.71943  converged:  T
     TRS4 it   1 1.00000000   0.878E+00       0.000       16.128   0.100E-07
     TRS4 it   2 1.00000000   0.625E+00       0.001       32.256   0.100E-07
     TRS4 it   3 1.00000000   0.431E+00       0.001       32.256   0.100E-07
     TRS4 it   4 1.00000000   0.225E+00       0.001       32.256   0.100E-07
     TRS4 it   5 1.00000000   0.765E-01       0.001       32.256   0.100E-07
     TRS4 it   6 1.00000000   0.111E-01       0.001       32.256   0.100E-07
     TRS4 it   7 1.00000000   0.315E-03       0.001       32.256   0.100E-07
     TRS4 it   8 1.00000000   0.359E-06       0.001       32.256   0.100E-07
     TRS4 it   9 1.00000000   0.564E-12       0.001       32.256   0.100E-07
     Final TRS4 iteration    9 1.00000000   0.564E-12
     Chemical potential (mu):       0.00281
 
 PAO| energy:  -7.7948745100746262      penalty:   1.4151168495103335E-005
 PAO|LS| adapt:  T T T
 PAO|LS| adapt: scan_steps:    0.0000000000000000       0.24544183764754654       0.49088367529509308     
 PAO|LS| adapt: energies:   -7.7751872248044771       -7.7948745100746262       -7.7692714373767959     
 PAO|LS| adapt: suggested step_size:   0.22941213725956452     
 PAO|LS| adapt: predicted energy  -7.7949710994549593     
 PAO| ======================= Iteration:         9 =============================

     Lanczos converged:  T threshold:   0.100E-02
     Est. extremal eigenvalues:    0.286E+01   0.168E+00
     Est. condition number :    0.171E+02

 Order=           3
     NS sqrt iter    1 1.00000000   0.725E+00       0.001       59.388
     NS sqrt iter    2 1.00000000   0.349E+00       0.001      100.119
     NS sqrt iter    3 1.00000000   0.879E-01       0.001       98.879
     NS sqrt iter    4 1.00000000   0.291E-02       0.001      101.002
     NS sqrt iter    5 1.00000000   0.223E-06       0.001       75.078
     Symmetrizing Results
     Final NS sqrt iter    5 1.00000000   0.850E-09

     Est. extremal eigenvalues     -0.93564     1.71986  converged:  T
     TRS4 it   1 1.00000000   0.878E+00       0.000       16.128   0.100E-07
     TRS4 it   2 1.00000000   0.626E+00       0.001       32.256   0.100E-07
     TRS4 it   3 1.00000000   0.431E+00       0.001       32.256   0.100E-07
     TRS4 it   4 1.00000000   0.225E+00       0.001       32.256   0.100E-07
     TRS4 it   5 1.00000000   0.765E-01       0.001       32.256   0.100E-07
     TRS4 it   6 1.00000000   0.111E-01       0.001       32.256   0.100E-07
     TRS4 it   7 1.00000000   0.316E-03       0.001       32.256   0.100E-07
     TRS4 it   8 1.00000000   0.362E-06       0.001       32.256   0.100E-07
     TRS4 it   9 1.00000000   0.571E-12       0.001       32.256   0.100E-07
     Final TRS4 iteration    9 1.00000000   0.571E-12
     Chemical potential (mu):       0.00274
 
 PAO| energy:  -7.7949951471196695      penalty:   1.3979118988235029E-005
 PAO|CG| trace_G_new    3.6971853797944140E-002
 PAO|CG| trace_G_prev   0.17443912057352773     
 PAO|CG| trace_G_mix   -1.4526271967694646E-003
 PAO|CG| trace_D   0.17443912057352773     
 PAO|CG| trace_D_Gnew   1.4526271967694646E-003
 PAO|CG| beta:   0.22027444800443904     
 PAO| norm of gradient:  0.19228066412914258     
 PAO| energy improvement:  -1.9807922315192350E-002
 PAO| step      9                   -7.794995147  0.120E-01  0.229E+00     0.057
 PAO|LS| adapt:  T F F
 PAO|LS| adapt: scan_steps:    0.0000000000000000        0.0000000000000000        0.0000000000000000     
 PAO|LS| adapt: energies:   -7.7949951471196695        0.0000000000000000        0.0000000000000000     
 PAO| ======================= Iteration:        10 =============================

     Lanczos converged:  T threshold:   0.100E-02
     Est. extremal eigenvalues:    0.282E+01   0.173E+00
     Est. condition number :    0.163E+02

 Order=           3
     NS sqrt iter    1 1.00000000   0.717E+00       0.001       58.987
     NS sqrt iter    2 1.00000000   0.341E+00       0.001      100.459
     NS sqrt iter    3 1.00000000   0.822E-01       0.001      100.883
     NS sqrt iter    4 1.00000000   0.240E-02       0.001       99.641
     NS sqrt iter    5 1.00000000   0.124E-06       0.001       72.556
     Symmetrizing Results
     Final NS sqrt iter    5 1.00000000   0.127E-08

     Est. extremal eigenvalues     -0.93653     1.71456  converged:  T
     TRS4 it   1 1.00000000   0.876E+00       0.000       16.128   0.100E-07
     TRS4 it   2 1.00000000   0.624E+00       0.001       32.256   0.100E-07
     TRS4 it   3 1.00000000   0.428E+00       0.001       32.256   0.100E-07
     TRS4 it   4 1.00000000   0.222E+00       0.001       32.256   0.100E-07
     TRS4 it   5 1.00000000   0.744E-01       0.001       32.256   0.100E-07
     TRS4 it   6 1.00000000   0.104E-01       0.001       32.256   0.100E-07
     TRS4 it   7 1.00000000   0.274E-03       0.001       32.256   0.100E-07
     TRS4 it   8 1.00000000   0.265E-06       0.001       32.256   0.100E-07
     TRS4 it   9 1.00000000   0.304E-12       0.001       32.256   0.100E-07
     Final TRS4 iteration    9 1.00000000   0.304E-12
     Chemical potential (mu):       0.00597
 
 PAO| energy:  -7.8000498109378853      penalty:   1.4522700597936111E-005
 PAO|LS| adapt:  T T F
 PAO|LS| adapt: scan_steps:    0.0000000000000000       0.22941213725956452        0.0000000000000000     
 PAO|LS| adapt: energies:   -7.7949951471196695       -7.8000498109378853        0.0000000000000000     
 PAO| ======================= Iteration:        11 =============================

     Lanczos converged:  T threshold:   0.100E-02
     Est. extremal eigenvalues:    0.278E+01   0.179E+00
     Est. condition number :    0.155E+02

 Order=           3
     NS sqrt iter    1 1.00000000   0.710E+00       0.001       59.147
     NS sqrt iter    2 1.00000000   0.333E+00       0.001      100.652
     NS sqrt iter    3 1.00000000   0.768E-01       0.001      100.001
     NS sqrt iter    4 1.00000000   0.196E-02       0.001      100.262
     NS sqrt iter    5 1.00000000   0.679E-07       0.001       68.647
     Symmetrizing Results
     Final NS sqrt iter    5 1.00000000   0.778E-09

     Est. extremal eigenvalues     -0.93645     1.71054  converged:  T
     TRS4 it   1 1.00000000   0.874E+00       0.000       16.128   0.100E-07
     TRS4 it   2 1.00000000   0.622E+00       0.001       32.256   0.100E-07
     TRS4 it   3 1.00000000   0.427E+00       0.001       32.256   0.100E-07
     TRS4 it   4 1.00000000   0.220E+00       0.001       32.256   0.100E-07
     TRS4 it   5 1.00000000   0.724E-01       0.001       32.256   0.100E-07
     TRS4 it   6 1.00000000   0.982E-02       0.001       32.256   0.100E-07
     TRS4 it   7 1.00000000   0.238E-03       0.001       32.256   0.100E-07
     TRS4 it   8 1.00000000   0.193E-06       0.001       32.256   0.100E-07
     TRS4 it   9 1.00000000   0.158E-12       0.001       32.256   0.100E-07
     Final TRS4 iteration    9 1.00000000   0.158E-12
     Chemical potential (mu):       0.00931
 
 PAO| energy:  -7.7986408216260079      penalty:   1.5739621870963063E-005
 PAO|LS| adapt:  T T T
 PAO|LS| adapt: scan_steps:    0.0000000000000000       0.22941213725956452       0.45882427451912905     
 PAO|LS| adapt: energies:   -7.7949951471196695       -7.8000498109378853       -7.7986408216260079     
 PAO|LS| adapt: suggested step_size:   0.29410945032838559     
 PAO|LS| adapt: predicted energy  -7.8003068432681069     
 PAO| ======================= Iteration:        12 =============================

     Lanczos converged:  T threshold:   0.100E-02
     Est. extremal eigenvalues:    0.281E+01   0.175E+00
     Est. condition number :    0.161E+02

 Order=           3
     NS sqrt iter    1 1.00000000   0.715E+00       0.001       59.108
     NS sqrt iter    2 1.00000000   0.339E+00       0.001       99.373
     NS sqrt iter    3 1.00000000   0.807E-01       0.001       99.830
     NS sqrt iter    4 1.00000000   0.227E-02       0.001      100.342
     NS sqrt iter    5 1.00000000   0.105E-06       0.001       72.148
     Symmetrizing Results
     Final NS sqrt iter    5 1.00000000   0.107E-08

     Est. extremal eigenvalues     -0.93660     1.71330  converged:  T
     TRS4 it   1 1.00000000   0.875E+00       0.000       16.128   0.100E-07
     TRS4 it   2 1.00000000   0.623E+00       0.001       32.256   0.100E-07
     TRS4 it   3 1.00000000   0.428E+00       0.001       32.256   0.100E-07
     TRS4 it   4 1.00000000   0.222E+00       0.001       32.256   0.100E-07
     TRS4 it   5 1.00000000   0.738E-01       0.001       32.256   0.100E-07
     TRS4 it   6 1.00000000   0.103E-01       0.001       32.256   0.100E-07
     TRS4 it   7 1.00000000   0.263E-03       0.001       32.256   0.100E-07
     TRS4 it   8 1.00000000   0.243E-06       0.001       32.256   0.100E-07
     TRS4 it   9 1.00000000   0.254E-12       0.001       32.256   0.100E-07
     Final TRS4 iteration    9 1.00000000   0.254E-12
     Chemical potential (mu):       0.00690
 
 PAO| energy:  -7.8002906024401630      penalty:   1.4790001445960694E-005
 PAO|CG| trace_G_new    1.1870368642298668E-002
 PAO|CG| trace_G_prev    3.6971853797944140E-002
 PAO|CG| trace_G_mix   -4.5898440826861765E-004
 PAO|CG| trace_D    4.4795831831062470E-002
 PAO|CG| trace_D_Gnew   2.0885199941286119E-004
 PAO|CG| beta:   0.33347943865484164     
 PAO| norm of gradient:  0.10895122138965982     
 PAO| energy improvement:  -5.2954553204935806E-003
 PAO| step     12                   -7.800290602  0.681E-02  0.294E+00     0.057
 PAO|LS| adapt:  T F F
 PAO|LS| adapt: scan_steps:    0.0000000000000000        0.0000000000000000        0.0000000000000000     
 PAO|LS| adapt: energies:   -7.8002906024401630        0.0000000000000000        0.0000000000000000     
 PAO| ======================= Iteration:        13 =============================

     Lanczos converged:  T threshold:   0.100E-02
     Est. extremal eigenvalues:    0.278E+01   0.179E+00
     Est. condition number :    0.155E+02

 Order=           3
     NS sqrt iter    1 1.00000000   0.708E+00       0.001       59.605
     NS sqrt iter    2 1.00000000   0.332E+00       0.001       99.310
     NS sqrt iter    3 1.00000000   0.763E-01       0.001       99.019
     NS sqrt iter    4 1.00000000   0.193E-02       0.001       99.537
     NS sqrt iter    5 1.00000000   0.657E-07       0.001       68.656
     Symmetrizing Results
     Final NS sqrt iter    5 1.00000000   0.772E-09

     Est. extremal eigenvalues     -0.93709     1.70660  converged:  T
     TRS4 it   1 1.00000000   0.874E+00       0.000       16.128   0.100E-07
     TRS4 it   2 1.00000000   0.620E+00       0.001       32.256   0.100E-07
     TRS4 it   3 1.00000000   0.424E+00       0.001       32.256   0.100E-07
     TRS4 it   4 1.00000000   0.217E+00       0.001       32.256   0.100E-07
     TRS4 it   5 1.00000000   0.702E-01       0.001       32.256   0.100E-07
     TRS4 it   6 1.00000000   0.923E-02       0.001       32.256   0.100E-07
     TRS4 it   7 1.00000000   0.210E-03       0.001       32.256   0.100E-07
     TRS4 it   8 1.00000000   0.150E-06       0.001       32.256   0.100E-07
     TRS4 it   9 1.00000000   0.951E-13       0.001       32.256   0.100E-07
     Final TRS4 iteration    9 1.00000000   0.951E-13
     Chemical potential (mu):       0.01153
 
 PAO| energy:  -7.8023680382320260      penalty:   1.5103413471279381E-005
 PAO|LS| adapt:  T T F
 PAO|LS| adapt: scan_steps:    0.0000000000000000       0.29410945032838559        0.0000000000000000     
 PAO|LS| adapt: energies:   -7.8002906024401630       -7.8023680382320260        0.0000000000000000     
 PAO| ======================= Iteration:        14 =============================

     Lanczos converged:  T threshold:   0.100E-02
     Est. extremal eigenvalues:    0.274E+01   0.183E+00
     Est. condition number :    0.150E+02

 Order=           3
     NS sqrt iter    1 1.00000000   0.701E+00       0.001       59.274
     NS sqrt iter    2 1.00000000   0.325E+00       0.001      100.022
     NS sqrt iter    3 1.00000000   0.722E-01       0.001      100.246
     NS sqrt iter    4 1.00000000   0.165E-02       0.001       99.834
     NS sqrt iter    5 1.00000000   0.411E-07       0.001       64.592
     Symmetrizing Results
     Final NS sqrt iter    5 1.00000000   0.390E-09

     Est. extremal eigenvalues     -0.93707     1.70023  converged:  T
     TRS4 it   1 1.00000000   0.874E+00       0.000       16.128   0.100E-07
     TRS4 it   2 1.00000000   0.617E+00       0.001       32.256   0.100E-07
     TRS4 it   3 1.00000000   0.420E+00       0.001       32.256   0.100E-07
     TRS4 it   4 1.00000000   0.212E+00       0.001       32.256   0.100E-07
     TRS4 it   5 1.00000000   0.668E-01       0.001       32.256   0.100E-07
     TRS4 it   6 1.00000000   0.831E-02       0.001       32.256   0.100E-07
     TRS4 it   7 1.00000000   0.168E-03       0.001       32.256   0.100E-07
     TRS4 it   8 1.00000000   0.927E-07       0.001       32.256   0.100E-07
     TRS4 it   9 1.00000000   0.353E-13       0.001       32.256   0.100E-07
     Final TRS4 iteration    9 1.00000000   0.353E-13
     Chemical potential (mu):       0.01606
 
 PAO| energy:  -7.8017091506347223      penalty:   1.5901603441132016E-005
 PAO|LS| adapt:  T T T
 PAO|LS| adapt: scan_steps:    0.0000000000000000       0.29410945032838559       0.58821890065677118     
 PAO|LS| adapt: energies:   -7.8002906024401630       -7.8023680382320260       -7.8017091506347223     
 PAO|LS| adapt: suggested step_size:   0.37034467007944011     
 PAO|LS| adapt: predicted energy  -7.8024599626271947     
 PAO| ======================= Iteration:        15 =============================

     Lanczos converged:  T threshold:   0.100E-02
     Est. extremal eigenvalues:    0.277E+01   0.180E+00
     Est. condition number :    0.153E+02

 Order=           3
     NS sqrt iter    1 1.00000000   0.706E+00       0.001       57.902
     NS sqrt iter    2 1.00000000   0.330E+00       0.001      100.283
     NS sqrt iter    3 1.00000000   0.752E-01       0.001      100.219
     NS sqrt iter    4 1.00000000   0.185E-02       0.001       99.287
     NS sqrt iter    5 1.00000000   0.582E-07       0.001       67.912
     Symmetrizing Results
     Final NS sqrt iter    5 1.00000000   0.586E-09

     Est. extremal eigenvalues     -0.93713     1.70492  converged:  T
     TRS4 it   1 1.00000000   0.874E+00       0.000       16.128   0.100E-07
     TRS4 it   2 1.00000000   0.619E+00       0.001       32.256   0.100E-07
     TRS4 it   3 1.00000000   0.423E+00       0.001       32.256   0.100E-07
     TRS4 it   4 1.00000000   0.215E+00       0.001       32.256   0.100E-07
     TRS4 it   5 1.00000000   0.693E-01       0.001       32.256   0.100E-07
     TRS4 it   6 1.00000000   0.898E-02       0.001       32.256   0.100E-07
     TRS4 it   7 1.00000000   0.198E-03       0.001       32.256   0.100E-07
     TRS4 it   8 1.00000000   0.132E-06       0.001       32.256   0.100E-07
     TRS4 it   9 1.00000000   0.732E-13       0.001       32.256   0.100E-07
     Final TRS4 iteration    9 1.00000000   0.732E-13
     Chemical potential (mu):       0.01271
 
 PAO| energy:  -7.8024568960926288      penalty:   1.5260699016316570E-005
 PAO|CG| trace_G_new    2.6267633983119145E-003
 PAO|CG| trace_G_prev    1.1870368642298668E-002
 PAO|CG| trace_G_mix    6.4549521803519550E-005
 PAO|CG| trace_D    1.6712751824329582E-002
 PAO|CG| trace_D_Gnew   3.4466829277843855E-005
 PAO|CG| beta:   0.21584956236137826     
 PAO| norm of gradient:   5.1251959946053915E-002
 PAO| energy improvement:  -2.1662936524657894E-003
 PAO| step     15                   -7.802456896  0.320E-02  0.370E+00     0.057
 PAO|LS| adapt:  T F F
 PAO|LS| adapt: scan_steps:    0.0000000000000000        0.0000000000000000        0.0000000000000000     
 PAO|LS| adapt: energies:   -7.8024568960926288        0.0000000000000000        0.0000000000000000     
 PAO| ======================= Iteration:        16 =============================

     Lanczos converged:  T threshold:   0.100E-02
     Est. extremal eigenvalues:    0.276E+01   0.181E+00
     Est. condition number :    0.152E+02

 Order=           3
     NS sqrt iter    1 1.00000000   0.705E+00       0.001       58.776
     NS sqrt iter    2 1.00000000   0.329E+00       0.001       98.378
     NS sqrt iter    3 1.00000000   0.746E-01       0.001      100.351
     NS sqrt iter    4 1.00000000   0.180E-02       0.001       99.143
     NS sqrt iter    5 1.00000000   0.531E-07       0.001       66.549
     Symmetrizing Results
     Final NS sqrt iter    5 1.00000000   0.538E-09

     Est. extremal eigenvalues     -0.93716     1.70436  converged:  T
     TRS4 it   1 1.00000000   0.875E+00       0.000       16.128   0.100E-07
     TRS4 it   2 1.00000000   0.619E+00       0.001       32.256   0.100E-07
     TRS4 it   3 1.00000000   0.422E+00       0.001       32.256   0.100E-07
     TRS4 it   4 1.00000000   0.214E+00       0.001       32.256   0.100E-07
     TRS4 it   5 1.00000000   0.682E-01       0.001       32.256   0.100E-07
     TRS4 it   6 1.00000000   0.870E-02       0.001       32.256   0.100E-07
     TRS4 it   7 1.00000000   0.187E-03       0.001       32.256   0.100E-07
     TRS4 it   8 1.00000000   0.119E-06       0.001       32.256   0.100E-07
     TRS4 it   9 1.00000000   0.588E-13       0.001       32.256   0.100E-07
     Final TRS4 iteration    9 1.00000000   0.588E-13
     Chemical potential (mu):       0.01356
 
 PAO| energy:  -7.8025837846155621      penalty:   1.5043328363355720E-005
 PAO|LS| adapt:  T T F
 PAO|LS| adapt: scan_steps:    0.0000000000000000       0.37034467007944011        0.0000000000000000     
 PAO|LS| adapt: energies:   -7.8024568960926288       -7.8025837846155621        0.0000000000000000     
 PAO| ======================= Iteration:        17 =============================

     Lanczos converged:  T threshold:   0.100E-02
     Est. extremal eigenvalues:    0.275E+01   0.182E+00
     Est. condition number :    0.151E+02

 Order=           3
     NS sqrt iter    1 1.00000000   0.703E+00       0.001       59.513
     NS sqrt iter    2 1.00000000   0.327E+00       0.001      100.726
     NS sqrt iter    3 1.00000000   0.739E-01       0.001      100.174
     NS sqrt iter    4 1.00000000   0.175E-02       0.001       99.837
     NS sqrt iter    5 1.00000000   0.485E-07       0.001       66.612
     Symmetrizing Results
     Final NS sqrt iter    5 1.00000000   0.406E-09

     Est. extremal eigenvalues     -0.93707     1.70388  converged:  T
     TRS4 it   1 1.00000000   0.875E+00       0.000       16.128   0.100E-07
     TRS4 it   2 1.00000000   0.618E+00       0.001       32.256   0.100E-07
     TRS4 it   3 1.00000000   0.420E+00       0.001       32.256   0.100E-07
     TRS4 it   4 1.00000000   0.212E+00       0.001       32.256   0.100E-07
     TRS4 it   5 1.00000000   0.671E-01       0.001       32.256   0.100E-07
     TRS4 it   6 1.00000000   0.842E-02       0.001       32.256   0.100E-07
     TRS4 it   7 1.00000000   0.176E-03       0.001       32.256   0.100E-07
     TRS4 it   8 1.00000000   0.106E-06       0.001       32.256   0.100E-07
     TRS4 it   9 1.00000000   0.489E-13       0.001       32.256   0.100E-07
     Final TRS4 iteration    9 1.00000000   0.489E-13
     Chemical potential (mu):       0.01439
 
 PAO| energy:  -7.8010186406832513      penalty:   1.4952025325236649E-005
 PAO|LS| adapt:  T T T
 PAO|LS| adapt: scan_steps:    0.0000000000000000       0.37034467007944011       0.74068934015888022     
 PAO|LS| adapt: energies:   -7.8024568960926288       -7.8025837846155621       -7.8010186406832513     
 PAO|LS| adapt: suggested step_size:   0.21294514047082017     
 PAO|LS| adapt: predicted energy  -7.8027366022089977     
 PAO| ======================= Iteration:        18 =============================

     Lanczos converged:  T threshold:   0.100E-02
     Est. extremal eigenvalues:    0.276E+01   0.181E+00
     Est. condition number :    0.153E+02

 Order=           3
     NS sqrt iter    1 1.00000000   0.705E+00       0.001       59.847
     NS sqrt iter    2 1.00000000   0.329E+00       0.001      100.320
     NS sqrt iter    3 1.00000000   0.749E-01       0.001       99.676
     NS sqrt iter    4 1.00000000   0.182E-02       0.001      100.749
     NS sqrt iter    5 1.00000000   0.552E-07       0.001       68.039
     Symmetrizing Results
     Final NS sqrt iter    5 1.00000000   0.563E-09

     Est. extremal eigenvalues     -0.93717     1.70459  converged:  T
     TRS4 it   1 1.00000000   0.874E+00       0.000       16.128   0.100E-07
     TRS4 it   2 1.00000000   0.619E+00       0.001       32.256   0.100E-07
     TRS4 it   3 1.00000000   0.422E+00       0.001       32.256   0.100E-07
     TRS4 it   4 1.00000000   0.214E+00       0.001       32.256   0.100E-07
     TRS4 it   5 1.00000000   0.687E-01       0.001       32.256   0.100E-07
     TRS4 it   6 1.00000000   0.882E-02       0.001       32.256   0.100E-07
     TRS4 it   7 1.00000000   0.191E-03       0.001       32.256   0.100E-07
     TRS4 it   8 1.00000000   0.124E-06       0.001       32.256   0.100E-07
     TRS4 it   9 1.00000000   0.649E-13       0.001       32.256   0.100E-07
     Final TRS4 iteration    9 1.00000000   0.649E-13
     Chemical potential (mu):       0.01321
 
 PAO| energy:  -7.8027361326873708      penalty:   1.5120583160345684E-005
 PAO|CG| trace_G_new    7.3194212883222263E-004
 PAO|CG| trace_G_prev    2.6267633983119145E-003
 PAO|CG| trace_G_mix    1.7151425844449242E-006
 PAO|CG| trace_D    3.3905484796018354E-003
 PAO|CG| trace_D_Gnew  -1.7941066979489026E-006
 PAO|CG| beta:   0.27799496015402719     
 PAO| norm of gradient:   2.7054429005843435E-002
 PAO| energy improvement:  -2.7923659474193840E-004
 PAO| step     18                   -7.802736133  0.169E-02  0.213E+00     0.057
 PAO|LS| adapt:  T F F
 PAO|LS| adapt: scan_steps:    0.0000000000000000        0.0000000000000000        0.0000000000000000     
 PAO|LS| adapt: energies:   -7.8027361326873708        0.0000000000000000        0.0000000000000000     
 PAO| ======================= Iteration:        19 =============================

     Lanczos converged:  T threshold:   0.100E-02
     Est. extremal eigenvalues:    0.276E+01   0.181E+00
     Est. condition number :    0.153E+02

 Order=           3
     NS sqrt iter    1 1.00000000   0.705E+00       0.001       58.778
     NS sqrt iter    2 1.00000000   0.329E+00       0.001       99.729
     NS sqrt iter    3 1.00000000   0.751E-01       0.001       99.922
     NS sqrt iter    4 1.00000000   0.183E-02       0.001       97.880
     NS sqrt iter    5 1.00000000   0.557E-07       0.001       67.424
     Symmetrizing Results
     Final NS sqrt iter    5 1.00000000   0.574E-09

     Est. extremal eigenvalues     -0.93717     1.70479  converged:  T
     TRS4 it   1 1.00000000   0.874E+00       0.000       16.128   0.100E-07
     TRS4 it   2 1.00000000   0.619E+00       0.001       32.256   0.100E-07
     TRS4 it   3 1.00000000   0.422E+00       0.001       32.256   0.100E-07
     TRS4 it   4 1.00000000   0.214E+00       0.001       32.256   0.100E-07
     TRS4 it   5 1.00000000   0.686E-01       0.001       32.256   0.100E-07
     TRS4 it   6 1.00000000   0.881E-02       0.001       32.256   0.100E-07
     TRS4 it   7 1.00000000   0.192E-03       0.001       32.256   0.100E-07
     TRS4 it   8 1.00000000   0.126E-06       0.001       32.256   0.100E-07
     TRS4 it   9 1.00000000   0.671E-13       0.001       32.256   0.100E-07
     Final TRS4 iteration    9 1.00000000   0.671E-13
     Chemical potential (mu):       0.01293
 
 PAO| energy:  -7.8028550440497604      penalty:   1.4830832391235892E-005
 PAO|LS| adapt:  T T F
 PAO|LS| adapt: scan_steps:    0.0000000000000000       0.21294514047082017        0.0000000000000000     
 PAO|LS| adapt: energies:   -7.8027361326873708       -7.8028550440497604        0.0000000000000000     
 PAO| ======================= Iteration:        20 =============================

     Lanczos converged:  T threshold:   0.100E-02
     Est. extremal eigenvalues:    0.276E+01   0.180E+00
     Est. condition number :    0.153E+02

 Order=           3
     NS sqrt iter    1 1.00000000   0.705E+00       0.001       59.338
     NS sqrt iter    2 1.00000000   0.330E+00       0.001      100.202
     NS sqrt iter    3 1.00000000   0.753E-01       0.001       99.569
     NS sqrt iter    4 1.00000000   0.184E-02       0.001      100.141
     NS sqrt iter    5 1.00000000   0.563E-07       0.001       67.956
     Symmetrizing Results
     Final NS sqrt iter    5 1.00000000   0.586E-09

     Est. extremal eigenvalues     -0.93716     1.70500  converged:  T
     TRS4 it   1 1.00000000   0.874E+00       0.000       16.128   0.100E-07
     TRS4 it   2 1.00000000   0.619E+00       0.001       32.256   0.100E-07
     TRS4 it   3 1.00000000   0.422E+00       0.001       32.256   0.100E-07
     TRS4 it   4 1.00000000   0.214E+00       0.001       32.256   0.100E-07
     TRS4 it   5 1.00000000   0.685E-01       0.001       32.256   0.100E-07
     TRS4 it   6 1.00000000   0.880E-02       0.001       32.256   0.100E-07
     TRS4 it   7 1.00000000   0.192E-03       0.001       32.256   0.100E-07
     TRS4 it   8 1.00000000   0.128E-06       0.001       32.256   0.100E-07
     TRS4 it   9 1.00000000   0.693E-13       0.001       32.256   0.100E-07
     Final TRS4 iteration    9 1.00000000   0.693E-13
     Chemical potential (mu):       0.01265
 
 PAO| energy:  -7.8028994343585394      penalty:   1.4553611424503529E-005
 PAO|LS| adapt:  T T F
 PAO|LS| adapt: scan_steps:    0.0000000000000000       0.42589028094164033        0.0000000000000000     
 PAO|LS| adapt: energies:   -7.8027361326873708       -7.8028994343585394        0.0000000000000000     
 PAO| ======================= Iteration:        21 =============================

     Lanczos converged:  T threshold:   0.100E-02
     Est. extremal eigenvalues:    0.276E+01   0.180E+00
     Est. condition number :    0.153E+02

 Order=           3
     NS sqrt iter    1 1.00000000   0.705E+00       0.001       59.519
     NS sqrt iter    2 1.00000000   0.330E+00       0.001       98.797
     NS sqrt iter    3 1.00000000   0.757E-01       0.001       99.183
     NS sqrt iter    4 1.00000000   0.186E-02       0.001      100.176
     NS sqrt iter    5 1.00000000   0.576E-07       0.001       67.428
     Symmetrizing Results
     Final NS sqrt iter    5 1.00000000   0.602E-09

     Est. extremal eigenvalues     -0.93716     1.70542  converged:  T
     TRS4 it   1 1.00000000   0.875E+00       0.000       16.128   0.100E-07
     TRS4 it   2 1.00000000   0.619E+00       0.001       32.256   0.100E-07
     TRS4 it   3 1.00000000   0.422E+00       0.001       32.256   0.100E-07
     TRS4 it   4 1.00000000   0.214E+00       0.001       32.256   0.100E-07
     TRS4 it   5 1.00000000   0.682E-01       0.001       32.256   0.100E-07
     TRS4 it   6 1.00000000   0.878E-02       0.001       32.256   0.100E-07
     TRS4 it   7 1.00000000   0.193E-03       0.001       32.256   0.100E-07
     TRS4 it   8 1.00000000   0.132E-06       0.001       32.256   0.100E-07
     TRS4 it   9 1.00000000   0.752E-13       0.001       32.256   0.100E-07
     Final TRS4 iteration    9 1.00000000   0.752E-13
     Chemical potential (mu):       0.01209
 
 PAO| energy:  -7.8027622189452615      penalty:   1.4036182536275431E-005
 PAO|LS| Need extra step
 PAO|LS| adapt:  T T T
 PAO|LS| adapt: scan_steps:    0.0000000000000000       0.42589028094164033       0.85178056188328066     
 PAO|LS| adapt: energies:   -7.8027361326873708       -7.8028994343585394       -7.8027622189452615     
 PAO|LS| adapt: suggested step_size:   0.44437489342588909     
 PAO|LS| adapt: predicted energy  -7.8028997174093568     
 PAO| ======================= Iteration:        22 =============================

     Lanczos converged:  T threshold:   0.100E-02
     Est. extremal eigenvalues:    0.276E+01   0.180E+00
     Est. condition number :    0.153E+02

 Order=           3
     NS sqrt iter    1 1.00000000   0.705E+00       0.001       59.171
     NS sqrt iter    2 1.00000000   0.330E+00       0.001       99.367
     NS sqrt iter    3 1.00000000   0.753E-01       0.001      100.077
     NS sqrt iter    4 1.00000000   0.184E-02       0.001       98.881
     NS sqrt iter    5 1.00000000   0.563E-07       0.001       67.622
     Symmetrizing Results
     Final NS sqrt iter    5 1.00000000   0.587E-09

     Est. extremal eigenvalues     -0.93716     1.70502  converged:  T
     TRS4 it   1 1.00000000   0.874E+00       0.000       16.128   0.100E-07
     TRS4 it   2 1.00000000   0.619E+00       0.001       32.256   0.100E-07
     TRS4 it   3 1.00000000   0.422E+00       0.001       32.256   0.100E-07
     TRS4 it   4 1.00000000   0.214E+00       0.001       32.256   0.100E-07
     TRS4 it   5 1.00000000   0.685E-01       0.001       32.256   0.100E-07
     TRS4 it   6 1.00000000   0.880E-02       0.001       32.256   0.100E-07
     TRS4 it   7 1.00000000   0.192E-03       0.001       32.256   0.100E-07
     TRS4 it   8 1.00000000   0.128E-06       0.001       32.256   0.100E-07
     TRS4 it   9 1.00000000   0.694E-13       0.001       32.256   0.100E-07
     Final TRS4 iteration    9 1.00000000   0.694E-13
     Chemical potential (mu):       0.01263
 
 PAO| energy:  -7.8028997525638264      penalty:   1.4530132587804400E-005
 PAO|CG| trace_G_new    2.2506549789582718E-004
 PAO|CG| trace_G_prev    7.3194212883222263E-004
 PAO|CG| trace_G_mix    3.0576775754736820E-006
 PAO|CG| trace_D    9.9496528201569985E-004
 PAO|CG| trace_D_Gnew  -1.8951853942512794E-006
 PAO|CG| beta:   0.30331335166423057     
 PAO| norm of gradient:   1.5002183104329422E-002
 PAO| energy improvement:  -1.6361987645563403E-004
 PAO| step     22                   -7.802899753  0.938E-03  0.444E+00     0.075
 PAO|LS| adapt:  T F F
 PAO|LS| adapt: scan_steps:    0.0000000000000000        0.0000000000000000        0.0000000000000000     
 PAO|LS| adapt: energies:   -7.8028997525638264        0.0000000000000000        0.0000000000000000     
 PAO| ======================= Iteration:        23 =============================

     Lanczos converged:  T threshold:   0.100E-02
     Est. extremal eigenvalues:    0.276E+01   0.180E+00
     Est. condition number :    0.153E+02

 Order=           3
     NS sqrt iter    1 1.00000000   0.705E+00       0.001       59.430
     NS sqrt iter    2 1.00000000   0.330E+00       0.001       99.058
     NS sqrt iter    3 1.00000000   0.753E-01       0.001      100.775
     NS sqrt iter    4 1.00000000   0.184E-02       0.001      100.864
     NS sqrt iter    5 1.00000000   0.563E-07       0.001       67.749
     Symmetrizing Results
     Final NS sqrt iter    5 1.00000000   0.590E-09

     Est. extremal eigenvalues     -0.93716     1.70467  converged:  T
     TRS4 it   1 1.00000000   0.874E+00       0.000       16.128   0.100E-07
     TRS4 it   2 1.00000000   0.619E+00       0.001       32.256   0.100E-07
     TRS4 it   3 1.00000000   0.422E+00       0.001       32.256   0.100E-07
     TRS4 it   4 1.00000000   0.214E+00       0.001       32.256   0.100E-07
     TRS4 it   5 1.00000000   0.685E-01       0.001       32.256   0.100E-07
     TRS4 it   6 1.00000000   0.883E-02       0.001       32.256   0.100E-07
     TRS4 it   7 1.00000000   0.194E-03       0.001       32.256   0.100E-07
     TRS4 it   8 1.00000000   0.131E-06       0.001       32.256   0.100E-07
     TRS4 it   9 1.00000000   0.733E-13       0.001       32.256   0.100E-07
     Final TRS4 iteration    9 1.00000000   0.733E-13
     Chemical potential (mu):       0.01232
 
 PAO| energy:  -7.8029497186838723      penalty:   1.3846992698578785E-005
 PAO|LS| adapt:  T T F
 PAO|LS| adapt: scan_steps:    0.0000000000000000       0.44437489342588909        0.0000000000000000     
 PAO|LS| adapt: energies:   -7.8028997525638264       -7.8029497186838723        0.0000000000000000     
 PAO| ======================= Iteration:        24 =============================

     Lanczos converged:  T threshold:   0.100E-02
     Est. extremal eigenvalues:    0.276E+01   0.181E+00
     Est. condition number :    0.153E+02

 Order=           3
     NS sqrt iter    1 1.00000000   0.705E+00       0.001       58.893
     NS sqrt iter    2 1.00000000   0.330E+00       0.001       99.970
     NS sqrt iter    3 1.00000000   0.754E-01       0.001      100.776
     NS sqrt iter    4 1.00000000   0.184E-02       0.001       99.657
     NS sqrt iter    5 1.00000000   0.563E-07       0.001       68.410
     Symmetrizing Results
     Final NS sqrt iter    5 1.00000000   0.585E-09

     Est. extremal eigenvalues     -0.93716     1.70432  converged:  T
     TRS4 it   1 1.00000000   0.874E+00       0.000       16.128   0.100E-07
     TRS4 it   2 1.00000000   0.619E+00       0.001       32.256   0.100E-07
     TRS4 it   3 1.00000000   0.422E+00       0.001       32.256   0.100E-07
     TRS4 it   4 1.00000000   0.214E+00       0.001       32.256   0.100E-07
     TRS4 it   5 1.00000000   0.686E-01       0.001       32.256   0.100E-07
     TRS4 it   6 1.00000000   0.886E-02       0.001       32.256   0.100E-07
     TRS4 it   7 1.00000000   0.196E-03       0.001       32.256   0.100E-07
     TRS4 it   8 1.00000000   0.134E-06       0.001       32.256   0.100E-07
     TRS4 it   9 1.00000000   0.761E-13       0.001       32.256   0.100E-07
     Final TRS4 iteration    9 1.00000000   0.761E-13
     Chemical potential (mu):       0.01201
 
 PAO| energy:  -7.8028984313101848      penalty:   1.3192396635839859E-005
 PAO|LS| adapt:  T T T
 PAO|LS| adapt: scan_steps:    0.0000000000000000       0.44437489342588909       0.88874978685177819     
 PAO|LS| adapt: energies:   -7.8028997525638264       -7.8029497186838723       -7.8028984313101848     
 PAO|LS| adapt: suggested step_size:   0.44147557645158841     
 PAO|LS| adapt: predicted energy  -7.8029497208389982     
 PAO| ======================= Iteration:        25 =============================

     Lanczos converged:  T threshold:   0.100E-02
     Est. extremal eigenvalues:    0.276E+01   0.180E+00
     Est. condition number :    0.153E+02

 Order=           3
     NS sqrt iter    1 1.00000000   0.705E+00       0.001       60.427
     NS sqrt iter    2 1.00000000   0.330E+00       0.001      101.195
     NS sqrt iter    3 1.00000000   0.753E-01       0.001      100.603
     NS sqrt iter    4 1.00000000   0.184E-02       0.001      100.748
     NS sqrt iter    5 1.00000000   0.563E-07       0.001       68.928
     Symmetrizing Results
     Final NS sqrt iter    5 1.00000000   0.590E-09

     Est. extremal eigenvalues     -0.93716     1.70467  converged:  T
     TRS4 it   1 1.00000000   0.874E+00       0.000       16.128   0.100E-07
     TRS4 it   2 1.00000000   0.619E+00       0.001       32.256   0.100E-07
     TRS4 it   3 1.00000000   0.422E+00       0.001       32.256   0.100E-07
     TRS4 it   4 1.00000000   0.214E+00       0.001       32.256   0.100E-07
     TRS4 it   5 1.00000000   0.685E-01       0.001       32.256   0.100E-07
     TRS4 it   6 1.00000000   0.883E-02       0.001       32.256   0.100E-07
     TRS4 it   7 1.00000000   0.194E-03       0.001       32.256   0.100E-07
     TRS4 it   8 1.00000000   0.131E-06       0.001       32.256   0.100E-07
     TRS4 it   9 1.00000000   0.728E-13       0.001       32.256   0.100E-07
     Final TRS4 iteration    9 1.00000000   0.728E-13
     Chemical potential (mu):       0.01232
 
 PAO| energy:  -7.8029497197812363      penalty:   1.3851356654879792E-005
 PAO|CG| trace_G_new    8.1225160197524580E-005
 PAO|CG| trace_G_prev    2.2506549789582718E-004
 PAO|CG| trace_G_mix    7.2295207178751532E-007
 PAO|CG| trace_D    3.1775096829557225E-004
 PAO|CG| trace_D_Gnew  -3.6481458105667216E-007
 PAO|CG| beta:   0.35768346938275702     
 PAO| norm of gradient:   9.0125002190027479E-003
 PAO| energy improvement:  -4.9967217409907505E-005
 PAO| step     25                   -7.802949720  0.563E-03  0.441E+00     0.057
 PAO|LS| adapt:  T F F
 PAO|LS| adapt: scan_steps:    0.0000000000000000        0.0000000000000000        0.0000000000000000     
 PAO|LS| adapt: energies:   -7.8029497197812363        0.0000000000000000        0.0000000000000000     
 PAO| ======================= Iteration:        26 =============================

     Lanczos converged:  T threshold:   0.100E-02
     Est. extremal eigenvalues:    0.276E+01   0.181E+00
     Est. condition number :    0.153E+02

 Order=           3
     NS sqrt iter    1 1.00000000   0.705E+00       0.001       59.094
     NS sqrt iter    2 1.00000000   0.330E+00       0.001      100.134
     NS sqrt iter    3 1.00000000   0.752E-01       0.001      100.170
     NS sqrt iter    4 1.00000000   0.183E-02       0.001      100.017
     NS sqrt iter    5 1.00000000   0.558E-07       0.001       67.736
     Symmetrizing Results
     Final NS sqrt iter    5 1.00000000   0.582E-09

     Est. extremal eigenvalues     -0.93717     1.70414  converged:  T
     TRS4 it   1 1.00000000   0.874E+00       0.000       16.128   0.100E-07
     TRS4 it   2 1.00000000   0.619E+00       0.001       32.256   0.100E-07
     TRS4 it   3 1.00000000   0.422E+00       0.001       32.256   0.100E-07
     TRS4 it   4 1.00000000   0.214E+00       0.001       32.256   0.100E-07
     TRS4 it   5 1.00000000   0.684E-01       0.001       32.256   0.100E-07
     TRS4 it   6 1.00000000   0.880E-02       0.001       32.256   0.100E-07
     TRS4 it   7 1.00000000   0.193E-03       0.001       32.256   0.100E-07
     TRS4 it   8 1.00000000   0.129E-06       0.001       32.256   0.100E-07
     TRS4 it   9 1.00000000   0.720E-13       0.001       32.256   0.100E-07
     Final TRS4 iteration    9 1.00000000   0.720E-13
     Chemical potential (mu):       0.01245
 
 PAO| energy:  -7.8029540088387765      penalty:   1.3127041366923169E-005
 PAO|LS| adapt:  T T F
 PAO|LS| adapt: scan_steps:    0.0000000000000000       0.44147557645158841        0.0000000000000000     
 PAO|LS| adapt: energies:   -7.8029497197812363       -7.8029540088387765        0.0000000000000000     
 PAO| ======================= Iteration:        27 =============================

     Lanczos converged:  T threshold:   0.100E-02
     Est. extremal eigenvalues:    0.276E+01   0.181E+00
     Est. condition number :    0.153E+02

 Order=           3
     NS sqrt iter    1 1.00000000   0.705E+00       0.001       59.974
     NS sqrt iter    2 1.00000000   0.329E+00       0.001      100.936
     NS sqrt iter    3 1.00000000   0.751E-01       0.001       99.499
     NS sqrt iter    4 1.00000000   0.183E-02       0.001      101.430
     NS sqrt iter    5 1.00000000   0.552E-07       0.001       68.585
     Symmetrizing Results
     Final NS sqrt iter    5 1.00000000   0.576E-09

     Est. extremal eigenvalues     -0.93717     1.70360  converged:  T
     TRS4 it   1 1.00000000   0.874E+00       0.000       16.128   0.100E-07
     TRS4 it   2 1.00000000   0.618E+00       0.001       32.256   0.100E-07
     TRS4 it   3 1.00000000   0.422E+00       0.001       32.256   0.100E-07
     TRS4 it   4 1.00000000   0.214E+00       0.001       32.256   0.100E-07
     TRS4 it   5 1.00000000   0.683E-01       0.001       32.256   0.100E-07
     TRS4 it   6 1.00000000   0.878E-02       0.001       32.256   0.100E-07
     TRS4 it   7 1.00000000   0.192E-03       0.001       32.256   0.100E-07
     TRS4 it   8 1.00000000   0.127E-06       0.001       32.256   0.100E-07
     TRS4 it   9 1.00000000   0.681E-13       0.001       32.256   0.100E-07
     Final TRS4 iteration    9 1.00000000   0.681E-13
     Chemical potential (mu):       0.01258
 
 PAO| energy:  -7.8028949350372994      penalty:   1.2426577057197220E-005
 PAO|LS| adapt:  T T T
 PAO|LS| adapt: scan_steps:    0.0000000000000000       0.44147557645158841       0.88295115290317683     
 PAO|LS| adapt: energies:   -7.8029497197812363       -7.8029540088387765       -7.8028949350372994     
 PAO|LS| adapt: suggested step_size:   0.25062144845475004     
 PAO|LS| adapt: predicted energy  -7.8029599298314025     
 PAO| ======================= Iteration:        28 =============================

     Lanczos converged:  T threshold:   0.100E-02
     Est. extremal eigenvalues:    0.276E+01   0.181E+00
     Est. condition number :    0.153E+02

 Order=           3
     NS sqrt iter    1 1.00000000   0.705E+00       0.001       59.915
     NS sqrt iter    2 1.00000000   0.330E+00       0.001       98.383
     NS sqrt iter    3 1.00000000   0.753E-01       0.001       99.079
     NS sqrt iter    4 1.00000000   0.184E-02       0.001      100.746
     NS sqrt iter    5 1.00000000   0.560E-07       0.001       67.734
     Symmetrizing Results
     Final NS sqrt iter    5 1.00000000   0.586E-09

     Est. extremal eigenvalues     -0.93717     1.70437  converged:  T
     TRS4 it   1 1.00000000   0.874E+00       0.000       16.128   0.100E-07
     TRS4 it   2 1.00000000   0.619E+00       0.001       32.256   0.100E-07
     TRS4 it   3 1.00000000   0.422E+00       0.001       32.256   0.100E-07
     TRS4 it   4 1.00000000   0.214E+00       0.001       32.256   0.100E-07
     TRS4 it   5 1.00000000   0.685E-01       0.001       32.256   0.100E-07
     TRS4 it   6 1.00000000   0.881E-02       0.001       32.256   0.100E-07
     TRS4 it   7 1.00000000   0.193E-03       0.001       32.256   0.100E-07
     TRS4 it   8 1.00000000   0.130E-06       0.001       32.256   0.100E-07
     TRS4 it   9 1.00000000   0.710E-13       0.001       32.256   0.100E-07
     Final TRS4 iteration    9 1.00000000   0.710E-13
     Chemical potential (mu):       0.01240
 
 PAO| energy:  -7.8029599203839179      penalty:   1.3437223643846842E-005
 PAO|CG| trace_G_new    3.2465439413006905E-005
 PAO|CG| trace_G_prev    8.1225160197524580E-005
 PAO|CG| trace_G_mix    5.4256008286029615E-008
 PAO|CG| trace_D    1.2213838964056492E-004
 PAO|CG| trace_D_Gnew  -2.6633851246059644E-008
 PAO|CG| beta:   0.39902886403551391     
 PAO| norm of gradient:   5.6978451552325378E-003
 PAO| energy improvement:  -1.0200602681642579E-005
 PAO| step     28                   -7.802959920  0.356E-03  0.251E+00     0.058
 PAO|LS| adapt:  T F F
 PAO|LS| adapt: scan_steps:    0.0000000000000000        0.0000000000000000        0.0000000000000000     
 PAO|LS| adapt: energies:   -7.8029599203839179        0.0000000000000000        0.0000000000000000     
 PAO| ======================= Iteration:        29 =============================

     Lanczos converged:  T threshold:   0.100E-02
     Est. extremal eigenvalues:    0.276E+01   0.181E+00
     Est. condition number :    0.153E+02

 Order=           3
     NS sqrt iter    1 1.00000000   0.705E+00       0.001       58.963
     NS sqrt iter    2 1.00000000   0.329E+00       0.001       99.927
     NS sqrt iter    3 1.00000000   0.752E-01       0.001       98.695
     NS sqrt iter    4 1.00000000   0.183E-02       0.001      100.002
     NS sqrt iter    5 1.00000000   0.558E-07       0.001       67.469
     Symmetrizing Results
     Final NS sqrt iter    5 1.00000000   0.582E-09

     Est. extremal eigenvalues     -0.93717     1.70421  converged:  T
     TRS4 it   1 1.00000000   0.874E+00       0.000       16.128   0.100E-07
     TRS4 it   2 1.00000000   0.619E+00       0.001       32.256   0.100E-07
     TRS4 it   3 1.00000000   0.422E+00       0.001       32.256   0.100E-07
     TRS4 it   4 1.00000000   0.214E+00       0.001       32.256   0.100E-07
     TRS4 it   5 1.00000000   0.684E-01       0.001       32.256   0.100E-07
     TRS4 it   6 1.00000000   0.879E-02       0.001       32.256   0.100E-07
     TRS4 it   7 1.00000000   0.192E-03       0.001       32.256   0.100E-07
     TRS4 it   8 1.00000000   0.128E-06       0.001       32.256   0.100E-07
     TRS4 it   9 1.00000000   0.696E-13       0.001       32.256   0.100E-07
     Final TRS4 iteration    9 1.00000000   0.696E-13
     Chemical potential (mu):       0.01254
 
 PAO| energy:  -7.8029670826231516      penalty:   1.3002991774802063E-005
 PAO|LS| adapt:  T T F
 PAO|LS| adapt: scan_steps:    0.0000000000000000       0.25062144845475004        0.0000000000000000     
 PAO|LS| adapt: energies:   -7.8029599203839179       -7.8029670826231516        0.0000000000000000     
 PAO| ======================= Iteration:        30 =============================

     Lanczos converged:  T threshold:   0.100E-02
     Est. extremal eigenvalues:    0.276E+01   0.181E+00
     Est. condition number :    0.153E+02

 Order=           3
     NS sqrt iter    1 1.00000000   0.705E+00       0.001       58.991
     NS sqrt iter    2 1.00000000   0.329E+00       0.001       99.873
     NS sqrt iter    3 1.00000000   0.751E-01       0.001      100.159
     NS sqrt iter    4 1.00000000   0.183E-02       0.001       99.864
     NS sqrt iter    5 1.00000000   0.556E-07       0.001       67.103
     Symmetrizing Results
     Final NS sqrt iter    5 1.00000000   0.579E-09

     Est. extremal eigenvalues     -0.93717     1.70405  converged:  T
     TRS4 it   1 1.00000000   0.874E+00       0.000       16.128   0.100E-07
     TRS4 it   2 1.00000000   0.618E+00       0.001       32.256   0.100E-07
     TRS4 it   3 1.00000000   0.422E+00       0.001       32.256   0.100E-07
     TRS4 it   4 1.00000000   0.214E+00       0.001       32.256   0.100E-07
     TRS4 it   5 1.00000000   0.683E-01       0.001       32.256   0.100E-07
     TRS4 it   6 1.00000000   0.876E-02       0.001       32.256   0.100E-07
     TRS4 it   7 1.00000000   0.191E-03       0.001       32.256   0.100E-07
     TRS4 it   8 1.00000000   0.126E-06       0.001       32.256   0.100E-07
     TRS4 it   9 1.00000000   0.677E-13       0.001       32.256   0.100E-07
     Final TRS4 iteration    9 1.00000000   0.677E-13
     Chemical potential (mu):       0.01267
 
 PAO| energy:  -7.8029722912598700      penalty:   1.2576735314363019E-005
 PAO|LS| adapt:  T T F
 PAO|LS| adapt: scan_steps:    0.0000000000000000       0.50124289690950008        0.0000000000000000     
 PAO|LS| adapt: energies:   -7.8029599203839179       -7.8029722912598700        0.0000000000000000     
 PAO| ======================= Iteration:        31 =============================

     Lanczos converged:  T threshold:   0.100E-02
     Est. extremal eigenvalues:    0.276E+01   0.181E+00
     Est. condition number :    0.153E+02

 Order=           3
     NS sqrt iter    1 1.00000000   0.704E+00       0.001       59.681
     NS sqrt iter    2 1.00000000   0.329E+00       0.001       99.973
     NS sqrt iter    3 1.00000000   0.750E-01       0.001       99.730
     NS sqrt iter    4 1.00000000   0.183E-02       0.001       99.920
     NS sqrt iter    5 1.00000000   0.553E-07       0.001       67.342
     Symmetrizing Results
     Final NS sqrt iter    5 1.00000000   0.564E-09

     Est. extremal eigenvalues     -0.93717     1.70372  converged:  T
     TRS4 it   1 1.00000000   0.874E+00       0.000       16.128   0.100E-07
     TRS4 it   2 1.00000000   0.618E+00       0.001       32.256   0.100E-07
     TRS4 it   3 1.00000000   0.421E+00       0.001       32.256   0.100E-07
     TRS4 it   4 1.00000000   0.213E+00       0.001       32.256   0.100E-07
     TRS4 it   5 1.00000000   0.681E-01       0.001       32.256   0.100E-07
     TRS4 it   6 1.00000000   0.871E-02       0.001       32.256   0.100E-07
     TRS4 it   7 1.00000000   0.189E-03       0.001       32.256   0.100E-07
     TRS4 it   8 1.00000000   0.123E-06       0.001       32.256   0.100E-07
     TRS4 it   9 1.00000000   0.639E-13       0.001       32.256   0.100E-07
     Final TRS4 iteration    9 1.00000000   0.639E-13
     Chemical potential (mu):       0.01295
 
 PAO| energy:  -7.8029768488610625      penalty:   1.1747981814855578E-005
 PAO|LS| Need extra step
 PAO|LS| adapt:  T T F
 PAO|LS| adapt: scan_steps:    0.0000000000000000        1.0024857938190002        0.0000000000000000     
 PAO|LS| adapt: energies:   -7.8029599203839179       -7.8029768488610625        0.0000000000000000     
 PAO| ======================= Iteration:        32 =============================

     Lanczos converged:  T threshold:   0.100E-02
     Est. extremal eigenvalues:    0.276E+01   0.181E+00
     Est. condition number :    0.153E+02

 Order=           3
[...]
     Symmetrizing Results
     Final NS sqrt iter    5 1.00000000   0.371E-09

     Est. extremal eigenvalues     -0.93686     1.63214  converged:  T
     TRS4 it   1 1.00000000   0.878E+00       0.000       16.128   0.100E-07
     TRS4 it   2 1.00000000   0.633E+00       0.000       32.256   0.100E-07
     TRS4 it   3 1.00000000   0.455E+00       0.000       32.256   0.100E-07
     TRS4 it   4 1.00000000   0.278E+00       0.000       32.256   0.100E-07
     TRS4 it   5 1.00000000   0.137E+00       0.000       32.256   0.100E-07
     TRS4 it   6 1.00000000   0.430E-01       0.000       32.256   0.100E-07
     TRS4 it   7 1.00000000   0.586E-02       0.000       32.256   0.100E-07
     TRS4 it   8 1.00000000   0.146E-03       0.000       32.256   0.100E-07
     TRS4 it   9 1.00000000   0.951E-07       0.000       32.256   0.100E-07
     TRS4 it  10 1.00000000   0.400E-13       0.000       32.256   0.100E-07
     Final TRS4 iteration   10 1.00000000   0.400E-13
     Chemical potential (mu):      -0.07525
 
 PAO| energy:  -7.8021799592513403      penalty:   3.5640901897514112E-008
 PAO|CG| warming up with steepest descent
 PAO|CG| beta:    0.0000000000000000     
 PAO| norm of gradient:   1.3355504481833756E-004
 PAO| energy improvement:  -5.5103610563378425E-009
 PAO| step    412                   -7.802179959  0.835E-05  0.263E+00     0.048
 PAO| converged after          412  steps :-)
 PAO| Recalculating energy after mixing.

     Lanczos converged:  T threshold:   0.100E-02
     Est. extremal eigenvalues:    0.251E+01   0.190E+00
     Est. condition number :    0.132E+02

 Order=           3
     NS sqrt iter    1 1.00000000   0.636E+00       0.001       64.512
     NS sqrt iter    2 1.00000000   0.277E+00       0.001      110.592
     NS sqrt iter    3 1.00000000   0.491E-01       0.001      110.592
     NS sqrt iter    4 1.00000000   0.784E-03       0.001      110.592
     NS sqrt iter    5 1.00000000   0.632E-08       0.001       38.272
     Symmetrizing Results
     Final NS sqrt iter    5 1.00000000   0.371E-09

     Est. extremal eigenvalues     -0.93686     1.63214  converged:  T
     TRS4 it   1 1.00000000   0.878E+00       0.000       16.128   0.100E-07
     TRS4 it   2 1.00000000   0.633E+00       0.000       32.256   0.100E-07
     TRS4 it   3 1.00000000   0.455E+00       0.000       32.256   0.100E-07
     TRS4 it   4 1.00000000   0.278E+00       0.000       32.256   0.100E-07
     TRS4 it   5 1.00000000   0.137E+00       0.000       32.256   0.100E-07
     TRS4 it   6 1.00000000   0.430E-01       0.000       32.256   0.100E-07
     TRS4 it   7 1.00000000   0.586E-02       0.000       32.256   0.100E-07
     TRS4 it   8 1.00000000   0.146E-03       0.000       32.256   0.100E-07
     TRS4 it   9 1.00000000   0.951E-07       0.000       32.256   0.100E-07
     TRS4 it  10 1.00000000   0.410E-13       0.000       32.256   0.100E-07
     Final TRS4 iteration   10 1.00000000   0.410E-13
     Chemical potential (mu):      -0.07525
 
 PAO| energy:  -7.8021799578737365      penalty:   3.6020347658171370E-008
 PAO| Writing restart file.
     Est. extremal eigenvalues     -0.93686     1.63214  converged:  T
     TRS4 it   1 1.00000000   0.878E+00       0.000       16.128   0.100E-07
     TRS4 it   2 1.00000000   0.633E+00       0.000       32.256   0.100E-07
     TRS4 it   3 1.00000000   0.455E+00       0.000       32.256   0.100E-07
     TRS4 it   4 1.00000000   0.278E+00       0.000       32.256   0.100E-07
     TRS4 it   5 1.00000000   0.137E+00       0.000       32.256   0.100E-07
     TRS4 it   6 1.00000000   0.430E-01       0.000       32.256   0.100E-07
     TRS4 it   7 1.00000000   0.586E-02       0.000       32.256   0.100E-07
     TRS4 it   8 1.00000000   0.146E-03       0.000       32.256   0.100E-07
     TRS4 it   9 1.00000000   0.951E-07       0.000       32.256   0.100E-07
     TRS4 it  10 1.00000000   0.410E-13       0.000       32.256   0.100E-07
     Final TRS4 iteration   10 1.00000000   0.410E-13
     Chemical potential (mu):      -0.07525

 SCF     1       -34.450158597       -34.450158597    1.241313

*********************************************************
 Using MIXING_FRACTION=0.450 to mix KS matrix:  iscf=  2
 KS_nw=0.450*KS + 0.550*KS_old
*********************************************************
     Est. extremal eigenvalues     -0.93686     1.63214  converged:  T
     TRS4 it   1 1.00000000   0.878E+00       0.000       16.128   0.100E-07
     TRS4 it   2 1.00000000   0.633E+00       0.000       32.256   0.100E-07
     TRS4 it   3 1.00000000   0.455E+00       0.000       32.256   0.100E-07
     TRS4 it   4 1.00000000   0.278E+00       0.000       32.256   0.100E-07
     TRS4 it   5 1.00000000   0.137E+00       0.000       32.256   0.100E-07
     TRS4 it   6 1.00000000   0.430E-01       0.000       32.256   0.100E-07
     TRS4 it   7 1.00000000   0.586E-02       0.000       32.256   0.100E-07
     TRS4 it   8 1.00000000   0.146E-03       0.000       32.256   0.100E-07
     TRS4 it   9 1.00000000   0.952E-07       0.000       32.256   0.100E-07
     TRS4 it  10 1.00000000   0.411E-13       0.000       32.256   0.100E-07
     Final TRS4 iteration   10 1.00000000   0.411E-13
     Chemical potential (mu):      -0.07525

 SCF     2       -34.450158597        -0.000000000    0.978731


 SCF run converged in     2 steps.

 PAO| Storing density matrix for ASPC guess in slot:           1

 ENERGY| Total FORCE_EVAL ( QS ) energy [a.u.]:              -34.450158597372500

 -------------------------------------------------------------------------------
 -                                                                             -
 -                                DBCSR STATISTICS                             -
 -                                                                             -
 -------------------------------------------------------------------------------
 COUNTER                                    TOTAL       BLAS       SMM       ACC
 flops     5 x     5 x     4                20000       0.0%    100.0%      0.0%
 flops    13 x     5 x     4                20800       0.0%    100.0%      0.0%
 flops     5 x    13 x     4                20800       0.0%    100.0%      0.0%
 flops    13 x    13 x     4                40560       0.0%    100.0%      0.0%
 flops     4 x     4 x     5              3237120       0.0%    100.0%      0.0%
 flops     5 x     4 x     5              3945600       0.0%    100.0%      0.0%
 flops     4 x     4 x    13              4208256       0.0%    100.0%      0.0%
 flops    13 x     4 x     5              5129280       0.0%    100.0%      0.0%
 flops     5 x     4 x    13              5129280       0.0%    100.0%      0.0%
 flops     5 x     4 x     4              6258560       0.0%    100.0%      0.0%
 flops    13 x     4 x    13              6668064       0.0%    100.0%      0.0%
 flops    13 x     4 x     4              8315008       0.0%    100.0%      0.0%
 flops     4 x     4 x     4            417693824       0.0%    100.0%      0.0%
 flops inhomo. stacks                           0       0.0%      0.0%      0.0%
 flops total                       460.687152E+06       0.0%    100.0%      0.0%
 flops max/rank                    460.687152E+06       0.0%    100.0%      0.0%
 matmuls inhomo. stacks                         0       0.0%      0.0%      0.0%
 matmuls total                            3397283       0.0%    100.0%      0.0%
 number of processed stacks                 27075       0.0%    100.0%      0.0%
 average stack size                                     0.0     125.5       0.0
 marketing flops                   749.169984E+06
 -------------------------------------------------------------------------------
 # multiplications                          22634
 max memory usage/rank             505.466880E+06
 # max total images/rank                        1
 # max 3D layers                                1
 # MPI messages exchanged                       0
 -------------------------------------------------------------------------------

 -------------------------------------------------------------------------------
 -                                                                             -
 -                                DBM STATISTICS                               -
 -                                                                             -
 -------------------------------------------------------------------------------
    M  x    N  x    K                                          COUNT     PERCENT
 -------------------------------------------------------------------------------

 -------------------------------------------------------------------------------
 -                                                                             -
 -                                GRID STATISTICS                              -
 -                                                                             -
 -------------------------------------------------------------------------------
 LP    KERNEL             BACKEND                              COUNT     PERCENT
 2     collocate ortho    REF                                  38100      30.76%
 2     integrate ortho    REF                                  38100      30.76%
 3     collocate ortho    REF                                  19570      15.80%
 3     integrate ortho    REF                                  19570      15.80%
 4     collocate ortho    REF                                   4260       3.44%
 4     integrate ortho    REF                                   4260       3.44%
 0     collocate general  REF                                      6       0.00%
 -------------------------------------------------------------------------------

 MEMORY| Estimated peak process memory [MiB]                                 483

 -------------------------------------------------------------------------------
 -                                                                             -
 -                           R E F E R E N C E S                               -
 -                                                                             -
 -------------------------------------------------------------------------------
 
 CP2K version 2023.1 (Development Version), the CP2K developers group (2023).
 CP2K is freely available from https://www.cp2k.org/ .

 Kuehne,Thomas D.; Iannuzzi,Marcella; Del Ben,Mauro;
 Rybkin,Vladimir V.; Seewald,Patrick; Stein,Frederick; Laino,Teodoro;
 Khaliullin,Rustam Z.; Schuett,Ole; Schiffmann,Florian; Golze,Dorothea;
 Wilhelm,Jan; Chulkov,Sergey; Bani-Hashemian,Mohammad Hossein;
 Weber,Valery; Borstnik,Urban; Taillefumier,Mathieu;
 Jakobovits,Alice Shoshana; Lazzaro,Alfio; Pabst,Hans; Mueller,Tiziano;
 Schade,Robert; Guidon,Manuel; Andermatt,Samuel; Holmberg,Nico;
 Schenter,Gregory K.; Hehn,Anna; Bussy,Augustin; Belleflamme,Fabian;
 Tabacchi,Gloria; Gloess,Andreas; Lass,Michael; Bethune,Iain;
 Mundy,Christopher J.; Plessl,Christian; Watkins,Matt;
 VandeVondele,Joost; Krack,Matthias; Hutter,Juerg. 
 The Journal of Chemical Physics, 152 (19), (2020). 
 CP2K: An electronic structure and molecular dynamics software package -
 Quickstep: Efficient and accurate electronic structure calculations.
 https://doi.org/10.1063/5.0007045

 Schuett, O; VandeVondele, J. 
 Journal of Chemical Theory and Computation, 14, (2018). 
 Machine Learning Adaptive Basis Sets for Efficient Large Scale
 Density Functional Theory Simulation.
 https://doi.org/10.1021/acs.jctc.8b00378

 Schuett, Ole; Messmer, Peter; Hutter, Juerg; VandeVondele, Joost. 
 Electronic Structure Calculations on Graphics Processing Units, John
 Wiley & Sons, Ltd, 173-190 (2016). 
 GPU-Accelerated Sparse Matrix-Matrix Multiplication for
 Linear Scaling Density Functional Theory.
 https://doi.org/10.1002/9781118670712.ch8

 Heinecke, A; Henry, G; Hutchinson, M; Pabst, H. 
 Proceedings of Intl. Supercomputing Conference, 981-991 (2016). 
 LIBXSMM: Accelerating Small Matrix Multiplications
 by Runtime Code Generation.
 https://doi.org/10.1109/SC.2016.83

 Borstnik, U; VandeVondele, J; Weber, V; Hutter, J. 
 PARALLEL COMPUTING, 40 (5-6), 47-58 (2014). 
 Sparse matrix multiplication: The distributed block-compressed sparse
 row library.
 https://doi.org/10.1016/j.parco.2014.03.012

 Hutter, J; Iannuzzi, M; Schiffmann, F; VandeVondele, J. 
 WIREs Comput Mol Sci., 4 (1), 15-25 (2014). 
 CP2K: atomistic simulations of condensed matter systems.
 https://doi.org/10.1002/wcms.1159

 VandeVondele, J; Borstnik, U; Hutter, J. 
 JOURNAL OF CHEMICAL THEORY AND COMPUTATION, 8 (10), 3565-3573 (2012). 
 Linear Scaling Self-Consistent Field Calculations with Millions of Atoms
 in the Condensed Phase.
 https://doi.org/10.1021/ct200897x

 VandeVondele, J; Hutter, J. 
 JOURNAL OF CHEMICAL PHYSICS, 127 (11), 114105 (2007). 
 Gaussian basis sets for accurate calculations on molecular systems in
 gas and condensed phases.
 https://doi.org/10.1063/1.2770708

 Krack, M. 
 THEORETICAL CHEMISTRY ACCOUNTS, 114 (1-3), 145-152 (2005). 
 Pseudopotentials for H to Kr optimized for gradient-corrected
 exchange-correlation functionals.
 https://doi.org/10.1007/s00214-005-0655-y

 VandeVondele, J; Krack, M; Mohamed, F; Parrinello, M; Chassaing, T;
 Hutter, J. COMPUTER PHYSICS COMMUNICATIONS, 167 (2), 103-128 (2005). 
 QUICKSTEP: Fast and accurate density functional calculations using a
 mixed Gaussian and plane waves approach.
 https://doi.org/10.1016/j.cpc.2004.12.014

 Frigo, M; Johnson, SG. 
 PROCEEDINGS OF THE IEEE, 93 (2), 216-231 (2005). 
 The design and implementation of FFTW3.
 https://doi.org/10.1109/JPROC.2004.840301

 Niklasson, AMN; Tymczak, CJ; Challacombe, M. 
 JOURNAL OF CHEMICAL PHYSICS, 118 (19), 8611-8620 (2003). 
 Trace resetting density matrix purification in O(N)
 self-consistent-field theory.
 https://doi.org/10.1063/1.1559913

 Hartwigsen, C; Goedecker, S; Hutter, J. 
 PHYSICAL REVIEW B, 58 (7), 3641-3662 (1998). 
 Relativistic separable dual-space Gaussian pseudopotentials from H to Rn.
 https://doi.org/10.1103/PhysRevB.58.3641

 Lippert, G; Hutter, J; Parrinello, M. 
 MOLECULAR PHYSICS, 92 (3), 477-487 (1997). 
 A hybrid Gaussian and plane wave density functional scheme.
 https://doi.org/10.1080/002689797170220

 Perdew, JP; Burke, K; Ernzerhof, M. 
 PHYSICAL REVIEW LETTERS, 77 (18), 3865-3868 (1996). 
 Generalized gradient approximation made simple.
 https://doi.org/10.1103/PhysRevLett.77.3865

 Goedecker, S; Teter, M; Hutter, J. 
 PHYSICAL REVIEW B, 54 (3), 1703-1710 (1996). 
 Separable dual-space Gaussian pseudopotentials.
 https://doi.org/10.1103/PhysRevB.54.1703


 -------------------------------------------------------------------------------
 -                                                                             -
 -                                T I M I N G                                  -
 -                                                                             -
 -------------------------------------------------------------------------------
 SUBROUTINE                       CALLS  ASD         SELF TIME        TOTAL TIME
                                MAXIMUM       AVERAGE  MAXIMUM  AVERAGE  MAXIMUM
 CP2K                                 1  1.0    0.009    0.009   40.281   40.281
 qs_energies                          1  2.0    0.000    0.000   39.637   39.637
 ls_scf                               1  3.0    0.000    0.000   39.376   39.376
 ls_scf_main                          4  4.0    0.001    0.001   27.434   27.434
 ls_scf_dm_to_ks                      9  5.0    0.000    0.000   27.351   27.351
 qs_ks_update_qs_env                 10  6.0    0.000    0.000   23.626   23.626
 rebuild_ks_matrix                   10  7.0    0.000    0.000   23.625   23.625
 qs_ks_build_kohn_sham_matrix        10  8.0    0.003    0.003   23.625   23.625
 qs_vxc_create                       10  9.0    0.000    0.000   15.137   15.137
 xc_vxc_pw_create                    10 10.0    0.288    0.288   15.137   15.137
 pw_transfer                        191 11.1    0.034    0.034   14.186   14.186
 fft_wrap_pw1pw2                    171 12.3    0.004    0.004   13.746   13.746
 fft_wrap_pw1pw2_200                111 13.7    1.411    1.411   13.301   13.301
 xc_pw_derive                        60 12.0    0.002    0.002    9.494    9.494
 xc_rho_set_and_dset_create          10 11.0    0.296    0.296    8.161    8.161
 pao_update                           4  4.0    0.008    0.008    8.028    8.028
 qs_rho_update_rho_low               10  6.0    0.000    0.000    7.590    7.590
 calculate_rho_elec                  10  7.0    0.066    0.066    7.590    7.590
 pao_calc_energy                    415  5.0    0.003    0.003    7.279    7.279
 xc_pw_divergence                    10 11.0    0.001    0.001    6.478    6.478
 fft3d_s                            172 14.2    6.188    6.188    6.214    6.214
 dbcsr_multiply_generic           22634  8.4    0.360    0.360    5.771    5.771
 sum_up_and_integrate                10  9.0    0.199    0.199    5.591    5.591
 integrate_v_rspace                  10 10.0    0.001    0.001    5.392    5.392
 grid_integrate_task_list            10 11.0    4.310    4.310    4.310    4.310
 grid_collocate_task_list            10  8.0    3.948    3.948    3.948    3.948
 pao_guess_initial_P                  1  4.0    0.000    0.000    3.870    3.870
 pao_read_preopt_dm                   1  5.0    0.000    0.000    3.870    3.870
 pao_dm_trs4                        415  6.0    0.002    0.002    3.796    3.796
 density_matrix_trs4                424  7.0    0.116    0.116    3.658    3.658
 density_rs2pw                       10  8.0    0.001    0.001    3.577    3.577
 ls_scf_init_matrix_S               419  7.0    0.002    0.002    3.463    3.463
 pao_rebuild_S                      415  6.0    0.001    0.001    3.433    3.433
 matrix_sqrt_Newton_Schulz          419  8.0    0.077    0.077    3.132    3.132
 pw_scatter_s                        90 14.7    3.053    3.053    3.053    3.053
 pw_gather_s                         81 13.8    3.015    3.015    3.015    3.015
 xc_functional_eval                  10 12.0    0.000    0.000    2.906    2.906
 pbe_lda_eval                        10 13.0    2.905    2.905    2.905    2.905
 make_m2s                         45268  9.4    0.139    0.139    2.166    2.166
 multiply_cannon                  22634  9.4    0.889    0.889    2.156    2.156
 make_images                      45268 10.4    0.536    0.536    1.919    1.919
 pw_derive                           60 13.0    1.877    1.877    1.877    1.877
 pw_copy                            120 11.8    1.336    1.336    1.336    1.336
 arnoldi_extremal                   843  8.5    0.003    0.003    1.145    1.145
 arnoldi_normal_ev                  843  9.5    0.008    0.008    1.142    1.142
 potential_pw2rs                     10 11.0    0.002    0.002    1.081    1.081
 pw_axpy                             90 10.3    1.056    1.056    1.056    1.056
 pw_poisson_solve                    10  9.0    0.207    0.207    1.055    1.055
 build_subspace                     843 10.5    0.046    0.046    0.901    0.901
 dbcsr_matrix_vector_mult         20198 11.5    0.095    0.095    0.832    0.832
 -------------------------------------------------------------------------------

 The number of warnings for this run is : 0
 
 -------------------------------------------------------------------------------
  **** **** ******  **  PROGRAM ENDED AT                 2023-02-01 10:44:35.487
 ***** ** ***  *** **   PROGRAM RAN ON                                    moritz
 **    ****   ******    PROGRAM RAN BY                                       ole
 ***** **    ** ** **   PROGRAM PROCESS ID                                148490
  **** **  *******  **  PROGRAM STOPPED IN /home/ole/git/pao_ml_equivar/2H2O_rot
                                           ations/rand_01
