6
Properties=species:S:1:pos:R:3 i=0 time=0.0 E=-34.4504806384 pbc="F F F"
O        1.72399133       5.93534885      -2.15278870
H        1.00292118       6.06336409      -1.52752160
H        2.07188693       5.05739580      -1.96759663
O        0.63007046       5.99020200      -4.94553399
H        1.05854532       6.67515476      -5.46646971
H        1.03765314       6.04165402      -4.06709329
