 DBCSR| CPU Multiplication driver                                           XSMM (U)
 DBCSR| Multrec recursion limit                                              512 (U)
 DBCSR| Multiplication stack size                                           1000 (D)
 DBCSR| Maximum elements for images                                    UNLIMITED (U)
 DBCSR| Multiplicative factor virtual images                                   1 (U)
 DBCSR| Use multiplication densification                                       T (D)
 DBCSR| Multiplication size stacks                                             3 (U)
 DBCSR| Use memory pool for CPU allocation                                     F (U)
 DBCSR| Number of 3D layers                                               SINGLE (U)
 DBCSR| Use MPI memory allocation                                              F (U)
 DBCSR| Use RMA algorithm                                                      F (U)
 DBCSR| Use Communication thread                                               T (U)
 DBCSR| Communication thread load                                             87 (D)
 DBCSR| MPI: My process id                                                     0
 DBCSR| MPI: Number of processes                                              32
 DBCSR| OMP: Current number of threads                                         1
 DBCSR| OMP: Max number of threads                                             1
 DBCSR| Split modifier for TAS multiplication algorithm                  1.0E+00 (U)


  **** **** ******  **  PROGRAM STARTED AT               2024-09-23 23:30:37.520
 ***** ** ***  *** **   PROGRAM STARTED ON                                moritz
 **    ****   ******    PROGRAM STARTED BY                                   ole
 ***** **    ** ** **   PROGRAM PROCESS ID                                164318
  **** **  *******  **  PROGRAM STARTED IN /home/ole/git/pao_ml_equivar/64H2O_MD
                                           /Frame1000

 CP2K| version string:                 CP2K version 2024.3 (Development Version)
 CP2K| source code revision number:                                  git:3f890bb
 CP2K| cp2kflags: omp libint fftw3 libxc libgrpp pexsi elpa parallel scalapack c
 CP2K|            osma quip deepmd xsmm plumed2 spglib libdftd4 sirius libvori l
 CP2K|            libbqb libvdwxc hdf5
 CP2K| is freely available from                            https://www.cp2k.org/
 CP2K| Program compiled at                          Mo 23 Sep 2024 17:17:04 CEST
 CP2K| Program compiled on                                                moritz
 CP2K| Program compiled for                                                local
 CP2K| Data directory path                               /home/ole/git/cp2k/data
 CP2K| Input file name                                           64H2O_pao44.inp

 GLOBAL| Force Environment number                                              1
 GLOBAL| Basis set file name                                        BASIS_MOLOPT
 GLOBAL| Potential file name                                      GTH_POTENTIALS
 GLOBAL| MM Potential file name                                     MM_POTENTIAL
 GLOBAL| Coordinate file name                                         coords.xyz
 GLOBAL| Method name                                                        CP2K
 GLOBAL| Project name                                                64H2O_pao44
 GLOBAL| Run type                                                         ENERGY
 GLOBAL| FFT library                                                       FFTW3
 GLOBAL| Diagonalization library                                            ELPA
 GLOBAL| DGEMM library                                                      BLAS
 GLOBAL| Minimum number of eigenvectors for ELPA usage                        16
 GLOBAL| Orthonormality check for eigenvectors                          DISABLED
 GLOBAL| Matrix multiplication library                                     COSMA
 GLOBAL| All-to-all communication in single precision                          F
 GLOBAL| FFTs using library dependent lengths                                  F
 GLOBAL| Grid backend                                                       AUTO
 GLOBAL| Global print level                                                  LOW
 GLOBAL| MPI I/O enabled                                                       T
 GLOBAL| Total number of message passing processes                            32
 GLOBAL| Number of threads for this process                                    1
 GLOBAL| This output is from process                                           0
 GLOBAL| Stack size for threads created by OpenMP (OMP_STACKSIZE)        default
 GLOBAL| CPU model name           AMD Ryzen Threadripper 3970X 32-Core Processor
 GLOBAL| CPUID                                                              1002

 MEMORY| system memory details [Kb]
 MEMORY|                        rank 0           min           max       average
 MEMORY| MemTotal            131752136     131752136     131752136     131752136
 MEMORY| MemFree             114435940     114435940     114435940     114435940
 MEMORY| Buffers               1988444       1988444       1988444       1988444
 MEMORY| Cached                8593692       8593692       8593692       8593692
 MEMORY| Slab                  1635924       1635924       1635924       1635924
 MEMORY| SReclaimable          1141376       1141376       1141376       1141376
 MEMORY| MemLikelyFree       126159452     126159452     126159452     126159452


 GENERATE|  Preliminary Number of Bonds generated:                             0
 GENERATE|  Achieved consistency in connectivity generation.

 *******************************************************************************
 *******************************************************************************
 **                                                                           **
 **     #####                         ##              ##                      **
 **    ##   ##            ##          ##              ##                      **
 **   ##     ##                       ##            ######                    **
 **   ##     ##  ##   ##  ##   #####  ##  ##   ####   ##    #####    #####    **
 **   ##     ##  ##   ##  ##  ##      ## ##   ##      ##   ##   ##  ##   ##   **
 **   ##  ## ##  ##   ##  ##  ##      ####     ###    ##   ######   ######    **
 **    ##  ###   ##   ##  ##  ##      ## ##      ##   ##   ##       ##        **
 **     #######   #####   ##   #####  ##  ##  ####    ##    #####   ##        **
 **           ##                                                    ##        **
 **                                                                           **
 **                                                ... make the atoms dance   **
 **                                                                           **
 **            Copyright (C) by CP2K developers group (2000-2024)             **
 **                      J. Chem. Phys. 152, 194103 (2020)                    **
 **                                                                           **
 *******************************************************************************


 TOTAL NUMBERS AND MAXIMUM NUMBERS

  Total number of            - Atomic kinds:                                   2
                             - Atoms:                                        192
                             - Shell sets:                                   192
                             - Shells:                                       704
                             - Primitive Cartesian functions:               1344
                             - Cartesian basis functions:                   1536
                             - Spherical basis functions:                   1472

  Maximum angular momentum of- Orbital basis functions:                        2
                             - Local part of the GTH pseudopotential:          2
                             - Non-local part of the GTH pseudopotential:      0

 ------------------------------ Linear scaling SCF -----------------------------
 eps_scf:                                                              0.100E-07
 eps_filter:                                                           0.100E-11
 mixing_fraction:                                                      0.450E+00
 max_scf:                                                                     25
 fixed chemical potential (mu)                                                 F
 has unit metric:                                                              F
 Computing inv(S):                                                             T
 Computing sqrt(S):                                                            T
 Computing S preconditioner                                                    F
 S sqrt method:                                                     NEWTONSCHULZ
 S sqrt order:                                                                 3
 Extrapolation order:                                                          1
 S preconditioner type                                                      NONE
 Polarized Atomic Orbitals (PAO)                                               T
 Purification method                                   Trace resetting 4th order
 Cluster type                                                             ATOMIC
 Computing Chebyshev                                                       FALSE
 Using PAO                                                                     T
 -------------------------------------------------------------------------------

 
 PAO|                                  EPS_PAO                           0.5E-06
 PAO|                                  MIXING                            0.5E+00
 PAO|                                  MAX_PAO                              1500
 PAO|                                  MAX_CYCLES                           1000
 PAO|                                  PARAMETERIZATION              EQUIVARIANT
 PAO|                                  PRECONDITION                            F
 PAO|                                  REGULARIZATION                    0.0E+00
 PAO|                                  EPS_PGF                           0.1E-09
 PAO|                                  PENALTY_DISTANCE                  0.1E+00
 PAO|                                  PENALTY_STRENGTH                  0.5E-02
 PAO|                                  LINPOT_PRECONDITION_DELTA         0.0E+00
 PAO|                                  LINPOT_INITGUESS_DELT             0.0E+00
 PAO|                                  LINPOT_REGULARIZATION_DELTA       0.0E+00
 PAO|                                  LINPOT_REGULARIZATION_STRENGTH    0.0E+00
 PAO|                                  OPTIMIZER                              CG
 PAO|                                  CG_INIT_STEPS                           2
 PAO|                                  CG_RESET_LIMIT                    0.1E+00
 PAO|                                  CHECK_UNITARY_TOL                -0.1E+01
 PAO|                                  CHECK_GRADIENT_TOL               -0.1E+01
 PAO|                                  NUM_GRADIENT_ORDER                      2
 PAO|                                  NUM_GRADIENT_EPS                  0.1E-07
 PAO|                                  PRINT%RESTART%WRITE_CYCLES            100
 PAO|                                  RESTART_FILE 
 PAO|                                  PREOPT_DM_FILE 64H2O_ref_LS_DM_SPIN_1_RESTART.dm
 PAO|                                  MACHINE_LEARNING%METHOD       GAUSSIAN_PR
 PAO|                                  MACHINE_LEARNING%PRIOR               ZERO
 PAO|                                  MACHINE_LEARNING%DESCRIPTOR     POTENTIAL
 PAO|                                  MACHINE_LEARNING%TOLERANCE        0.1E-01
 PAO|                                  MACHINE_LEARNING%GP_NOISE_VAR     0.1E+00
 PAO|                                  MACHINE_LEARNING%GP_SCALE         0.5E-01
 

 Calculating atomic Fock matrix for atomic kind: O

 Electronic structure
    Total number of core electrons                                          2.00
    Total number of valence electrons                                       6.00
    Total number of electrons                                               8.00
    Multiplicity                                                   not specified
    S   [  2.00] 2.00
    P      4.00


 *******************************************************************************
                  Iteration          Convergence                     Energy [au]
 *******************************************************************************
                          1        0.708315                     -15.576645311500
                          2        0.608879                     -15.587933561584
                          3        0.102828E-01                 -15.656849565404
                          4        0.113889E-02                 -15.656866888140
                          5        0.434197E-03                 -15.656867072159
                          6        0.263771E-03                 -15.656867091904
                          7        0.478536E-06                 -15.656867103452

 Energy components [Hartree]           Total Energy ::          -15.656867103452
                                        Band Energy ::           -3.000198112285
                                     Kinetic Energy ::           11.759971203220
                                   Potential Energy ::          -27.416838306672
                                      Virial (-V/T) ::            2.331369510426
                                        Core Energy ::          -26.140716385623
                                          XC Energy ::           -3.154051012914
                                     Coulomb Energy ::           13.637900295084
                       Total Pseudopotential Energy ::          -37.935781716540
                       Local Pseudopotential Energy ::          -39.218907440693
                    Nonlocal Pseudopotential Energy ::            1.283125724153
                                        Confinement ::            0.350941276976

 Orbital energies  State     L     Occupation   Energy[a.u.]          Energy[eV]

                       1     0          2.000      -0.864471          -23.523463

                       1     1          4.000      -0.317814           -8.648154


 Total Electron Density at R=0:                                         0.000068

 Calculating atomic Fock matrix for atomic kind: H

 Electronic structure
    Total number of core electrons                                          0.00
    Total number of valence electrons                                       1.00
    Total number of electrons                                               1.00
    Multiplicity                                                   not specified
    S      1.00


 *******************************************************************************
                  Iteration          Convergence                     Energy [au]
 *******************************************************************************
                          1        0.437545E-02                  -0.424159432110
                          2        0.531356E-03                  -0.424178438213
                          3        0.259176E-06                  -0.424178722480

 Energy components [Hartree]           Total Energy ::           -0.424178722480
                                        Band Energy ::           -0.199015229016
                                     Kinetic Energy ::            0.464007633961
                                   Potential Energy ::           -0.888186356441
                                      Virial (-V/T) ::            1.914163240935
                                        Core Energy ::           -0.479160803564
                                          XC Energy ::           -0.244352904054
                                     Coulomb Energy ::            0.299334985138
                       Total Pseudopotential Energy ::           -0.962295316385
                       Local Pseudopotential Energy ::           -0.962295316385
                    Nonlocal Pseudopotential Energy ::            0.000000000000
                                        Confinement ::            0.191268788606

 Orbital energies  State     L     Occupation   Energy[a.u.]          Energy[eV]

                       1     0          1.000      -0.199015           -5.415480


 Total Electron Density at R=0:                                         0.242907
 PAO| Made initial guess for matrix_X with norm:   27.712812921102035     

     Lanczos converged:  F threshold:   0.100E-02
     Est. extremal eigenvalues:    0.622E+01   0.922E-01
     Est. condition number :    0.674E+02

 Order=           3
     NS sqrt iter    1 1.00000000   0.152E+01       0.021     2693.546
     NS sqrt iter    2 1.00000000   0.828E+00       0.034     3378.562
     NS sqrt iter    3 1.00000000   0.334E+00       0.034     3369.125
     NS sqrt iter    4 1.00000000   0.938E-01       0.034     3360.699
     NS sqrt iter    5 1.00000000   0.349E-02       0.033     3386.526
     NS sqrt iter    6 1.00000000   0.336E-06       0.029     2934.926
     Symmetrizing Results
     Final NS sqrt iter    6 1.00000000   0.232E-12

 PAO| Read restart DM 64H2O_ref_LS_DM_SPIN_1_RESTART.dm with checksum:    6125.4863121505441     
 PAO| Quickstep energy from restart density:  -1103.1304702062880     
 PAO| ======================= Iteration:         1 =============================

     Lanczos converged:  F threshold:   0.100E-02
     Est. extremal eigenvalues:    0.622E+01   0.922E-01
     Est. condition number :    0.674E+02

 Order=           3
     NS sqrt iter    1 1.00000000   0.152E+01       0.021     2725.927
     NS sqrt iter    2 1.00000000   0.828E+00       0.034     3373.503
     NS sqrt iter    3 1.00000000   0.334E+00       0.033     3388.372
     NS sqrt iter    4 1.00000000   0.938E-01       0.034     3353.597
     NS sqrt iter    5 1.00000000   0.349E-02       0.033     3398.618
     NS sqrt iter    6 1.00000000   0.336E-06       0.029     2946.197
     Symmetrizing Results
     Final NS sqrt iter    6 1.00000000   0.231E-12

     Est. extremal eigenvalues     -0.82715     2.65094  converged:  T
     TRS4 it   1 1.00000000   0.274E+02       0.007     2143.960   0.100E-11
     TRS4 it   2 1.00000000   0.237E+02       0.013     2198.691   0.100E-11
     TRS4 it   3 1.00000000   0.161E+02       0.013     2185.122   0.100E-11
     TRS4 it   4 1.00000000   0.100E+02       0.013     2225.985   0.100E-11
     TRS4 it   5 1.00000000   0.481E+01       0.013     2193.453   0.100E-11
     TRS4 it   6 1.00000000   0.160E+01       0.013     2173.579   0.100E-11
     TRS4 it   7 1.00000000   0.313E+00       0.013     2177.337   0.100E-11
     TRS4 it   8 1.00000000   0.210E-01       0.013     2191.990   0.100E-11
     TRS4 it   9 1.00000000   0.176E-03       0.013     2195.306   0.100E-11
     TRS4 it  10 1.00000000   0.210E-07       0.013     2196.736   0.100E-11
     TRS4 it  11 1.00000000   0.355E-14       0.013     2177.152   0.100E-11
     Final TRS4 iteration   11 1.00000000   0.355E-14
     Chemical potential (mu):       0.01480
 
 PAO| energy:  -186.68117975662273      penalty:   1.5253365159546908E-031
 PAO|CG| warming up with steepest descent
 PAO|CG| beta:    0.0000000000000000     
 PAO| norm of gradient:   3.9672154338158196     
 PAO|LS| adapt:  T F F
 PAO|LS| adapt: scan_steps:    0.0000000000000000        0.0000000000000000        0.0000000000000000     
 PAO|LS| adapt: energies:   -186.68117975662273        0.0000000000000000        0.0000000000000000     
 PAO| ======================= Iteration:         2 =============================

     Lanczos converged:  F threshold:   0.100E-02
     Est. extremal eigenvalues:    0.600E+01   0.987E-01
     Est. condition number :    0.608E+02

 Order=           3
     NS sqrt iter    1 1.00000000   0.147E+01       0.021     2693.940
     NS sqrt iter    2 1.00000000   0.798E+00       0.033     3383.439
     NS sqrt iter    3 1.00000000   0.313E+00       0.034     3353.313
     NS sqrt iter    4 1.00000000   0.789E-01       0.034     3374.970
     NS sqrt iter    5 1.00000000   0.218E-02       0.033     3387.823
     NS sqrt iter    6 1.00000000   0.966E-07       0.029     2944.685
     Symmetrizing Results
     Final NS sqrt iter    6 1.00000000   0.249E-13

     Est. extremal eigenvalues     -0.83048     2.64809  converged:  T
     TRS4 it   1 1.00000000   0.276E+02       0.007     2127.754   0.100E-11
     TRS4 it   2 1.00000000   0.237E+02       0.013     2206.170   0.100E-11
     TRS4 it   3 1.00000000   0.160E+02       0.013     2197.471   0.100E-11
     TRS4 it   4 1.00000000   0.982E+01       0.013     2210.521   0.100E-11
     TRS4 it   5 1.00000000   0.460E+01       0.013     2209.788   0.100E-11
     TRS4 it   6 1.00000000   0.147E+01       0.013     2195.907   0.100E-11
     TRS4 it   7 1.00000000   0.267E+00       0.013     2197.091   0.100E-11
     TRS4 it   8 1.00000000   0.150E-01       0.013     2176.073   0.100E-11
     TRS4 it   9 1.00000000   0.817E-04       0.013     2195.391   0.100E-11
     TRS4 it  10 1.00000000   0.517E-08       0.013     2200.949   0.100E-11
     TRS4 it  11 1.00000000   0.178E-13       0.013     2192.967   0.100E-11
     Final TRS4 iteration   11 1.00000000   0.178E-13
     Chemical potential (mu):       0.02089
 
 PAO| energy:  -188.12695272978493      penalty:   4.6711822582518578E-007
 PAO|LS| adapt:  T T F
 PAO|LS| adapt: scan_steps:    0.0000000000000000       0.10000000000000001        0.0000000000000000     
 PAO|LS| adapt: energies:   -186.68117975662273       -188.12695272978493        0.0000000000000000     
 PAO| ======================= Iteration:         3 =============================

     Lanczos converged:  F threshold:   0.100E-02
     Est. extremal eigenvalues:    0.578E+01   0.104E+00
     Est. condition number :    0.554E+02

 Order=           3
     NS sqrt iter    1 1.00000000   0.143E+01       0.021     2667.757
     NS sqrt iter    2 1.00000000   0.769E+00       0.033     3399.585
     NS sqrt iter    3 1.00000000   0.293E+00       0.034     3378.155
     NS sqrt iter    4 1.00000000   0.663E-01       0.033     3393.165
     NS sqrt iter    5 1.00000000   0.139E-02       0.034     3352.635
     NS sqrt iter    6 1.00000000   0.299E-07       0.029     2938.765
     Symmetrizing Results
     Final NS sqrt iter    6 1.00000000   0.379E-14

     Est. extremal eigenvalues     -0.83366     2.64670  converged:  T
     TRS4 it   1 1.00000000   0.278E+02       0.007     2102.566   0.100E-11
     TRS4 it   2 1.00000000   0.237E+02       0.013     2201.828   0.100E-11
     TRS4 it   3 1.00000000   0.159E+02       0.013     2204.349   0.100E-11
     TRS4 it   4 1.00000000   0.964E+01       0.013     2205.933   0.100E-11
     TRS4 it   5 1.00000000   0.441E+01       0.013     2196.913   0.100E-11
     TRS4 it   6 1.00000000   0.135E+01       0.013     2212.790   0.100E-11
     TRS4 it   7 1.00000000   0.227E+00       0.013     2215.268   0.100E-11
     TRS4 it   8 1.00000000   0.104E-01       0.013     2192.853   0.100E-11
     TRS4 it   9 1.00000000   0.354E-04       0.013     2209.304   0.100E-11
     TRS4 it  10 1.00000000   0.111E-08       0.013     2229.743   0.100E-11
     TRS4 it  11 1.00000000   0.160E-13       0.013     2201.651   0.100E-11
     Final TRS4 iteration   11 1.00000000   0.160E-13
     Chemical potential (mu):       0.02798
 
 PAO| energy:  -189.30050395468433      penalty:   7.4738916132721175E-006
 PAO|LS| adapt:  T T F
 PAO|LS| adapt: scan_steps:    0.0000000000000000       0.20000000000000001        0.0000000000000000     
 PAO|LS| adapt: energies:   -186.68117975662273       -189.30050395468433        0.0000000000000000     
 PAO| ======================= Iteration:         4 =============================

     Lanczos converged:  F threshold:   0.100E-02
     Est. extremal eigenvalues:    0.540E+01   0.114E+00
     Est. condition number :    0.475E+02

 Order=           3
     NS sqrt iter    1 1.00000000   0.135E+01       0.021     2719.451
     NS sqrt iter    2 1.00000000   0.716E+00       0.033     3391.261
     NS sqrt iter    3 1.00000000   0.256E+00       0.033     3387.380
     NS sqrt iter    4 1.00000000   0.472E-01       0.033     3388.503
     NS sqrt iter    5 1.00000000   0.597E-03       0.034     3364.341
     NS sqrt iter    6 1.00000000   0.315E-08       0.029     2884.426
     Symmetrizing Results
     Final NS sqrt iter    6 1.00000000   0.121E-13

     Est. extremal eigenvalues     -0.83899     2.64739  converged:  T
     TRS4 it   1 1.00000000   0.282E+02       0.007     2143.779   0.100E-11
     TRS4 it   2 1.00000000   0.237E+02       0.013     2206.651   0.100E-11
     TRS4 it   3 1.00000000   0.157E+02       0.013     2183.153   0.100E-11
     TRS4 it   4 1.00000000   0.932E+01       0.013     2206.776   0.100E-11
     TRS4 it   5 1.00000000   0.406E+01       0.013     2205.192   0.100E-11
     TRS4 it   6 1.00000000   0.114E+01       0.013     2185.809   0.100E-11
     TRS4 it   7 1.00000000   0.161E+00       0.013     2217.904   0.100E-11
     TRS4 it   8 1.00000000   0.484E-02       0.013     2211.663   0.100E-11
     TRS4 it   9 1.00000000   0.635E-05       0.013     2180.346   0.100E-11
     TRS4 it  10 1.00000000   0.403E-10       0.013     2185.157   0.100E-11
     Final TRS4 iteration   10 1.00000000   0.403E-10
     Chemical potential (mu):       0.04631
 
 PAO| energy:  -190.79014727007444      penalty:   1.1958226581290482E-004
 PAO|LS| Need extra step
 PAO|LS| adapt:  T T F
 PAO|LS| adapt: scan_steps:    0.0000000000000000       0.40000000000000002        0.0000000000000000     
 PAO|LS| adapt: energies:   -186.68117975662273       -190.79014727007444        0.0000000000000000     
 PAO| ======================= Iteration:         5 =============================

     Lanczos converged:  F threshold:   0.100E-02
     Est. extremal eigenvalues:    0.478E+01   0.128E+00
     Est. condition number :    0.373E+02

 Order=           3
     NS sqrt iter    1 1.00000000   0.124E+01       0.021     2711.768
     NS sqrt iter    2 1.00000000   0.631E+00       0.034     3364.668
     NS sqrt iter    3 1.00000000   0.201E+00       0.034     3362.354
     NS sqrt iter    4 1.00000000   0.256E-01       0.033     3388.380
     NS sqrt iter    5 1.00000000   0.127E-03       0.033     3385.910
     NS sqrt iter    6 1.00000000   0.438E-10       0.021     2322.704
     Symmetrizing Results
     Final NS sqrt iter    6 1.00000000   0.218E-11

     Est. extremal eigenvalues     -0.84291     2.64795  converged:  T
     TRS4 it   1 1.00000000   0.289E+02       0.007     2116.044   0.100E-11
     TRS4 it   2 1.00000000   0.237E+02       0.013     2185.161   0.100E-11
     TRS4 it   3 1.00000000   0.155E+02       0.013     2165.351   0.100E-11
     TRS4 it   4 1.00000000   0.886E+01       0.013     2202.682   0.100E-11
     TRS4 it   5 1.00000000   0.356E+01       0.013     2186.799   0.100E-11
     TRS4 it   6 1.00000000   0.853E+00       0.013     2198.725   0.100E-11
     TRS4 it   7 1.00000000   0.893E-01       0.013     2208.677   0.100E-11
     TRS4 it   8 1.00000000   0.139E-02       0.013     2182.922   0.100E-11
     TRS4 it   9 1.00000000   0.532E-06       0.013     2205.816   0.100E-11
     TRS4 it  10 1.00000000   0.318E-12       0.013     2208.776   0.100E-11
     Final TRS4 iteration   10 1.00000000   0.318E-12
     Chemical potential (mu):       0.06941
 
 PAO| energy:  -190.46901335675716      penalty:   1.9133162530108891E-003
 PAO|LS| Need extra step
 PAO|LS| adapt:  T T T
 PAO|LS| adapt: scan_steps:    0.0000000000000000       0.40000000000000002       0.80000000000000004     
 PAO|LS| adapt: energies:   -186.68117975662273       -190.79014727007444       -190.46901335675716     
 PAO|LS| adapt: suggested step_size:   0.57100437372590862     
 PAO|LS| adapt: predicted energy  -191.19498234043004     
 PAO| ======================= Iteration:         6 =============================

     Lanczos converged:  T threshold:   0.100E-02
     Est. extremal eigenvalues:    0.510E+01   0.120E+00
     Est. condition number :    0.425E+02

 Order=           3
     NS sqrt iter    1 1.00000000   0.130E+01       0.021     2687.646
     NS sqrt iter    2 1.00000000   0.676E+00       0.033     3383.489
     NS sqrt iter    3 1.00000000   0.230E+00       0.034     3373.963
     NS sqrt iter    4 1.00000000   0.358E-01       0.034     3365.798
     NS sqrt iter    5 1.00000000   0.300E-03       0.034     3357.195
     NS sqrt iter    6 1.00000000   0.482E-09       0.028     2742.705
     Symmetrizing Results
     Final NS sqrt iter    6 1.00000000   0.207E-12

     Est. extremal eigenvalues     -0.84192     2.64870  converged:  T
     TRS4 it   1 1.00000000   0.285E+02       0.007     2129.445   0.100E-11
     TRS4 it   2 1.00000000   0.237E+02       0.013     2206.052   0.100E-11
     TRS4 it   3 1.00000000   0.156E+02       0.013     2211.323   0.100E-11
     TRS4 it   4 1.00000000   0.910E+01       0.013     2198.656   0.100E-11
     TRS4 it   5 1.00000000   0.382E+01       0.013     2209.639   0.100E-11
     TRS4 it   6 1.00000000   0.994E+00       0.013     2187.911   0.100E-11
     TRS4 it   7 1.00000000   0.122E+00       0.013     2214.823   0.100E-11
     TRS4 it   8 1.00000000   0.265E-02       0.013     2191.638   0.100E-11
     TRS4 it   9 1.00000000   0.183E-05       0.013     2227.473   0.100E-11
     TRS4 it  10 1.00000000   0.353E-11       0.013     2194.417   0.100E-11
     Final TRS4 iteration   10 1.00000000   0.353E-11
     Chemical potential (mu):       0.05764
 
 PAO| energy:  -191.16776420245213      penalty:   4.9657465787164383E-004
 PAO|CG| warming up with steepest descent
 PAO|CG| beta:    0.0000000000000000     
 PAO| norm of gradient:   2.0947424686235130     
 PAO| energy improvement:  -4.4865844458294077     
 PAO| step      6                 -191.167764202  0.409E-02  0.571E+00     2.505
 PAO|LS| adapt:  T F F
 PAO|LS| adapt: scan_steps:    0.0000000000000000        0.0000000000000000        0.0000000000000000     
 PAO|LS| adapt: energies:   -191.16776420245213        0.0000000000000000        0.0000000000000000     
 PAO| ======================= Iteration:         7 =============================

     Lanczos converged:  F threshold:   0.100E-02
     Est. extremal eigenvalues:    0.496E+01   0.127E+00
     Est. condition number :    0.389E+02

 Order=           3
     NS sqrt iter    1 1.00000000   0.127E+01       0.021     2698.882
     NS sqrt iter    2 1.00000000   0.652E+00       0.033     3385.124
     NS sqrt iter    3 1.00000000   0.213E+00       0.033     3388.883
     NS sqrt iter    4 1.00000000   0.293E-01       0.034     3373.322
     NS sqrt iter    5 1.00000000   0.174E-03       0.034     3368.838
     NS sqrt iter    6 1.00000000   0.101E-09       0.025     2501.695
     Symmetrizing Results
     Final NS sqrt iter    6 1.00000000   0.163E-11

     Est. extremal eigenvalues     -0.84242     2.64888  converged:  T
     TRS4 it   1 1.00000000   0.287E+02       0.007     2105.964   0.100E-11
     TRS4 it   2 1.00000000   0.238E+02       0.013     2187.746   0.100E-11
     TRS4 it   3 1.00000000   0.157E+02       0.013     2218.143   0.100E-11
     TRS4 it   4 1.00000000   0.923E+01       0.013     2224.468   0.100E-11
     TRS4 it   5 1.00000000   0.392E+01       0.013     2219.439   0.100E-11
     TRS4 it   6 1.00000000   0.102E+01       0.013     2203.306   0.100E-11
     TRS4 it   7 1.00000000   0.126E+00       0.013     2200.982   0.100E-11
     TRS4 it   8 1.00000000   0.279E-02       0.013     2200.572   0.100E-11
     TRS4 it   9 1.00000000   0.228E-05       0.013     2227.917   0.100E-11
     TRS4 it  10 1.00000000   0.705E-11       0.013     2180.448   0.100E-11
     Final TRS4 iteration   10 1.00000000   0.705E-11
     Chemical potential (mu):       0.06133
 
 PAO| energy:  -190.22404996157462      penalty:   6.9859881183816693E-004
 PAO|LS| adapt:  T F T
 PAO|LS| adapt: scan_steps:    0.0000000000000000        0.0000000000000000       0.57100437372590862     
 PAO|LS| adapt: energies:   -191.16776420245213        0.0000000000000000       -190.22404996157462     
 PAO| ======================= Iteration:         8 =============================

     Lanczos converged:  T threshold:   0.100E-02
     Est. extremal eigenvalues:    0.503E+01   0.124E+00
     Est. condition number :    0.407E+02

 Order=           3
     NS sqrt iter    1 1.00000000   0.129E+01       0.021     2691.125
     NS sqrt iter    2 1.00000000   0.664E+00       0.033     3387.261
     NS sqrt iter    3 1.00000000   0.221E+00       0.034     3355.482
     NS sqrt iter    4 1.00000000   0.325E-01       0.033     3388.461
     NS sqrt iter    5 1.00000000   0.230E-03       0.034     3349.375
     NS sqrt iter    6 1.00000000   0.224E-09       0.028     2628.177
     Symmetrizing Results
     Final NS sqrt iter    6 1.00000000   0.785E-12

     Est. extremal eigenvalues     -0.84328     2.64790  converged:  T
     TRS4 it   1 1.00000000   0.286E+02       0.007     2142.797   0.100E-11
     TRS4 it   2 1.00000000   0.238E+02       0.013     2195.579   0.100E-11
     TRS4 it   3 1.00000000   0.156E+02       0.013     2215.011   0.100E-11
     TRS4 it   4 1.00000000   0.913E+01       0.013     2209.840   0.100E-11
     TRS4 it   5 1.00000000   0.384E+01       0.013     2196.067   0.100E-11
     TRS4 it   6 1.00000000   0.999E+00       0.013     2202.338   0.100E-11
     TRS4 it   7 1.00000000   0.122E+00       0.013     2188.261   0.100E-11
     TRS4 it   8 1.00000000   0.266E-02       0.013     2194.159   0.100E-11
     TRS4 it   9 1.00000000   0.188E-05       0.013     2199.026   0.100E-11
     TRS4 it  10 1.00000000   0.371E-11       0.013     2203.323   0.100E-11
     Final TRS4 iteration   10 1.00000000   0.371E-11
     Chemical potential (mu):       0.05758
 
 PAO| energy:  -191.54411126523664      penalty:   5.2637922550595950E-004
 PAO|LS| adapt:  T T T
 PAO|LS| adapt: scan_steps:    0.0000000000000000       0.28550218686295431       0.57100437372590862     
 PAO|LS| adapt: energies:   -191.16776420245213       -191.54411126523664       -190.22404996157462     
 PAO|LS| adapt: suggested step_size:   0.20608956285290392     
 PAO|LS| adapt: predicted energy  -191.60973495187736     
 PAO| ======================= Iteration:         9 =============================

     Lanczos converged:  T threshold:   0.100E-02
     Est. extremal eigenvalues:    0.505E+01   0.123E+00
     Est. condition number :    0.412E+02

 Order=           3
     NS sqrt iter    1 1.00000000   0.129E+01       0.021     2704.839
     NS sqrt iter    2 1.00000000   0.667E+00       0.034     3378.878
     NS sqrt iter    3 1.00000000   0.224E+00       0.034     3377.232
     NS sqrt iter    4 1.00000000   0.334E-01       0.034     3378.390
     NS sqrt iter    5 1.00000000   0.248E-03       0.034     3370.821
     NS sqrt iter    6 1.00000000   0.278E-09       0.028     2663.200
     Symmetrizing Results
     Final NS sqrt iter    6 1.00000000   0.568E-12

     Est. extremal eigenvalues     -0.84313     2.64803  converged:  T
     TRS4 it   1 1.00000000   0.286E+02       0.007     2148.015   0.100E-11
     TRS4 it   2 1.00000000   0.238E+02       0.013     2179.431   0.100E-11
     TRS4 it   3 1.00000000   0.156E+02       0.013     2200.558   0.100E-11
     TRS4 it   4 1.00000000   0.911E+01       0.013     2222.026   0.100E-11
     TRS4 it   5 1.00000000   0.383E+01       0.013     2219.291   0.100E-11
     TRS4 it   6 1.00000000   0.996E+00       0.013     2186.136   0.100E-11
     TRS4 it   7 1.00000000   0.122E+00       0.013     2214.654   0.100E-11
     TRS4 it   8 1.00000000   0.264E-02       0.013     2199.153   0.100E-11
     TRS4 it   9 1.00000000   0.184E-05       0.013     2191.449   0.100E-11
     TRS4 it  10 1.00000000   0.347E-11       0.013     2202.827   0.100E-11
     Final TRS4 iteration   10 1.00000000   0.347E-11
     Chemical potential (mu):       0.05723
 
 PAO| energy:  -191.61429000786725      penalty:   5.0856225490243309E-004
 PAO|CG| trace_G_new   0.71137168450688737     
 PAO|CG| trace_G_prev    4.3879460098549288     
 PAO|CG| trace_G_mix   -4.3387532272449646E-002
 PAO|CG| trace_D    4.3879460098549288     
 PAO|CG| trace_D_Gnew   4.3387532272449646E-002
 PAO|CG| beta:   0.17200740735738687     
 PAO| norm of gradient:  0.84342852957846248     
 PAO| energy improvement: -0.44652580541512066     
 PAO| step      9                 -191.614290008  0.165E-02  0.206E+00     1.538
 PAO|LS| adapt:  T F F
 PAO|LS| adapt: scan_steps:    0.0000000000000000        0.0000000000000000        0.0000000000000000     
 PAO|LS| adapt: energies:   -191.61429000786725        0.0000000000000000        0.0000000000000000     
 PAO| ======================= Iteration:        10 =============================

     Lanczos converged:  F threshold:   0.100E-02
     Est. extremal eigenvalues:    0.500E+01   0.126E+00
     Est. condition number :    0.397E+02

 Order=           3
     NS sqrt iter    1 1.00000000   0.128E+01       0.021     2715.771
     NS sqrt iter    2 1.00000000   0.659E+00       0.034     3354.063
     NS sqrt iter    3 1.00000000   0.218E+00       0.034     3377.485
     NS sqrt iter    4 1.00000000   0.312E-01       0.034     3373.027
     NS sqrt iter    5 1.00000000   0.202E-03       0.034     3343.274
     NS sqrt iter    6 1.00000000   0.150E-09       0.027     2554.922
     Symmetrizing Results
     Final NS sqrt iter    6 1.00000000   0.126E-11

     Est. extremal eigenvalues     -0.84371     2.63901  converged:  T
     TRS4 it   1 1.00000000   0.286E+02       0.007     2140.119   0.100E-11
     TRS4 it   2 1.00000000   0.237E+02       0.013     2175.064   0.100E-11
     TRS4 it   3 1.00000000   0.156E+02       0.013     2213.948   0.100E-11
     TRS4 it   4 1.00000000   0.910E+01       0.013     2228.078   0.100E-11
     TRS4 it   5 1.00000000   0.381E+01       0.013     2202.926   0.100E-11
     TRS4 it   6 1.00000000   0.984E+00       0.013     2213.709   0.100E-11
     TRS4 it   7 1.00000000   0.119E+00       0.013     2198.661   0.100E-11
     TRS4 it   8 1.00000000   0.251E-02       0.013     2192.002   0.100E-11
     TRS4 it   9 1.00000000   0.167E-05       0.013     2204.485   0.100E-11
     TRS4 it  10 1.00000000   0.288E-11       0.013     2193.672   0.100E-11
     Final TRS4 iteration   10 1.00000000   0.288E-11
     Chemical potential (mu):       0.05797
 
 PAO| energy:  -191.71316271729000      penalty:   5.1062753237073716E-004
 PAO|LS| adapt:  T T F
 PAO|LS| adapt: scan_steps:    0.0000000000000000       0.20608956285290392        0.0000000000000000     
 PAO|LS| adapt: energies:   -191.61429000786725       -191.71316271729000        0.0000000000000000     
 PAO| ======================= Iteration:        11 =============================

     Lanczos converged:  F threshold:   0.100E-02
     Est. extremal eigenvalues:    0.495E+01   0.130E+00
     Est. condition number :    0.382E+02

 Order=           3
     NS sqrt iter    1 1.00000000   0.127E+01       0.021     2704.309
     NS sqrt iter    2 1.00000000   0.651E+00       0.034     3378.678
     NS sqrt iter    3 1.00000000   0.213E+00       0.033     3399.450
     NS sqrt iter    4 1.00000000   0.291E-01       0.033     3384.625
     NS sqrt iter    5 1.00000000   0.164E-03       0.033     3381.183
     NS sqrt iter    6 1.00000000   0.808E-10       0.024     2419.694
     Symmetrizing Results
     Final NS sqrt iter    6 1.00000000   0.196E-11

     Est. extremal eigenvalues     -0.84401     2.63187  converged:  T
     TRS4 it   1 1.00000000   0.286E+02       0.007     2127.570   0.100E-11
     TRS4 it   2 1.00000000   0.237E+02       0.013     2202.614   0.100E-11
     TRS4 it   3 1.00000000   0.156E+02       0.013     2181.884   0.100E-11
     TRS4 it   4 1.00000000   0.908E+01       0.013     2212.686   0.100E-11
     TRS4 it   5 1.00000000   0.379E+01       0.013     2198.175   0.100E-11
     TRS4 it   6 1.00000000   0.971E+00       0.013     2214.300   0.100E-11
     TRS4 it   7 1.00000000   0.116E+00       0.013     2201.728   0.100E-11
     TRS4 it   8 1.00000000   0.238E-02       0.013     2200.561   0.100E-11
     TRS4 it   9 1.00000000   0.151E-05       0.013     2188.893   0.100E-11
     TRS4 it  10 1.00000000   0.238E-11       0.013     2208.368   0.100E-11
     Final TRS4 iteration   10 1.00000000   0.238E-11
     Chemical potential (mu):       0.05880
 
 PAO| energy:  -191.72212947999463      penalty:   5.2254734222074355E-004
 PAO|LS| adapt:  T T F
 PAO|LS| adapt: scan_steps:    0.0000000000000000       0.41217912570580784        0.0000000000000000     
 PAO|LS| adapt: energies:   -191.61429000786725       -191.72212947999463        0.0000000000000000     
 PAO| ======================= Iteration:        12 =============================

     Lanczos converged:  F threshold:   0.100E-02
     Est. extremal eigenvalues:    0.486E+01   0.135E+00
     Est. condition number :    0.359E+02

 Order=           3
     NS sqrt iter    1 1.00000000   0.125E+01       0.021     2691.338
     NS sqrt iter    2 1.00000000   0.636E+00       0.033     3395.831
     NS sqrt iter    3 1.00000000   0.203E+00       0.034     3374.937
     NS sqrt iter    4 1.00000000   0.253E-01       0.034     3365.834
     NS sqrt iter    5 1.00000000   0.108E-03       0.034     3358.339
     NS sqrt iter    6 1.00000000   0.232E-10       0.017     2204.818
     Symmetrizing Results
     Final NS sqrt iter    6 1.00000000   0.215E-11

     Est. extremal eigenvalues     -0.84383     2.62082  converged:  T
     TRS4 it   1 1.00000000   0.286E+02       0.007     2169.858   0.100E-11
     TRS4 it   2 1.00000000   0.236E+02       0.013     2193.521   0.100E-11
     TRS4 it   3 1.00000000   0.156E+02       0.013     2225.593   0.100E-11
     TRS4 it   4 1.00000000   0.904E+01       0.013     2206.896   0.100E-11
     TRS4 it   5 1.00000000   0.374E+01       0.013     2205.008   0.100E-11
     TRS4 it   6 1.00000000   0.944E+00       0.013     2213.740   0.100E-11
     TRS4 it   7 1.00000000   0.109E+00       0.013     2203.042   0.100E-11
     TRS4 it   8 1.00000000   0.210E-02       0.013     2187.257   0.100E-11
     TRS4 it   9 1.00000000   0.121E-05       0.013     2218.167   0.100E-11
     TRS4 it  10 1.00000000   0.156E-11       0.013     2199.665   0.100E-11
     Final TRS4 iteration   10 1.00000000   0.156E-11
     Chemical potential (mu):       0.06071
 
 PAO| energy:  -191.48614349201770      penalty:   5.8275435919870149E-004
 PAO|LS| Need extra step
 PAO|LS| adapt:  T T T
 PAO|LS| adapt: scan_steps:    0.0000000000000000       0.41217912570580784       0.82435825141161567     
 PAO|LS| adapt: energies:   -191.61429000786725       -191.72212947999463       -191.48614349201770     
 PAO|LS| adapt: suggested step_size:   0.33536788716476362     
 PAO|LS| adapt: predicted energy  -191.72809963470604     
 PAO| ======================= Iteration:        13 =============================

     Lanczos converged:  F threshold:   0.100E-02
     Est. extremal eigenvalues:    0.497E+01   0.128E+00
     Est. condition number :    0.388E+02

 Order=           3
     NS sqrt iter    1 1.00000000   0.128E+01       0.021     2722.916
     NS sqrt iter    2 1.00000000   0.654E+00       0.034     3368.676
     NS sqrt iter    3 1.00000000   0.215E+00       0.034     3363.993
     NS sqrt iter    4 1.00000000   0.298E-01       0.034     3345.864
     NS sqrt iter    5 1.00000000   0.177E-03       0.033     3382.167
     NS sqrt iter    6 1.00000000   0.102E-09       0.025     2478.591
     Symmetrizing Results
     Final NS sqrt iter    6 1.00000000   0.175E-11

     Est. extremal eigenvalues     -0.84393     2.63435  converged:  T
     TRS4 it   1 1.00000000   0.286E+02       0.007     2133.669   0.100E-11
     TRS4 it   2 1.00000000   0.237E+02       0.013     2165.371   0.100E-11
     TRS4 it   3 1.00000000   0.156E+02       0.013     2183.188   0.100E-11
     TRS4 it   4 1.00000000   0.909E+01       0.013     2211.369   0.100E-11
     TRS4 it   5 1.00000000   0.379E+01       0.013     2218.888   0.100E-11
     TRS4 it   6 1.00000000   0.976E+00       0.013     2191.850   0.100E-11
     TRS4 it   7 1.00000000   0.117E+00       0.013     2190.797   0.100E-11
     TRS4 it   8 1.00000000   0.243E-02       0.013     2169.382   0.100E-11
     TRS4 it   9 1.00000000   0.157E-05       0.013     2215.874   0.100E-11
     TRS4 it  10 1.00000000   0.256E-11       0.013     2203.485   0.100E-11
     Final TRS4 iteration   10 1.00000000   0.256E-11
     Chemical potential (mu):       0.05848
 
 PAO| energy:  -191.72905407754581      penalty:   5.1687474039032507E-004
 PAO|CG| trace_G_new   0.28172455825251935     
 PAO|CG| trace_G_prev   0.71137168450688737     
 PAO|CG| trace_G_mix   -1.2019618741319495E-002
 PAO|CG| trace_D   0.82626990668855504     
 PAO|CG| trace_D_Gnew   1.1479759078570569E-002
 PAO|CG| beta:   0.41292643970986576     
 PAO| norm of gradient:  0.53077731512614534     
 PAO| energy improvement: -0.11476406967855723     
 PAO| step     13                 -191.729054078  0.104E-02  0.335E+00     1.983
 PAO|LS| adapt:  T F F
 PAO|LS| adapt: scan_steps:    0.0000000000000000        0.0000000000000000        0.0000000000000000     
 PAO|LS| adapt: energies:   -191.72905407754581        0.0000000000000000        0.0000000000000000     
 PAO| ======================= Iteration:        14 =============================

     Lanczos converged:  F threshold:   0.100E-02
     Est. extremal eigenvalues:    0.490E+01   0.131E+00
     Est. condition number :    0.374E+02

 Order=           3
     NS sqrt iter    1 1.00000000   0.126E+01       0.021     2692.571
     NS sqrt iter    2 1.00000000   0.644E+00       0.033     3383.724
     NS sqrt iter    3 1.00000000   0.209E+00       0.033     3393.608
     NS sqrt iter    4 1.00000000   0.276E-01       0.033     3388.980
     NS sqrt iter    5 1.00000000   0.143E-03       0.033     3395.728
     NS sqrt iter    6 1.00000000   0.547E-10       0.022     2350.402
     Symmetrizing Results
     Final NS sqrt iter    6 1.00000000   0.214E-11

     Est. extremal eigenvalues     -0.84436     2.62913  converged:  T
     TRS4 it   1 1.00000000   0.286E+02       0.007     2102.084   0.100E-11
     TRS4 it   2 1.00000000   0.237E+02       0.013     2180.956   0.100E-11
     TRS4 it   3 1.00000000   0.156E+02       0.013     2196.038   0.100E-11
     TRS4 it   4 1.00000000   0.903E+01       0.013     2186.668   0.100E-11
     TRS4 it   5 1.00000000   0.374E+01       0.013     2186.361   0.100E-11
     TRS4 it   6 1.00000000   0.947E+00       0.013     2186.010   0.100E-11
     TRS4 it   7 1.00000000   0.110E+00       0.013     2210.861   0.100E-11
     TRS4 it   8 1.00000000   0.215E-02       0.013     2199.952   0.100E-11
     TRS4 it   9 1.00000000   0.125E-05       0.013     2177.893   0.100E-11
     TRS4 it  10 1.00000000   0.163E-11       0.013     2202.409   0.100E-11
     Final TRS4 iteration   10 1.00000000   0.163E-11
     Chemical potential (mu):       0.06030
 
 PAO| energy:  -191.78274134830804      penalty:   5.1933640472610616E-004
 PAO|LS| adapt:  T T F
 PAO|LS| adapt: scan_steps:    0.0000000000000000       0.33536788716476362        0.0000000000000000     
 PAO|LS| adapt: energies:   -191.72905407754581       -191.78274134830804        0.0000000000000000     
 PAO| ======================= Iteration:        15 =============================

     Lanczos converged:  T threshold:   0.100E-02
     Est. extremal eigenvalues:    0.483E+01   0.134E+00
     Est. condition number :    0.361E+02

 Order=           3
     NS sqrt iter    1 1.00000000   0.125E+01       0.021     2699.931
     NS sqrt iter    2 1.00000000   0.633E+00       0.033     3386.624
     NS sqrt iter    3 1.00000000   0.202E+00       0.034     3368.645
     NS sqrt iter    4 1.00000000   0.256E-01       0.033     3380.782
     NS sqrt iter    5 1.00000000   0.116E-03       0.034     3374.759
     NS sqrt iter    6 1.00000000   0.299E-10       0.019     2224.955
     Symmetrizing Results
     Final NS sqrt iter    6 1.00000000   0.215E-11

     Est. extremal eigenvalues     -0.84442     2.62373  converged:  T
     TRS4 it   1 1.00000000   0.287E+02       0.007     2135.049   0.100E-11
     TRS4 it   2 1.00000000   0.236E+02       0.013     2216.450   0.100E-11
     TRS4 it   3 1.00000000   0.155E+02       0.013     2195.230   0.100E-11
     TRS4 it   4 1.00000000   0.897E+01       0.013     2213.387   0.100E-11
     TRS4 it   5 1.00000000   0.368E+01       0.013     2226.124   0.100E-11
     TRS4 it   6 1.00000000   0.918E+00       0.013     2221.604   0.100E-11
     TRS4 it   7 1.00000000   0.104E+00       0.013     2195.889   0.100E-11
     TRS4 it   8 1.00000000   0.191E-02       0.013     2212.334   0.100E-11
     TRS4 it   9 1.00000000   0.993E-06       0.013     2161.004   0.100E-11
     TRS4 it  10 1.00000000   0.106E-11       0.013     2244.952   0.100E-11
     Final TRS4 iteration   10 1.00000000   0.106E-11
     Chemical potential (mu):       0.06201
 
 PAO| energy:  -191.75922215422887      penalty:   5.3822882824584742E-004
 PAO|LS| adapt:  T T T
 PAO|LS| adapt: scan_steps:    0.0000000000000000       0.33536788716476362       0.67073577432952725     
 PAO|LS| adapt: energies:   -191.72905407754581       -191.78274134830804       -191.75922215422887     
 PAO|LS| adapt: suggested step_size:   0.40088962914456111     
 PAO|LS| adapt: predicted energy  -191.78421485323508     
 PAO| ======================= Iteration:        16 =============================

     Lanczos converged:  F threshold:   0.100E-02
     Est. extremal eigenvalues:    0.489E+01   0.132E+00
     Est. condition number :    0.371E+02

 Order=           3
     NS sqrt iter    1 1.00000000   0.126E+01       0.021     2688.289
     NS sqrt iter    2 1.00000000   0.641E+00       0.034     3371.237
     NS sqrt iter    3 1.00000000   0.207E+00       0.033     3394.250
     NS sqrt iter    4 1.00000000   0.272E-01       0.034     3369.148
     NS sqrt iter    5 1.00000000   0.137E-03       0.034     3378.731
     NS sqrt iter    6 1.00000000   0.486E-10       0.022     2318.269
     Symmetrizing Results
     Final NS sqrt iter    6 1.00000000   0.219E-11

     Est. extremal eigenvalues     -0.84440     2.62809  converged:  T
     TRS4 it   1 1.00000000   0.286E+02       0.007     2097.835   0.100E-11
     TRS4 it   2 1.00000000   0.237E+02       0.013     2196.821   0.100E-11
     TRS4 it   3 1.00000000   0.156E+02       0.013     2201.387   0.100E-11
     TRS4 it   4 1.00000000   0.902E+01       0.013     2233.563   0.100E-11
     TRS4 it   5 1.00000000   0.373E+01       0.013     2194.395   0.100E-11
     TRS4 it   6 1.00000000   0.941E+00       0.013     2217.034   0.100E-11
     TRS4 it   7 1.00000000   0.109E+00       0.013     2215.665   0.100E-11
     TRS4 it   8 1.00000000   0.210E-02       0.013     2192.110   0.100E-11
     TRS4 it   9 1.00000000   0.119E-05       0.013     2205.652   0.100E-11
     TRS4 it  10 1.00000000   0.147E-11       0.013     2212.098   0.100E-11
     Final TRS4 iteration   10 1.00000000   0.147E-11
     Chemical potential (mu):       0.06064
 
 PAO| energy:  -191.78415719332767      penalty:   5.2168316653241481E-004
 PAO|CG| trace_G_new   0.10838580887208682     
 PAO|CG| trace_G_prev   0.28172455825251935     
 PAO|CG| trace_G_mix    4.2940779427305771E-003
 PAO|CG| trace_D   0.41312979752718193     
 PAO|CG| trace_D_Gnew   8.1306235535796422E-004
 PAO|CG| beta:   0.36948050100785057     
 PAO| norm of gradient:  0.32922000071697771     
 PAO| energy improvement:  -5.5103115781861334E-002
 PAO| step     16                 -191.784157193  0.643E-03  0.401E+00     1.521
 PAO|LS| adapt:  T F F
 PAO|LS| adapt: scan_steps:    0.0000000000000000        0.0000000000000000        0.0000000000000000     
 PAO|LS| adapt: energies:   -191.78415719332767        0.0000000000000000        0.0000000000000000     
 PAO| ======================= Iteration:        17 =============================

     Lanczos converged:  F threshold:   0.100E-02
     Est. extremal eigenvalues:    0.485E+01   0.132E+00
     Est. condition number :    0.367E+02

 Order=           3
     NS sqrt iter    1 1.00000000   0.125E+01       0.021     2706.241
     NS sqrt iter    2 1.00000000   0.637E+00       0.034     3369.544
     NS sqrt iter    3 1.00000000   0.205E+00       0.033     3387.839
     NS sqrt iter    4 1.00000000   0.264E-01       0.033     3381.757
     NS sqrt iter    5 1.00000000   0.126E-03       0.034     3359.170
     NS sqrt iter    6 1.00000000   0.384E-10       0.020     2286.632
     Symmetrizing Results
     Final NS sqrt iter    6 1.00000000   0.221E-11

     Est. extremal eigenvalues     -0.84445     2.62924  converged:  T
     TRS4 it   1 1.00000000   0.287E+02       0.007     2121.923   0.100E-11
     TRS4 it   2 1.00000000   0.237E+02       0.013     2210.645   0.100E-11
     TRS4 it   3 1.00000000   0.155E+02       0.013     2209.719   0.100E-11
     TRS4 it   4 1.00000000   0.898E+01       0.013     2209.888   0.100E-11
     TRS4 it   5 1.00000000   0.369E+01       0.013     2193.528   0.100E-11
     TRS4 it   6 1.00000000   0.921E+00       0.013     2225.588   0.100E-11
     TRS4 it   7 1.00000000   0.105E+00       0.013     2212.435   0.100E-11
     TRS4 it   8 1.00000000   0.194E-02       0.013     2216.560   0.100E-11
     TRS4 it   9 1.00000000   0.102E-05       0.013     2202.772   0.100E-11
     TRS4 it  10 1.00000000   0.108E-11       0.013     2186.410   0.100E-11
     Final TRS4 iteration   10 1.00000000   0.108E-11
     Chemical potential (mu):       0.06177
 
 PAO| energy:  -191.78835782153021      penalty:   5.1475829390974055E-004
 PAO|LS| adapt:  T T F
 PAO|LS| adapt: scan_steps:    0.0000000000000000       0.40088962914456111        0.0000000000000000     
 PAO|LS| adapt: energies:   -191.78415719332767       -191.78835782153021        0.0000000000000000     
 PAO| ======================= Iteration:        18 =============================

     Lanczos converged:  F threshold:   0.100E-02
     Est. extremal eigenvalues:    0.482E+01   0.132E+00
     Est. condition number :    0.365E+02

 Order=           3
     NS sqrt iter    1 1.00000000   0.124E+01       0.021     2709.790
     NS sqrt iter    2 1.00000000   0.632E+00       0.034     3366.647
     NS sqrt iter    3 1.00000000   0.202E+00       0.034     3364.229
     NS sqrt iter    4 1.00000000   0.256E-01       0.033     3382.256
     NS sqrt iter    5 1.00000000   0.116E-03       0.033     3389.425
     NS sqrt iter    6 1.00000000   0.308E-10       0.019     2236.996
     Symmetrizing Results
     Final NS sqrt iter    6 1.00000000   0.220E-11

     Est. extremal eigenvalues     -0.84435     2.63060  converged:  T
     TRS4 it   1 1.00000000   0.287E+02       0.007     2094.957   0.100E-11
     TRS4 it   2 1.00000000   0.237E+02       0.013     2200.791   0.100E-11
     TRS4 it   3 1.00000000   0.155E+02       0.013     2210.557   0.100E-11
     TRS4 it   4 1.00000000   0.893E+01       0.013     2216.723   0.100E-11
     TRS4 it   5 1.00000000   0.365E+01       0.013     2200.157   0.100E-11
     TRS4 it   6 1.00000000   0.903E+00       0.013     2181.478   0.100E-11
     TRS4 it   7 1.00000000   0.101E+00       0.013     2221.592   0.100E-11
     TRS4 it   8 1.00000000   0.179E-02       0.013     2214.158   0.100E-11
     TRS4 it   9 1.00000000   0.883E-06       0.013     2194.595   0.100E-11
     TRS4 it  10 1.00000000   0.846E-12       0.013     2221.734   0.100E-11
     Final TRS4 iteration   10 1.00000000   0.846E-12
     Chemical potential (mu):       0.06299
 
 PAO| energy:  -191.71412400233837      penalty:   5.1632769387883473E-004
 PAO|LS| adapt:  T T T
 PAO|LS| adapt: scan_steps:    0.0000000000000000       0.40088962914456111       0.80177925828912222     
 PAO|LS| adapt: energies:   -191.78415719332767       -191.78835782153021       -191.71412400233837     
 PAO|LS| adapt: suggested step_size:   0.22191482345527647     
 PAO|LS| adapt: predicted energy  -191.79617429758613     
 PAO| ======================= Iteration:        19 =============================

     Lanczos converged:  T threshold:   0.100E-02
     Est. extremal eigenvalues:    0.487E+01   0.132E+00
     Est. condition number :    0.368E+02

 Order=           3
     NS sqrt iter    1 1.00000000   0.125E+01       0.021     2717.472
     NS sqrt iter    2 1.00000000   0.639E+00       0.034     3364.005
     NS sqrt iter    3 1.00000000   0.206E+00       0.033     3388.135
     NS sqrt iter    4 1.00000000   0.267E-01       0.033     3396.083
     NS sqrt iter    5 1.00000000   0.131E-03       0.034     3361.994
     NS sqrt iter    6 1.00000000   0.426E-10       0.021     2296.435
     Symmetrizing Results
     Final NS sqrt iter    6 1.00000000   0.221E-11

     Est. extremal eigenvalues     -0.84444     2.62870  converged:  T
     TRS4 it   1 1.00000000   0.287E+02       0.007     2122.518   0.100E-11
     TRS4 it   2 1.00000000   0.237E+02       0.013     2197.875   0.100E-11
     TRS4 it   3 1.00000000   0.155E+02       0.013     2211.849   0.100E-11
     TRS4 it   4 1.00000000   0.900E+01       0.013     2191.494   0.100E-11
     TRS4 it   5 1.00000000   0.370E+01       0.013     2213.086   0.100E-11
     TRS4 it   6 1.00000000   0.930E+00       0.013     2194.467   0.100E-11
     TRS4 it   7 1.00000000   0.106E+00       0.013     2209.556   0.100E-11
     TRS4 it   8 1.00000000   0.201E-02       0.013     2219.127   0.100E-11
     TRS4 it   9 1.00000000   0.109E-05       0.013     2192.575   0.100E-11
     TRS4 it  10 1.00000000   0.130E-11       0.013     2200.068   0.100E-11
     Final TRS4 iteration   10 1.00000000   0.130E-11
     Chemical potential (mu):       0.06125
 
 PAO| energy:  -191.79616072737548      penalty:   5.1681984615319630E-004
 PAO|CG| trace_G_new    2.3042550820372237E-002
 PAO|CG| trace_G_prev   0.10838580887208682     
 PAO|CG| trace_G_mix   -3.6087391436671564E-004
 PAO|CG| trace_D   0.16418374909593464     
 PAO|CG| trace_D_Gnew  -4.7450440336274918E-005
 PAO|CG| beta:   0.21592702013562370     
 PAO| norm of gradient:  0.15179772995790233     
 PAO| energy improvement:  -1.2003534047806852E-002
 PAO| step     19                 -191.796160727  0.296E-03  0.222E+00     1.516
 PAO|LS| adapt:  T F F
 PAO|LS| adapt: scan_steps:    0.0000000000000000        0.0000000000000000        0.0000000000000000     
 PAO|LS| adapt: energies:   -191.79616072737548        0.0000000000000000        0.0000000000000000     
 PAO| ======================= Iteration:        20 =============================

     Lanczos converged:  T threshold:   0.100E-02
     Est. extremal eigenvalues:    0.486E+01   0.132E+00
     Est. condition number :    0.369E+02

 Order=           3
     NS sqrt iter    1 1.00000000   0.125E+01       0.021     2719.721
     NS sqrt iter    2 1.00000000   0.639E+00       0.033     3390.818
     NS sqrt iter    3 1.00000000   0.206E+00       0.033     3394.725
     NS sqrt iter    4 1.00000000   0.267E-01       0.033     3386.277
     NS sqrt iter    5 1.00000000   0.131E-03       0.034     3356.002
     NS sqrt iter    6 1.00000000   0.426E-10       0.021     2300.258
     Symmetrizing Results
     Final NS sqrt iter    6 1.00000000   0.221E-11

     Est. extremal eigenvalues     -0.84445     2.62882  converged:  T
     TRS4 it   1 1.00000000   0.287E+02       0.007     2131.506   0.100E-11
     TRS4 it   2 1.00000000   0.237E+02       0.013     2225.398   0.100E-11
     TRS4 it   3 1.00000000   0.155E+02       0.013     2202.516   0.100E-11
     TRS4 it   4 1.00000000   0.898E+01       0.013     2196.394   0.100E-11
     TRS4 it   5 1.00000000   0.369E+01       0.013     2205.054   0.100E-11
     TRS4 it   6 1.00000000   0.926E+00       0.013     2213.077   0.100E-11
     TRS4 it   7 1.00000000   0.106E+00       0.013     2160.719   0.100E-11
     TRS4 it   8 1.00000000   0.198E-02       0.013     2195.963   0.100E-11
     TRS4 it   9 1.00000000   0.106E-05       0.013     2185.520   0.100E-11
     TRS4 it  10 1.00000000   0.120E-11       0.013     2183.821   0.100E-11
     Final TRS4 iteration   10 1.00000000   0.120E-11
     Chemical potential (mu):       0.06145
 
 PAO| energy:  -191.80030480011428      penalty:   5.0691081157401758E-004
 PAO|LS| adapt:  T T F
 PAO|LS| adapt: scan_steps:    0.0000000000000000       0.22191482345527647        0.0000000000000000     
 PAO|LS| adapt: energies:   -191.79616072737548       -191.80030480011428        0.0000000000000000     
 PAO| ======================= Iteration:        21 =============================

     Lanczos converged:  F threshold:   0.100E-02
     Est. extremal eigenvalues:    0.486E+01   0.132E+00
     Est. condition number :    0.369E+02

 Order=           3
     NS sqrt iter    1 1.00000000   0.125E+01       0.021     2690.129
     NS sqrt iter    2 1.00000000   0.638E+00       0.034     3358.960
     NS sqrt iter    3 1.00000000   0.206E+00       0.034     3371.797
     NS sqrt iter    4 1.00000000   0.268E-01       0.034     3324.528
     NS sqrt iter    5 1.00000000   0.131E-03       0.034     3356.305
     NS sqrt iter    6 1.00000000   0.426E-10       0.021     2281.547
     Symmetrizing Results
     Final NS sqrt iter    6 1.00000000   0.221E-11

     Est. extremal eigenvalues     -0.84445     2.62897  converged:  T
     TRS4 it   1 1.00000000   0.287E+02       0.007     2157.629   0.100E-11
     TRS4 it   2 1.00000000   0.236E+02       0.013     2219.935   0.100E-11
     TRS4 it   3 1.00000000   0.155E+02       0.013     2197.961   0.100E-11
     TRS4 it   4 1.00000000   0.897E+01       0.013     2221.365   0.100E-11
     TRS4 it   5 1.00000000   0.369E+01       0.013     2174.319   0.100E-11
     TRS4 it   6 1.00000000   0.922E+00       0.013     2196.631   0.100E-11
     TRS4 it   7 1.00000000   0.105E+00       0.013     2201.585   0.100E-11
     TRS4 it   8 1.00000000   0.195E-02       0.013     2206.601   0.100E-11
     TRS4 it   9 1.00000000   0.103E-05       0.013     2193.932   0.100E-11
     TRS4 it  10 1.00000000   0.114E-11       0.013     2201.528   0.100E-11
     Final TRS4 iteration   10 1.00000000   0.114E-11
     Chemical potential (mu):       0.06164
 
 PAO| energy:  -191.80249041957737      penalty:   4.9747714549492120E-004
 PAO|LS| adapt:  T T F
 PAO|LS| adapt: scan_steps:    0.0000000000000000       0.44382964691055293        0.0000000000000000     
 PAO|LS| adapt: energies:   -191.79616072737548       -191.80249041957737        0.0000000000000000     
 PAO| ======================= Iteration:        22 =============================

     Lanczos converged:  F threshold:   0.100E-02
     Est. extremal eigenvalues:    0.485E+01   0.131E+00
     Est. condition number :    0.370E+02

 Order=           3
     NS sqrt iter    1 1.00000000   0.125E+01       0.021     2684.308
     NS sqrt iter    2 1.00000000   0.638E+00       0.034     3367.946
     NS sqrt iter    3 1.00000000   0.206E+00       0.034     3367.553
     NS sqrt iter    4 1.00000000   0.268E-01       0.033     3391.320
     NS sqrt iter    5 1.00000000   0.131E-03       0.034     3372.876
     NS sqrt iter    6 1.00000000   0.427E-10       0.021     2300.942
     Symmetrizing Results
     Final NS sqrt iter    6 1.00000000   0.222E-11

     Est. extremal eigenvalues     -0.84446     2.62935  converged:  T
     TRS4 it   1 1.00000000   0.287E+02       0.007     2108.744   0.100E-11
     TRS4 it   2 1.00000000   0.236E+02       0.013     2174.069   0.100E-11
     TRS4 it   3 1.00000000   0.155E+02       0.013     2210.073   0.100E-11
     TRS4 it   4 1.00000000   0.895E+01       0.013     2182.928   0.100E-11
     TRS4 it   5 1.00000000   0.367E+01       0.013     2218.266   0.100E-11
     TRS4 it   6 1.00000000   0.914E+00       0.013     2185.958   0.100E-11
     TRS4 it   7 1.00000000   0.103E+00       0.013     2190.835   0.100E-11
     TRS4 it   8 1.00000000   0.189E-02       0.013     2187.632   0.100E-11
     TRS4 it   9 1.00000000   0.974E-06       0.013     2174.324   0.100E-11
     TRS4 it  10 1.00000000   0.103E-11       0.013     2203.755   0.100E-11
     Final TRS4 iteration   10 1.00000000   0.103E-11
     Chemical potential (mu):       0.06204
 
 PAO| energy:  -191.80089493506935      penalty:   4.8000589165954436E-004
 PAO|LS| Need extra step
 PAO|LS| adapt:  T T T
 PAO|LS| adapt: scan_steps:    0.0000000000000000       0.44382964691055293       0.88765929382110587     
 PAO|LS| adapt: energies:   -191.79616072737548       -191.80249041957737       -191.80089493506935     
 PAO|LS| adapt: suggested step_size:   0.57639336164429655     
 PAO|LS| adapt: predicted energy  -191.80284392466800     
 PAO| ======================= Iteration:        23 =============================

     Lanczos converged:  F threshold:   0.100E-02
     Est. extremal eigenvalues:    0.486E+01   0.131E+00
     Est. condition number :    0.369E+02

 Order=           3
     NS sqrt iter    1 1.00000000   0.125E+01       0.021     2710.882
     NS sqrt iter    2 1.00000000   0.638E+00       0.033     3380.777
     NS sqrt iter    3 1.00000000   0.206E+00       0.034     3367.952
     NS sqrt iter    4 1.00000000   0.268E-01       0.033     3394.352
     NS sqrt iter    5 1.00000000   0.131E-03       0.034     3371.638
     NS sqrt iter    6 1.00000000   0.426E-10       0.021     2300.382
     Symmetrizing Results
     Final NS sqrt iter    6 1.00000000   0.222E-11

     Est. extremal eigenvalues     -0.84445     2.62908  converged:  T
     TRS4 it   1 1.00000000   0.287E+02       0.007     2154.738   0.100E-11
     TRS4 it   2 1.00000000   0.236E+02       0.013     2189.235   0.100E-11
     TRS4 it   3 1.00000000   0.155E+02       0.013     2212.084   0.100E-11
     TRS4 it   4 1.00000000   0.897E+01       0.013     2206.052   0.100E-11
     TRS4 it   5 1.00000000   0.368E+01       0.013     2223.378   0.100E-11
     TRS4 it   6 1.00000000   0.919E+00       0.013     2183.308   0.100E-11
     TRS4 it   7 1.00000000   0.104E+00       0.013     2199.252   0.100E-11
     TRS4 it   8 1.00000000   0.193E-02       0.013     2195.274   0.100E-11
     TRS4 it   9 1.00000000   0.101E-05       0.013     2231.318   0.100E-11
     TRS4 it  10 1.00000000   0.107E-11       0.013     2201.048   0.100E-11
     Final TRS4 iteration   10 1.00000000   0.107E-11
     Chemical potential (mu):       0.06176
 
 PAO| energy:  -191.80285223964884      penalty:   4.9206526071351368E-004
 PAO|CG| trace_G_new    1.8058802400777868E-002
 PAO|CG| trace_G_prev    2.3042550820372237E-002
 PAO|CG| trace_G_mix    1.2391107434114347E-004
 PAO|CG| trace_D    3.0718024086472166E-002
 PAO|CG| trace_D_Gnew  -5.0520726134011939E-005
 PAO|CG| beta:   0.77833793082405800     
 PAO| norm of gradient:  0.13438304357610698     
 PAO| energy improvement:  -6.6915122733632870E-003
 PAO| step     23                 -191.802852240  0.262E-03  0.576E+00     1.974
 PAO|LS| adapt:  T F F
 PAO|LS| adapt: scan_steps:    0.0000000000000000        0.0000000000000000        0.0000000000000000     
 PAO|LS| adapt: energies:   -191.80285223964884        0.0000000000000000        0.0000000000000000     
 PAO| ======================= Iteration:        24 =============================

     Lanczos converged:  F threshold:   0.100E-02
     Est. extremal eigenvalues:    0.485E+01   0.131E+00
     Est. condition number :    0.371E+02

 Order=           3
     NS sqrt iter    1 1.00000000   0.125E+01       0.021     2693.230
     NS sqrt iter    2 1.00000000   0.637E+00       0.033     3388.341
     NS sqrt iter    3 1.00000000   0.206E+00       0.034     3376.995
     NS sqrt iter    4 1.00000000   0.268E-01       0.034     3360.993
     NS sqrt iter    5 1.00000000   0.131E-03       0.034     3347.616
     NS sqrt iter    6 1.00000000   0.434E-10       0.021     2291.124
     Symmetrizing Results
     Final NS sqrt iter    6 1.00000000   0.221E-11

     Est. extremal eigenvalues     -0.84447     2.62840  converged:  T
     TRS4 it   1 1.00000000   0.287E+02       0.007     2153.525   0.100E-11
     TRS4 it   2 1.00000000   0.236E+02       0.013     2198.236   0.100E-11
     TRS4 it   3 1.00000000   0.155E+02       0.013     2194.946   0.100E-11
     TRS4 it   4 1.00000000   0.894E+01       0.013     2205.022   0.100E-11
     TRS4 it   5 1.00000000   0.366E+01       0.013     2184.019   0.100E-11
     TRS4 it   6 1.00000000   0.910E+00       0.013     2216.996   0.100E-11
     TRS4 it   7 1.00000000   0.103E+00       0.013     2172.948   0.100E-11
     TRS4 it   8 1.00000000   0.187E-02       0.013     2207.683   0.100E-11
     TRS4 it   9 1.00000000   0.952E-06       0.013     2190.835   0.100E-11
     TRS4 it  10 1.00000000   0.970E-12       0.013     2204.258   0.100E-11
     Final TRS4 iteration   10 1.00000000   0.970E-12
     Chemical potential (mu):       0.06218
 
 PAO| energy:  -191.80640165184735      penalty:   4.5322670906533573E-004
 PAO|LS| adapt:  T T F
 PAO|LS| adapt: scan_steps:    0.0000000000000000       0.57639336164429655        0.0000000000000000     
 PAO|LS| adapt: energies:   -191.80285223964884       -191.80640165184735        0.0000000000000000     
 PAO| ======================= Iteration:        25 =============================

     Lanczos converged:  F threshold:   0.100E-02
     Est. extremal eigenvalues:    0.483E+01   0.130E+00
     Est. condition number :    0.372E+02

 Order=           3
     NS sqrt iter    1 1.00000000   0.124E+01       0.021     2701.932
     NS sqrt iter    2 1.00000000   0.636E+00       0.034     3376.621
     NS sqrt iter    3 1.00000000   0.205E+00       0.034     3370.238
     NS sqrt iter    4 1.00000000   0.268E-01       0.033     3398.919
     NS sqrt iter    5 1.00000000   0.132E-03       0.034     3368.979
     NS sqrt iter    6 1.00000000   0.446E-10       0.021     2308.627
     Symmetrizing Results
     Final NS sqrt iter    6 1.00000000   0.220E-11

     Est. extremal eigenvalues     -0.84447     2.62780  converged:  T
     TRS4 it   1 1.00000000   0.287E+02       0.007     2113.806   0.100E-11
     TRS4 it   2 1.00000000   0.236E+02       0.013     2198.053   0.100E-11
     TRS4 it   3 1.00000000   0.155E+02       0.013     2197.591   0.100E-11
     TRS4 it   4 1.00000000   0.892E+01       0.013     2214.110   0.100E-11
     TRS4 it   5 1.00000000   0.364E+01       0.013     2197.569   0.100E-11
     TRS4 it   6 1.00000000   0.902E+00       0.013     2200.847   0.100E-11
     TRS4 it   7 1.00000000   0.101E+00       0.013     2210.066   0.100E-11
     TRS4 it   8 1.00000000   0.181E-02       0.013     2206.432   0.100E-11
     TRS4 it   9 1.00000000   0.895E-06       0.013     2180.476   0.100E-11
     TRS4 it  10 1.00000000   0.876E-12       0.013     2213.769   0.100E-11
     Final TRS4 iteration   10 1.00000000   0.876E-12
     Chemical potential (mu):       0.06259
 
 PAO| energy:  -191.79592628856832      penalty:   4.1896070201327679E-004
 PAO|LS| adapt:  T T T
 PAO|LS| adapt: scan_steps:    0.0000000000000000       0.57639336164429655        1.1527867232885931     
 PAO|LS| adapt: energies:   -191.80285223964884       -191.80640165184735       -191.79592628856832     
 PAO|LS| adapt: suggested step_size:   0.43407121779687119     
 PAO|LS| adapt: predicted energy  -191.80682918808890     
 PAO| ======================= Iteration:        26 =============================

     Lanczos converged:  F threshold:   0.100E-02
     Est. extremal eigenvalues:    0.485E+01   0.131E+00
     Est. condition number :    0.370E+02

 Order=           3
     NS sqrt iter    1 1.00000000   0.125E+01       0.021     2732.999
     NS sqrt iter    2 1.00000000   0.637E+00       0.034     3366.890
     NS sqrt iter    3 1.00000000   0.206E+00       0.034     3373.690
     NS sqrt iter    4 1.00000000   0.268E-01       0.034     3377.254
     NS sqrt iter    5 1.00000000   0.131E-03       0.033     3413.408
     NS sqrt iter    6 1.00000000   0.432E-10       0.021     2294.563
     Symmetrizing Results
     Final NS sqrt iter    6 1.00000000   0.222E-11

     Est. extremal eigenvalues     -0.84446     2.62856  converged:  T
     TRS4 it   1 1.00000000   0.287E+02       0.007     2114.431   0.100E-11
     TRS4 it   2 1.00000000   0.236E+02       0.013     2201.498   0.100E-11
     TRS4 it   3 1.00000000   0.155E+02       0.013     2207.926   0.100E-11
     TRS4 it   4 1.00000000   0.895E+01       0.013     2183.980   0.100E-11
     TRS4 it   5 1.00000000   0.366E+01       0.013     2204.422   0.100E-11
     TRS4 it   6 1.00000000   0.913E+00       0.013     2198.877   0.100E-11
     TRS4 it   7 1.00000000   0.103E+00       0.013     2212.764   0.100E-11
     TRS4 it   8 1.00000000   0.188E-02       0.013     2185.778   0.100E-11
     TRS4 it   9 1.00000000   0.967E-06       0.013     2201.072   0.100E-11
     TRS4 it  10 1.00000000   0.961E-12       0.013     2197.786   0.100E-11
     Final TRS4 iteration   10 1.00000000   0.961E-12
     Chemical potential (mu):       0.06208
 
 PAO| energy:  -191.80681395247453      penalty:   4.6238323973857401E-004
 PAO|CG| trace_G_new    1.4534808105782487E-002
 PAO|CG| trace_G_prev    1.8058802400777868E-002
 PAO|CG| trace_G_mix    2.9800883816460185E-004
 PAO|CG| trace_D    3.6746730957285735E-002
 PAO|CG| trace_D_Gnew  -9.2819028068590780E-005
 PAO|CG| beta:   0.78835788507241467     
 PAO| norm of gradient:  0.12056039194437984     
 PAO| energy improvement:  -3.9617128256850265E-003
 PAO| step     26                 -191.806813952  0.235E-03  0.434E+00     1.520
 PAO|LS| adapt:  T F F
 PAO|LS| adapt: scan_steps:    0.0000000000000000        0.0000000000000000        0.0000000000000000     
 PAO|LS| adapt: energies:   -191.80681395247453        0.0000000000000000        0.0000000000000000     
 PAO| ======================= Iteration:        27 =============================

     Lanczos converged:  F threshold:   0.100E-02
     Est. extremal eigenvalues:    0.484E+01   0.130E+00
     Est. condition number :    0.372E+02

 Order=           3
     NS sqrt iter    1 1.00000000   0.124E+01       0.021     2689.451
     NS sqrt iter    2 1.00000000   0.635E+00       0.033     3398.282
     NS sqrt iter    3 1.00000000   0.205E+00       0.033     3389.237
     NS sqrt iter    4 1.00000000   0.267E-01       0.034     3379.153
     NS sqrt iter    5 1.00000000   0.131E-03       0.033     3386.858
     NS sqrt iter    6 1.00000000   0.441E-10       0.021     2318.125
     Symmetrizing Results
     Final NS sqrt iter    6 1.00000000   0.221E-11

     Est. extremal eigenvalues     -0.84448     2.62852  converged:  T
     TRS4 it   1 1.00000000   0.287E+02       0.007     2122.128   0.100E-11
     TRS4 it   2 1.00000000   0.236E+02       0.013     2191.287   0.100E-11
     TRS4 it   3 1.00000000   0.155E+02       0.013     2185.856   0.100E-11
     TRS4 it   4 1.00000000   0.893E+01       0.013     2184.653   0.100E-11
     TRS4 it   5 1.00000000   0.365E+01       0.013     2244.980   0.100E-11
     TRS4 it   6 1.00000000   0.905E+00       0.013     2184.039   0.100E-11
     TRS4 it   7 1.00000000   0.101E+00       0.013     2206.682   0.100E-11
     TRS4 it   8 1.00000000   0.182E-02       0.013     2212.308   0.100E-11
     TRS4 it   9 1.00000000   0.913E-06       0.013     2199.856   0.100E-11
     TRS4 it  10 1.00000000   0.897E-12       0.013     2206.208   0.100E-11
     Final TRS4 iteration   10 1.00000000   0.897E-12
     Chemical potential (mu):       0.06246
 
 PAO| energy:  -191.80977868971451      penalty:   4.2542932744639927E-004
 PAO|LS| adapt:  T T F
 PAO|LS| adapt: scan_steps:    0.0000000000000000       0.43407121779687119        0.0000000000000000     
 PAO|LS| adapt: energies:   -191.80681395247453       -191.80977868971451        0.0000000000000000     
 PAO| ======================= Iteration:        28 =============================

     Lanczos converged:  F threshold:   0.100E-02
     Est. extremal eigenvalues:    0.482E+01   0.129E+00
     Est. condition number :    0.373E+02

 Order=           3
     NS sqrt iter    1 1.00000000   0.124E+01       0.021     2707.093
     NS sqrt iter    2 1.00000000   0.634E+00       0.033     3394.208
     NS sqrt iter    3 1.00000000   0.204E+00       0.033     3380.779
     NS sqrt iter    4 1.00000000   0.266E-01       0.033     3382.954
     NS sqrt iter    5 1.00000000   0.132E-03       0.033     3403.243
     NS sqrt iter    6 1.00000000   0.453E-10       0.021     2323.605
     Symmetrizing Results
     Final NS sqrt iter    6 1.00000000   0.220E-11

     Est. extremal eigenvalues     -0.84449     2.62850  converged:  T
     TRS4 it   1 1.00000000   0.287E+02       0.007     2124.276   0.100E-11
     TRS4 it   2 1.00000000   0.236E+02       0.013     2195.516   0.100E-11
     TRS4 it   3 1.00000000   0.155E+02       0.013     2210.590   0.100E-11
     TRS4 it   4 1.00000000   0.891E+01       0.013     2194.952   0.100E-11
     TRS4 it   5 1.00000000   0.363E+01       0.013     2191.697   0.100E-11
     TRS4 it   6 1.00000000   0.897E+00       0.013     2204.830   0.100E-11
     TRS4 it   7 1.00000000   0.997E-01       0.013     2216.916   0.100E-11
     TRS4 it   8 1.00000000   0.177E-02       0.013     2192.941   0.100E-11
     TRS4 it   9 1.00000000   0.863E-06       0.013     2210.737   0.100E-11
     TRS4 it  10 1.00000000   0.766E-12       0.013     2192.924   0.100E-11
     Final TRS4 iteration   10 1.00000000   0.766E-12
     Chemical potential (mu):       0.06286
 
 PAO| energy:  -191.80592839141113      penalty:   3.9191340806508793E-004
 PAO|LS| adapt:  T T T
 PAO|LS| adapt: scan_steps:    0.0000000000000000       0.43407121779687119       0.86814243559374238     
 PAO|LS| adapt: energies:   -191.80681395247453       -191.80977868971451       -191.80592839141113     
 PAO|LS| adapt: suggested step_size:   0.40586912209409964     
 PAO|LS| adapt: predicted energy  -191.80979307368932     
 PAO| ======================= Iteration:        29 =============================

     Lanczos converged:  F threshold:   0.100E-02
     Est. extremal eigenvalues:    0.484E+01   0.130E+00
     Est. condition number :    0.372E+02

 Order=           3
     NS sqrt iter    1 1.00000000   0.124E+01       0.021     2691.073
     NS sqrt iter    2 1.00000000   0.636E+00       0.033     3380.852
     NS sqrt iter    3 1.00000000   0.205E+00       0.034     3362.436
     NS sqrt iter    4 1.00000000   0.267E-01       0.034     3361.270
     NS sqrt iter    5 1.00000000   0.131E-03       0.034     3332.003
     NS sqrt iter    6 1.00000000   0.440E-10       0.021     2307.384
     Symmetrizing Results
     Final NS sqrt iter    6 1.00000000   0.221E-11

     Est. extremal eigenvalues     -0.84448     2.62852  converged:  T
     TRS4 it   1 1.00000000   0.287E+02       0.007     2096.046   0.100E-11
     TRS4 it   2 1.00000000   0.236E+02       0.013     2216.761   0.100E-11
     TRS4 it   3 1.00000000   0.155E+02       0.013     2181.210   0.100E-11
     TRS4 it   4 1.00000000   0.893E+01       0.013     2194.643   0.100E-11
     TRS4 it   5 1.00000000   0.365E+01       0.013     2218.133   0.100E-11
     TRS4 it   6 1.00000000   0.905E+00       0.013     2201.496   0.100E-11
     TRS4 it   7 1.00000000   0.101E+00       0.013     2182.982   0.100E-11
     TRS4 it   8 1.00000000   0.183E-02       0.013     2207.442   0.100E-11
     TRS4 it   9 1.00000000   0.916E-06       0.013     2214.122   0.100E-11
[...]
     TRS4 it   3 1.00000000   0.156E+02       0.013     2208.341   0.100E-11
     TRS4 it   4 1.00000000   0.918E+01       0.013     2199.748   0.100E-11
     TRS4 it   5 1.00000000   0.408E+01       0.013     2180.117   0.100E-11
     TRS4 it   6 1.00000000   0.126E+01       0.013     2177.945   0.100E-11
     TRS4 it   7 1.00000000   0.220E+00       0.013     2218.606   0.100E-11
     TRS4 it   8 1.00000000   0.983E-02       0.013     2194.683   0.100E-11
     TRS4 it   9 1.00000000   0.256E-04       0.013     2193.317   0.100E-11
     TRS4 it  10 1.00000000   0.542E-09       0.013     2197.937   0.100E-11
     TRS4 it  11 1.00000000   0.888E-14       0.013     2192.235   0.100E-11
     Final TRS4 iteration   11 1.00000000   0.888E-14
     Chemical potential (mu):       0.03277
 
 PAO| energy:  -191.40117416559229      penalty:   1.2422634449272786E-008
 PAO| Writing restart file.
     Est. extremal eigenvalues     -0.84435     2.58644  converged:  T
     TRS4 it   1 1.00000000   0.288E+02       0.007     2150.037   0.100E-11
     TRS4 it   2 1.00000000   0.236E+02       0.013     2200.199   0.100E-11
     TRS4 it   3 1.00000000   0.156E+02       0.013     2178.514   0.100E-11
     TRS4 it   4 1.00000000   0.918E+01       0.013     2186.811   0.100E-11
     TRS4 it   5 1.00000000   0.408E+01       0.013     2203.355   0.100E-11
     TRS4 it   6 1.00000000   0.126E+01       0.013     2205.951   0.100E-11
     TRS4 it   7 1.00000000   0.220E+00       0.013     2186.667   0.100E-11
     TRS4 it   8 1.00000000   0.983E-02       0.013     2185.381   0.100E-11
     TRS4 it   9 1.00000000   0.256E-04       0.013     2202.336   0.100E-11
     TRS4 it  10 1.00000000   0.542E-09       0.013     2215.056   0.100E-11
     TRS4 it  11 1.00000000   0.888E-14       0.013     2213.294   0.100E-11
     Final TRS4 iteration   11 1.00000000   0.888E-14
     Chemical potential (mu):       0.03277

 SCF     1     -1103.033693479     -1103.033693479    1.775450

*********************************************************
 Using MIXING_FRACTION=0.450 to mix KS matrix:  iscf=  2
 KS_nw=0.450*KS + 0.550*KS_old
*********************************************************
     Est. extremal eigenvalues     -0.84435     2.58644  converged:  T
     TRS4 it   1 1.00000000   0.288E+02       0.007     2145.919   0.100E-11
     TRS4 it   2 1.00000000   0.236E+02       0.013     2203.552   0.100E-11
     TRS4 it   3 1.00000000   0.156E+02       0.013     2199.179   0.100E-11
     TRS4 it   4 1.00000000   0.918E+01       0.013     2220.604   0.100E-11
     TRS4 it   5 1.00000000   0.408E+01       0.013     2224.043   0.100E-11
     TRS4 it   6 1.00000000   0.126E+01       0.013     2197.566   0.100E-11
     TRS4 it   7 1.00000000   0.219E+00       0.013     2210.785   0.100E-11
     TRS4 it   8 1.00000000   0.983E-02       0.013     2220.952   0.100E-11
     TRS4 it   9 1.00000000   0.256E-04       0.013     2185.820   0.100E-11
     TRS4 it  10 1.00000000   0.542E-09       0.013     2194.126   0.100E-11
     TRS4 it  11 1.00000000   0.142E-13       0.013     2174.579   0.100E-11
     Final TRS4 iteration   11 1.00000000   0.142E-13
     Chemical potential (mu):       0.03277

 SCF     2     -1103.033693479        -0.000000000    1.776873


 SCF run converged in     2 steps.

 PAO| Storing density matrix for ASPC guess in slot:           1

 ENERGY| Total FORCE_EVAL ( QS ) energy [a.u.]:            -1103.033693478775604

 -------------------------------------------------------------------------------
 -                                                                             -
 -                                DBCSR STATISTICS                             -
 -                                                                             -
 -------------------------------------------------------------------------------
 COUNTER                                    TOTAL       BLAS       SMM       ACC
 flops     5 x     5 x     4             26419200       0.0%    100.0%      0.0%     
 flops    13 x     5 x     4             34078720       0.0%    100.0%      0.0%     
 flops     5 x    13 x     4             34078720       0.0%    100.0%      0.0%     
 flops    13 x    13 x     4             44994560       0.0%    100.0%      0.0%     
 flops     4 x     4 x     5           6904872960       0.0%    100.0%      0.0%     
 flops     5 x     4 x     5           8536064000       0.0%    100.0%      0.0%     
 flops     4 x     4 x    13           8976334848       0.0%    100.0%      0.0%     
 flops    13 x     4 x     5          11096883200       0.0%    100.0%      0.0%     
 flops     5 x     4 x    13          11096883200       0.0%    100.0%      0.0%     
 flops    13 x     4 x    13          14425948160       0.0%    100.0%      0.0%     
 flops     5 x     4 x     4         429271890240       0.0%    100.0%      0.0%     
 flops    13 x     4 x     4         562088332416       0.0%    100.0%      0.0%     
 flops     4 x     4 x     4       32041151462144       0.0%    100.0%      0.0%     
 flops inhomo. stacks                           0       0.0%      0.0%      0.0%
 flops total                        33.093688E+12       0.0%    100.0%      0.0%
 flops max/rank                      1.044584E+12       0.0%    100.0%      0.0%
 matmuls inhomo. stacks                         0       0.0%      0.0%      0.0%
 matmuls total                       254516679340       0.0%    100.0%      0.0%
 number of processed stacks             259977732       0.0%    100.0%      0.0%
 average stack size                                     0.0     979.0       0.0
 marketing flops                    56.809197E+12
 -------------------------------------------------------------------------------
 # multiplications                          53293
 max memory usage/rank             619.315200E+06
 # max total images/rank                        2
 # max 3D layers                                1
 # MPI messages exchanged                22169888
 MPI messages size (bytes):
  total size                         2.644686E+12
  min size                           0.000000E+00
  max size                         541.696000E+03
  average size                     119.291828E+03
 MPI breakdown and total messages size (bytes):
             size <=      128              948717                    63360
       128 < size <=     8192              357678               1213735040
      8192 < size <=    32768               12273                208919040
     32768 < size <=   131072             9251544             681400178176
    131072 < size <=  4194304            11599676            1962297991680
   4194304 < size <= 16777216                   0                        0
  16777216 < size                               0                        0
 -------------------------------------------------------------------------------

 *** WARNING in dbcsr_mm.F:301 :: Using a non-square number of MPI ranks ***
 *** might lead to poor performance. Used ranks: 32 Suggested: 36 64     ***

 -------------------------------------------------------------------------------
 -                                                                             -
 -                      DBCSR MESSAGE PASSING PERFORMANCE                      -
 -                                                                             -
 -------------------------------------------------------------------------------
 ROUTINE             CALLS      AVE VOLUME [Bytes]
 MP_Bcast               14                     12.
 MP_Allreduce       320707                     37.
 MP_Alltoall        137596                  14572.
 MP_ISend          1783514                  55504.
 MP_IRecv          1744444                  56823.
 -------------------------------------------------------------------------------

 -------------------------------------------------------------------------------
 -                                                                             -
 -                                DBM STATISTICS                               -
 -                                                                             -
 -------------------------------------------------------------------------------
    M  x    N  x    K                                          COUNT     PERCENT
 -------------------------------------------------------------------------------

 -------------------------------------------------------------------------------
 -                                                                             -
 -                                GRID STATISTICS                              -
 -                                                                             -
 -------------------------------------------------------------------------------
 LP    KERNEL             BACKEND                              COUNT     PERCENT
 2     collocate ortho    CPU                               13106464      28.83%
 2     integrate ortho    CPU                               13106464      28.83%
 3     collocate ortho    CPU                                8428288      18.54%
 3     integrate ortho    CPU                                8428288      18.54%
 4     collocate ortho    CPU                                1196640       2.63%
 4     integrate ortho    CPU                                1196640       2.63%
 0     collocate general  CPU                                   6144       0.01%
 -------------------------------------------------------------------------------

 MEMORY| Estimated peak process memory [MiB]                                 591

 -------------------------------------------------------------------------------
 -                                                                             -
 -                         MESSAGE PASSING PERFORMANCE                         -
 -                                                                             -
 -------------------------------------------------------------------------------

 ROUTINE             CALLS      AVE VOLUME [Bytes]
 MP_Group                5
 MP_Bcast           465166                   1726.
 MP_Allreduce      1155354                    514.
 MP_Sync                 5
 MP_Alltoall           419                3232632.
 MP_SendRecv          1488                  18832.
 MP_ISendRecv         1488                  18832.
 MP_Wait              4218
 MP_ISend             2470                 108139.
 MP_IRecv             2470                 108153.
 -------------------------------------------------------------------------------


 -------------------------------------------------------------------------------
 -                                                                             -
 -                           R E F E R E N C E S                               -
 -                                                                             -
 -------------------------------------------------------------------------------
 
 CP2K version 2024.3 (Development Version), the CP2K developers group (2024).
 CP2K is freely available from https://www.cp2k.org/ .
 
 T. D. Kuehne, M. Iannuzzi, M. Del Ben, V. V. Rybkin, P. Seewald, F. Stein, T. 
 Laino, R. Z. Khaliullin, O. Schuett, F. Schiffmann, D. Golze, J. Wilhelm, S. 
 Chulkov, M. H. Bani-Hashemian, V. Weber, U. Borstnik, M. Taillefumier, A. S. 
 Jakobovits, A. Lazzaro, H. Pabst, T. Mueller, R. Schade, M. Guidon, S. 
 Andermatt, N. Holmberg, G. K. Schenter, A. Hehn, A. Bussy, F. Belleflamme, G. 
 Tabacchi, A. Gloess, M. Lass, I. Bethune, C. J. Mundy, C. Plessl, M. Watkins, 
 J. VandeVondele, M. Krack, J. Hutter.
 J. Chem. Phys. 152, 194103 (2020).
 CP2K: An electronic structure and molecular dynamics software package - 
 Quickstep: Efficient and accurate electronic structure calculations.
 https://doi.org/10.1063/5.0007045

 O. Schuett, J. VandeVondele.
 J. Chem. Theory Comput. 14, 4168-4175 (2018).
 Machine Learning Adaptive Basis Sets for Efficient Large Scale Density 
 Functional Theory Simulation.
 https://doi.org/10.1021/acs.jctc.8b00378

 O. Schuett, P. Messmer, J. Hutter, J. VandeVondele.
 Electronic Structure Calculations on Graphics Processing Units, 173-190 (2016).
 GPU-Accelerated Sparse Matrix-Matrix Multiplication for Linear Scaling Density 
 Functional Theory.
 https://doi.org/10.1002/9781118670712.ch8

 A. Heinecke, G. Henry, M. Hutchinson, H. Pabst.
 Proceedings of Intl. Supercomputing Conference, 981-991 (2016).
 LIBXSMM: Accelerating Small Matrix Multiplications by Runtime Code Generation.
 https://doi.org/10.1109/SC.2016.83

 J. Hutter, M. Iannuzzi, F. Schiffmann, J. VandeVondele.
 WIREs Comput Mol Sci. 4, 15-25 (2014).
 CP2K: atomistic simulations of condensed matter systems.
 https://doi.org/10.1002/wcms.1159

 U. Borstnik, J. VandeVondele, V. Weber, J. Hutter.
 Parallel Comput. 40, 47-58 (2014).
 Sparse matrix multiplication: The distributed block-compressed sparse row 
 library.
 https://doi.org/10.1016/j.parco.2014.03.012

 A. Marek, V. Blum, R. Johanni, V. Havu, B. Lang, T. Auckenthaler, A. Heinecke, 
 H. Bungartz, H. Lederer.
 J. Phys. Condens. Matter 26, 213201 (2014).
 The ELPA library: scalable parallel eigenvalue solutions for electronic 
 structure theory and computational science.
 https://doi.org/10.1088/0953-8984/26/21/213201

 J. VandeVondele, U. Borstnik, J. Hutter.
 J. Chem. Theory Comput. 8, 3565-3573 (2012).
 Linear Scaling Self-Consistent Field Calculations with Millions of Atoms in the 
 Condensed Phase.
 https://doi.org/10.1021/ct200897x

 J. VandeVondele, J. Hutter.
 J. Chem. Phys. 127, 114105 (2007).
 Gaussian basis sets for accurate calculations on molecular systems in gas and 
 condensed phases.
 https://doi.org/10.1063/1.2770708

 J. VandeVondele, M. Krack, F. Mohamed, M. Parrinello, T. Chassaing, J. Hutter.
 Comput. Phys. Commun. 167, 103-128 (2005).
 QUICKSTEP: Fast and accurate density functional calculations using a mixed 
 Gaussian and plane waves approach.
 https://doi.org/10.1016/j.cpc.2004.12.014

 M. Krack.
 Theor. Chem. Acc. 114, 145-152 (2005).
 Pseudopotentials for H to Kr optimized for gradient-corrected 
 exchange-correlation functionals.
 https://doi.org/10.1007/s00214-005-0655-y

 M. Frigo, S. G. Johnson.
 Proc. IEEE 93, 216-231 (2005).
 The design and implementation of FFTW3.
 https://doi.org/10.1109/JPROC.2004.840301

 A. M. N. Niklasson, C. J. Tymczak, M. Challacombe.
 J. Chem. Phys. 118, 8611-8620 (2003).
 Trace resetting density matrix purification in O(N) self-consistent-field 
 theory.
 https://doi.org/10.1063/1.1559913

 C. Hartwigsen, S. Goedecker, J. Hutter.
 Phys. Rev. B 58, 3641-3662 (1998).
 Relativistic separable dual-space Gaussian pseudopotentials from H to Rn.
 https://doi.org/10.1103/PhysRevB.58.3641

 G. Lippert, J. Hutter, M. Parrinello.
 Mol. Phys. 92, 477-487 (1997).
 A hybrid Gaussian and plane wave density functional scheme.
 https://doi.org/10.1080/002689797170220

 S. Goedecker, M. Teter, J. Hutter.
 Phys. Rev. B 54, 1703-1710 (1996).
 Separable dual-space Gaussian pseudopotentials.
 https://doi.org/10.1103/PhysRevB.54.1703

 J. P. Perdew, K. Burke, M. Ernzerhof.
 Phys. Rev. Lett. 77, 3865-3868 (1996).
 Generalized gradient approximation made simple.
 https://doi.org/10.1103/PhysRevLett.77.3865


 -------------------------------------------------------------------------------
 -                                                                             -
 -                                T I M I N G                                  -
 -                                                                             -
 -------------------------------------------------------------------------------
 SUBROUTINE                       CALLS  ASD         SELF TIME        TOTAL TIME
                                MAXIMUM       AVERAGE  MAXIMUM  AVERAGE  MAXIMUM
 CP2K                                 1  1.0    0.013    0.016  488.183  488.185
 qs_energies                          1  2.0    0.000    0.000  488.018  488.020
 ls_scf                               1  3.0    0.000    0.000  486.894  486.896
 pao_update                           7  4.0    0.007    0.026  456.655  456.658
 pao_calc_energy                    867  5.0    0.003    0.020  410.933  410.938
 dbcsr_multiply_generic           53293  8.4    1.481    1.590  371.976  372.310
 multiply_cannon                  53293  9.4    2.784    3.219  302.089  305.471
 multiply_cannon_loop             53293 10.4    2.000    2.317  290.636  294.338
 ls_scf_init_matrix_S               874  7.0    0.009    0.011  227.658  227.733
 pao_rebuild_S                      867  6.0    0.003    0.003  225.820  225.894
 matrix_sqrt_Newton_Schulz          874  8.0    0.184    0.309  211.489  211.543
 multiply_cannon_multrec         426344 11.4  190.278  192.834  191.150  193.695
 pao_dm_trs4                        867  6.0    0.006    0.007  184.730  184.761
 density_matrix_trs4                882  7.0    0.227    0.394  178.763  178.849
 mp_waitall_1                   3412500 12.6   95.490  101.908   95.490  101.908
 multiply_cannon_metrocomm3      426344 11.4    0.746    0.802   77.257   82.380
 arnoldi_extremal                  1756  8.5    0.014    0.015   76.910   76.975
 arnoldi_normal_ev                 1756  9.5    0.043    0.075   76.893   76.958
 build_subspace                    7524 10.5    0.458    0.491   67.340   67.394
 dbcsr_matrix_vector_mult        229232 11.5    0.980    1.474   63.281   63.705
 make_m2s                        106586  9.4    0.583    0.828   54.119   55.402
 dbcsr_matrix_vector_mult_local  229232 12.5   53.970   54.364   54.226   54.616
 make_images                     106586 10.4    7.862    8.049   52.664   53.942
 pao_calc_AB                       1151  5.8    0.002    0.002   45.224   45.230
 pao_calc_AB_equi                  1151  6.8    0.043    0.107   45.222   45.228
 pao_calc_grad_lnv_wrt_AB           283  7.0    0.021    0.024   44.792   44.839
 ls_scf_main                          7  4.0    0.000    0.001   26.702   26.704
 make_images_data                106586 11.4    0.914    1.037   22.604   25.231
 ls_scf_dm_to_ks                     15  5.0    0.000    0.000   23.404   23.408
 hybrid_alltoall_any             108329 12.3    0.962    2.103   17.702   21.768
 matrix_qs_to_ls                   1756  7.5    0.018    0.021   18.155   18.292
 qs_ks_update_qs_env                 16  6.0    0.000    0.000   13.902   13.905
 rebuild_ks_matrix                   16  7.0    0.000    0.000   13.890   13.894
 qs_ks_build_kohn_sham_matrix        16  8.0    0.003    0.003   13.890   13.894
 calculate_norms                 795984 11.4   12.466   13.452   12.466   13.452
 mp_sum_l                        217712  9.5    7.737   12.851    7.737   12.851
 make_images_pack                106586 11.4   11.878   12.217   12.022   12.361
 qs_rho_update_rho_low               16  6.0    0.000    0.000   10.964   10.966
 calculate_rho_elec                  16  7.0    0.005    0.006   10.964   10.966
 sum_up_and_integrate                16  9.0    0.000    0.001   10.510   10.513
 integrate_v_rspace                  16 10.0    0.001    0.001   10.495   10.499
 grid_collocate_task_list            16  8.0    9.720    9.930    9.720    9.930
 -------------------------------------------------------------------------------

 The number of warnings for this run is : 1
 
 -------------------------------------------------------------------------------
  **** **** ******  **  PROGRAM ENDED AT                 2024-09-23 23:38:46.333
 ***** ** ***  *** **   PROGRAM RAN ON                                    moritz
 **    ****   ******    PROGRAM RAN BY                                       ole
 ***** **    ** ** **   PROGRAM PROCESS ID                                164318
  **** **  *******  **  PROGRAM STOPPED IN /home/ole/git/pao_ml_equivar/64H2O_MD
                                           /Frame1000
