     192
 i =     1000, time =     1500.000, E =     -1100.0739434252
  O         5.6560807613       -4.8026473462        4.2575808024
  H         6.5672566142       -5.0369687960        4.1481756763
  H         5.5532676226       -4.4296719761        5.1163987117
  O        -3.5994404572        2.7688157317        4.9240604787
  H        -4.1926288060        2.2945192967        4.2548573287
  H        -3.9115305991        2.4606557426        5.7886380401
  O         4.1413381105        2.3240209092        4.3013656864
  H         3.6454143833        2.9867929877        4.8860141851
  H         4.5417815901        2.9032728977        3.5824116697
  O        -2.9779113648       -0.1942950168       -3.9568720620
  H        -2.6421251331        0.0337414420       -3.0228281103
  H        -2.1475491982       -0.5314096545       -4.2560459600
  O        -3.1172021505        5.4333508410        5.4377207213
  H        -3.4524590054        4.5694720802        5.0296871836
  H        -3.4478633765        6.1827827204        4.9150623210
  O         8.1401789035        1.5924763640        2.4862417673
  H         8.1060952103        0.6232333316        2.4685451240
  H         7.9481020829        1.8561934584        1.5782180455
  O         4.2065646942       -4.8795605850       -0.0801433274
  H         3.5890510602       -4.3419897147        0.4374275668
  H         4.3801293089       -4.4214225554       -0.8649510552
  O        -2.3452251738       -3.0277144518       -1.8158237626
  H        -3.0530584078       -2.6167298853       -2.3789757369
  H        -2.2656651601       -2.4475574207       -1.1095453821
  O         5.5076447209       -2.4052636352        2.9035798039
  H         5.6870501001       -3.1240672508        3.4869299711
  H         4.5384506714       -2.5341591943        2.6596600965
  O         2.7131667039        4.5553530774        5.4297527087
  H         1.8990571417        4.0342801477        5.3743790965
  H         2.7138062408        4.7895049076        6.3498722945
  O         4.2784197561       -3.5393520941       -2.5116413295
  H         4.2171374462       -4.0859435493       -3.2994757518
  H         4.9533797836       -2.7756871415       -2.6669220978
  O         2.7241997437       -2.9468223089        1.4730335615
  H         2.1185014138       -2.7431557709        2.2140384379
  H         2.5174427627       -2.5041486431        0.6419744668
  O         1.4793290799       -4.7039259734       -4.8102152512
  H         1.5090945078       -5.6193673371       -4.5120285753
  H         1.0255832907       -4.8114481013       -5.6836387714
  O         4.1630823081        5.3296953976       -2.9186492339
  H         4.8375061341        4.5931974439       -2.8692641696
  H         3.9209393875        5.4838720507       -1.9783771513
  O         3.0929712003       -1.1480525687        5.3798948340
  H         3.7314084823       -1.8355752930        5.5889169213
  H         3.0127333759       -0.9584817962        4.4342112092
  O         0.6599497054        2.7285469570        5.5181296214
  H         1.1919022252        2.0404923292        5.9496013146
  H         0.4849528575        2.3033310076        4.6331434015
  O         0.4974179884       -2.8137507218        3.6365332942
  H         1.2121764280       -2.4860518009        4.2245096371
  H         0.0353186916       -3.5313860285        4.1780885151
  O        -1.7614467965        3.3973536010        2.6757571263
  H        -1.0062768898        2.7088525459        2.7348417557
  H        -2.5712705994        3.0148151116        3.0394833954
  O         1.4228686097        0.3636502962       -5.4591542218
  H         2.0906353844       -0.1207963054       -5.9626444027
  H         1.7611798937        0.3299461979       -4.5565612081
  O        -0.8190932411       -1.6235819957        0.2452457819
  H        -1.0213086909       -1.1664150339        1.0865041314
  H        -0.5845367000       -2.4689348821        0.5767599643
  O        -4.0323229317        3.3958080136       -2.3068711512
  H        -4.0641433548        4.3755311275       -2.3829583658
  H        -3.0507823124        3.1818235513       -2.3834815008
  O         5.3398928730        4.0416391484        2.4738810855
  H         5.0569766314        3.7143582511        1.6231308088
  H         4.6803354132        4.7229184101        2.7173922192
  O         4.9107177006        1.0412894906       -3.4983116239
  H         5.1031049169        1.0867813024       -4.4103677097
  H         5.4607291333        0.2401127162       -3.3452717093
  O        -4.0031159013        6.0923724596       -2.9000284934
  H        -4.7005560810        6.4468685361       -2.3276813822
  H        -4.4123637362        6.0505800294       -3.7791495462
  O         6.1031706421       -0.2464806348       -0.1328672448
  H         6.4274917741       -0.6998518625        0.6571796359
  H         5.1813012043        0.0649444728       -0.0125924562
  O         3.8345849091        0.7942168682        0.5870386620
  H         3.8297365997        1.7172449786        0.4025382917
  H         3.2714109811        0.4668056119       -0.1285399200
  O        -5.4336067103       -6.1157978537       -0.3796322936
  H        -5.3918672693       -6.7832884580        0.3409542077
  H        -6.2668807423       -5.6662226309       -0.2571729900
  O        -4.6895293921        4.8613960559        1.8210525948
  H        -5.5363554031        4.6311046553        2.3595612784
  H        -4.4846223121        4.0513980635        1.3363828613
  O         5.7812816760        0.6623875803       -6.3889309137
  H         6.4800022317        1.2580745369       -6.0240783476
  H         5.1995554691        1.2367193580       -6.8654168834
  O         2.3526239883       -2.1490503431       -1.1506113225
  H         3.0723202748       -2.7163491031       -1.4761284797
  H         1.5738672863       -2.5059565778       -1.5976165300
  O         4.4413327220        3.4536005840        0.2553109950
  H         5.0023664762        3.3890542025       -0.4928218609
  H         3.6761233291        4.0154611216       -0.0329529280
  O        -1.2016640182       -0.7154620208        3.0043869289
  H        -0.4836087131       -1.2770161944        3.4312915332
  H        -1.9538651332       -0.5931147654        3.5995093399
  O         1.3187513857       -6.2763839226        1.9479158122
  H         1.4975303699       -6.9239851041        1.2434353954
  H         2.2775028101       -6.2614534109        2.2892485669
  O         0.4635283676       -2.9745629630       -2.8908779715
  H        -0.4123362295       -3.3058849721       -2.5983771477
  H         0.7748533156       -3.6854493582       -3.4747752130
  O        -4.9565213404        2.0183360807       -0.0218117326
  H        -4.8855662763        2.5356471533       -0.8172290309
  H        -5.3843379013        1.1332368977       -0.2172586660
  O         3.6761013483       -3.9199202038       -6.3031665874
  H         2.8777117582       -4.0847318324       -5.7832002090
  H         4.0448535667       -3.1164336010       -5.9004159556
  O        -1.4396699233        3.0524056012       -3.0822742554
  H        -1.4512375348        3.3818013095       -3.9850932651
  H        -0.8734636476        3.6631855363       -2.5942627687
  O        -4.2361398751       -5.6127975710        3.4938375864
  H        -3.7365199719       -4.8386114806        3.1245580603
  H        -4.1003380406       -6.3617811762        2.8901911870
  O         3.7898325196        5.9682998687        3.1605596342
  H         4.3409932057        6.7620531350        3.4689010518
  H         3.2551873546        5.7267085606        3.9712039400
  O        -4.3548693988        1.8356033138       -4.9421769773
  H        -3.6832204766        1.1057763496       -4.8289951440
  H        -4.2950913422        2.4940480856       -4.2201171099
  O         2.6402720978        0.3852177252        3.0252471031
  H         3.1152703971        0.3607571059        2.1624448737
  H         3.2010545310        1.0457038146        3.4764202433
  O        -4.8461901182       -1.1293361707        2.1257288473
  H        -5.6787703678       -1.5412864058        2.4098002918
  H        -4.0935408014       -1.7418087622        2.2511872185
  O         0.1643193693        1.4788073996        3.1585074544
  H         1.1250936019        1.2313069692        2.9681453808
  H        -0.3238834568        0.7063530958        2.9113697171
  O        -1.6591372247        4.7647143166        0.3196964599
  H        -1.8489930969        4.2711682876        1.1343511664
  H        -2.1499278536        5.6159283618        0.3315491472
  O        -0.6445584124       -1.3956736127       -4.6951494405
  H        -0.1230081794       -1.7377311241       -3.9659853640
  H        -0.0227534244       -0.7471684900       -5.0611660662
  O        -6.6925953932        3.0647553293       -2.2606634768
  H        -5.7403326049        3.1059941785       -2.2058218877
  H        -7.0457470400        2.2699955212       -2.7057936706
  O         5.8349192433       -1.4347379152       -2.5239859739
  H         6.7260073791       -1.7631088883       -2.8784973536
  H         6.0615347803       -1.1851411857       -1.5505717316
  O        -1.4546513176        0.1460146898       -1.8629462809
  H        -0.9274406974        0.9448366256       -1.6899040460
  H        -1.2435864748       -0.4189510663       -1.1268155555
  O         0.1165335726        5.2725828265       -1.6067271658
  H        -0.5450315174        5.8116324177       -2.0746382187
  H        -0.4019527510        4.9668196134       -0.8267745602
  O         5.4479104685       -2.0739213791        6.5572751671
  H         6.2479038043       -2.5428128434        6.5926068674
  H         5.5933692621       -1.2007488035        6.2203560651
  O        -1.4745723933       -5.7829403944       -3.6200050742
  H        -1.1104783209       -6.4250006974       -4.2624417405
  H        -2.2834822685       -6.1752992316       -3.3538979187
  O        -4.3710771518       -2.2124755377       -3.4965601845
  H        -4.5638862872       -2.7982467563       -4.2224790053
  H        -3.8704889070       -1.3165156703       -3.7602193668
  O         2.5112209647        5.3951424076       -0.3964493231
  H         1.6839099706        5.6628756359       -0.7777542315
  H         3.0704784852        6.2314371723       -0.3156680416
  O        -4.7170334213       -3.9587778246       -6.0887103025
  H        -3.7743350913       -3.8943437547       -5.8834573685
  H        -5.0886763617       -4.8178872180       -5.8400353892
  O        -1.0597907437        5.9957295191        3.5823402282
  H        -1.2747058039        5.0487791296        3.3951398422
  H        -0.2330979549        6.2064361736        3.0332127737
  O        -2.1539820512       -3.7484339920       -5.5840645852
  H        -1.8659460368       -4.3989774028       -4.9264632600
  H        -1.7420401807       -2.9283838581       -5.3290910915
  O        -2.9555533274       -3.3209676553        2.2389330172
  H        -2.0381371676       -3.2681956019        2.5414160564
  H        -2.9821719843       -3.9282099046        1.4764934900
  O         1.9127455706        5.2528211702       -4.2461256379
  H         2.7549694502        5.1786007433       -3.7095329438
  H         1.2786130690        4.4877351129       -4.1682048071
  O         2.3958461130        0.3544389728       -2.5097649953
  H         2.5163034043       -0.5477452182       -2.2638223055
  H         3.2340135477        0.5556277196       -2.9433608387
  O        -0.8800689931        4.6151770965        6.7984667804
  H        -0.4549239379        3.9729516210        6.2108497119
  H        -1.6281070671        4.9312372264        6.3936733531
  O        -0.4023305990       -4.2610518970        1.1710877112
  H         0.3199060677       -4.7856635754        1.4882492628
  H        -0.9583986726       -4.9935845321        0.8813423319
  O         7.3891272525        5.6893054355        7.2302125873
  H         6.7984100621        4.9361779219        7.2791547339
  H         8.0975213147        5.4676286548        6.6301108817
  O        -0.2551642147       -4.6385404198        5.1908749313
  H        -0.5831367997       -5.4212883420        4.7025399484
  H        -1.0266186319       -4.3842551570        5.7480538128
  O        -3.0521494972       -4.9456257432        0.1169149645
  H        -3.9197747677       -5.1460499954       -0.1965515357
  H        -2.5987077700       -4.5057760694       -0.6186695048
