 DBCSR| CPU Multiplication driver                                           BLAS
 DBCSR| Multrec recursion limit                                              512
 DBCSR| Multiplication stack size                                           1000
 DBCSR| Maximum elements for images                                    UNLIMITED
 DBCSR| Multiplicative factor virtual images                                   1
 DBCSR| Use multiplication densification                                       T
 DBCSR| Multiplication size stacks                                             3


  **** **** ******  **  PROGRAM STARTED AT               2019-03-28 17:33:27.433
 ***** ** ***  *** **   PROGRAM STARTED ON        oleschuett.zrh.corp.google.com
 **    ****   ******    PROGRAM STARTED BY                            oleschuett
 ***** **    ** ** **   PROGRAM PROCESS ID                                 34135
  **** **  *******  **  PROGRAM STARTED IN /usr/local/google/home/oleschuett/git
                                           /pao_ml_equivar/2H2O_rotations/phi_35

 CP2K| version string:                    CP2K version 7.0 (Development Version)
 CP2K| source code revision number:                                git:d9814d431
 CP2K| cp2kflags: libint fftw3 libxc libderiv_max_am1=5 libint_max_am=6         
 CP2K| is freely available from                            https://www.cp2k.org/
 CP2K| Program compiled at                          Mon Mar 25 16:50:07 CET 2019
 CP2K| Program compiled on                        oleschuett.zrh.corp.google.com
 CP2K| Program compiled for                                                local
 CP2K| Data directory path       /usr/local/google/home/oleschuett/git/cp2k/data
 CP2K| Input file name                                            2H2O_pao44.inp

 GLOBAL| Force Environment number                                              1
 GLOBAL| Basis set file name                                        BASIS_MOLOPT
 GLOBAL| Potential file name                                      GTH_POTENTIALS
 GLOBAL| MM Potential file name                                     MM_POTENTIAL
 GLOBAL| Coordinate file name                                         coords.xyz
 GLOBAL| Method name                                                        CP2K
 GLOBAL| Project name                                                 2H2O_pao44
 GLOBAL| Preferred FFT library                                             FFTW3
 GLOBAL| Preferred diagonalization lib.                                       SL
 GLOBAL| Run type                                                         ENERGY
 GLOBAL| All-to-all communication in single precision                          F
 GLOBAL| FFTs using library dependent lengths                                  F
 GLOBAL| Global print level                                                  LOW
 GLOBAL| MPI I/O enabled                                                       T
 GLOBAL| Total number of message passing processes                             1
 GLOBAL| Number of threads for this process                                    1
 GLOBAL| This output is from process                                           0
 GLOBAL| CPU model name :  Intel(R) Xeon(R) CPU E5-1650 v4 @ 3.60GHz

 MEMORY| system memory details [Kb]
 MEMORY|                        rank 0           min           max       average
 MEMORY| MemTotal             65953612      65953612      65953612      65953612
 MEMORY| MemFree               5000088       5000088       5000088       5000088
 MEMORY| Buffers               2543220       2543220       2543220       2543220
 MEMORY| Cached               25366440      25366440      25366440      25366440
 MEMORY| Slab                  3622452       3622452       3622452       3622452
 MEMORY| SReclaimable          2421472       2421472       2421472       2421472
 MEMORY| MemLikelyFree        35331220      35331220      35331220      35331220


 GENERATE|  Preliminary Number of Bonds generated:                             0
 GENERATE|  Achieved consistency in connectivity generation.

 *******************************************************************************
 *******************************************************************************
 **                                                                           **
 **     #####                         ##              ##                      **
 **    ##   ##            ##          ##              ##                      **
 **   ##     ##                       ##            ######                    **
 **   ##     ##  ##   ##  ##   #####  ##  ##   ####   ##    #####    #####    **
 **   ##     ##  ##   ##  ##  ##      ## ##   ##      ##   ##   ##  ##   ##   **
 **   ##  ## ##  ##   ##  ##  ##      ####     ###    ##   ######   ######    **
 **    ##  ###   ##   ##  ##  ##      ## ##      ##   ##   ##       ##        **
 **     #######   #####   ##   #####  ##  ##  ####    ##    #####   ##        **
 **           ##                                                    ##        **
 **                                                                           **
 **                                                ... make the atoms dance   **
 **                                                                           **
 **            Copyright (C) by CP2K developers group (2000 - 2018)           **
 **                                                                           **
 *******************************************************************************


 TOTAL NUMBERS AND MAXIMUM NUMBERS

  Total number of            - Atomic kinds:                                   2
                             - Atoms:                                          6
                             - Shell sets:                                     6
                             - Shells:                                        22
                             - Primitive Cartesian functions:                 42
                             - Cartesian basis functions:                     48
                             - Spherical basis functions:                     46

  Maximum angular momentum of- Orbital basis functions:                        2
                             - Local part of the GTH pseudopotential:          2
                             - Non-local part of the GTH pseudopotential:      0

 ------------------------------ Linear scaling SCF -----------------------------
 eps_scf:                                                              0.100E-07
 eps_filter:                                                           0.100E-07
 mixing_fraction:                                                      0.450E+00
 max_scf:                                                                     25
 fixed chemical potential (mu)                                                 F
 has unit metric:                                                              F
 Computing inv(S):                                                             T
 Computing sqrt(S):                                                            T
 Computing s preconditioner                                                    F
 sign sqrt order:                                                              3
 Extrapolation order:                                                          1
 Use single precision matrices                                                 F
 S preconditioner type                                                      NONE
 Polarized Atomic Orbitals (PAO)                                               T
 Purification method                                   Trace resetting 4th order
 Cluster type                                                             ATOMIC
 Computing Chebyshev                                                       FALSE
 Using PAO                                                                     T
 -------------------------------------------------------------------------------

 
 PAO|                                  EPS_PAO                           0.1E-04
 PAO|                                  MIXING                            0.5E+00
 PAO|                                  MAX_PAO                              1000
 PAO|                                  MAX_CYCLES                           1000
 PAO|                                  PARAMETERIZATION                   DIRECT
 PAO|                                  PRECONDITION                            F
 PAO|                                  REGULARIZATION                    0.0E+00
 PAO|                                  EPS_PGF                           0.1E-09
 PAO|                                  PENALTY_DISTANCE                  0.1E+00
 PAO|                                  PENALTY_STRENGTH                  0.5E-02
 PAO|                                  LINPOT_PRECONDITION_DELTA         0.0E+00
 PAO|                                  LINPOT_INITGUESS_DELT             0.0E+00
 PAO|                                  LINPOT_REGULARIZATION_DELTA       0.0E+00
 PAO|                                  LINPOT_REGULARIZATION_STRENGTH    0.0E+00
 PAO|                                  OPTIMIZER                              CG
 PAO|                                  CG_INIT_STEPS                           2
 PAO|                                  CG_RESET_LIMIT                    0.1E+00
 PAO|                                  CHECK_UNITARY_TOL                -0.1E+01
 PAO|                                  CHECK_GRADIENT_TOL               -0.1E+01
 PAO|                                  NUM_GRADIENT_ORDER                      2
 PAO|                                  NUM_GRADIENT_EPS                  0.1E-07
 PAO|                                  PRINT%RESTART%WRITE_CYCLES            100
 PAO|                                  RESTART_FILE 
 PAO|                                  PREOPT_DM_FILE 2H2O_ref_LS_DM_SPIN_1_RESTART.dm
 PAO|                                  MACHINE_LEARNING%METHOD        GAUSSIAN_P
 PAO|                                  MACHINE_LEARNING%PRIOR               ZERO
 PAO|                                  MACHINE_LEARNING%DESCRIPTOR     POTENTIAL
 PAO|                                  MACHINE_LEARNING%TOLERANCE        0.1E-01
 PAO|                                  MACHINE_LEARNING%GP_NOISE_VAR     0.1E+00
 PAO|                                  MACHINE_LEARNING%GP_SCALE         0.5E-01
 

 Calculating atomic Fock matrix for atomic kind: O

 Electronic structure
    Total number of core electrons                                          2.00
    Total number of valence electrons                                       6.00
    Total number of electrons                                               8.00
    Multiplicity                                                   not specified
    S   [  2.00] 2.00
    P      4.00


 *******************************************************************************
                  Iteration          Convergence                     Energy [au]
 *******************************************************************************
                          1        0.708315                     -15.576645311500
                          2        0.608879                     -15.587933561584
                          3        0.102828E-01                 -15.656849565404
                          4        0.113889E-02                 -15.656866888140
                          5        0.434197E-03                 -15.656867072159
                          6        0.263771E-03                 -15.656867091904
                          7        0.478536E-06                 -15.656867103452

 Energy components [Hartree]           Total Energy ::          -15.656867103452
                                        Band Energy ::           -3.000198112285
                                     Kinetic Energy ::           11.759971203220
                                   Potential Energy ::          -27.416838306672
                                      Virial (-V/T) ::            2.331369510426
                                        Core Energy ::          -26.140716385623
                                          XC Energy ::           -3.154051012914
                                     Coulomb Energy ::           13.637900295084
                       Total Pseudopotential Energy ::          -37.935781716540
                       Local Pseudopotential Energy ::          -39.218907440693
                    Nonlocal Pseudopotential Energy ::            1.283125724153
                                        Confinement ::            0.350941276976

 Orbital energies  State     L     Occupation   Energy[a.u.]          Energy[eV]

                       1     0          2.000      -0.864471          -23.523463

                       1     1          4.000      -0.317814           -8.648154


 Total Electron Density at R=0:                                         0.000068

 Calculating atomic Fock matrix for atomic kind: H

 Electronic structure
    Total number of core electrons                                          0.00
    Total number of valence electrons                                       1.00
    Total number of electrons                                               1.00
    Multiplicity                                                   not specified
    S      1.00


 *******************************************************************************
                  Iteration          Convergence                     Energy [au]
 *******************************************************************************
                          1        0.437545E-02                  -0.424159432110
                          2        0.531356E-03                  -0.424178438213
                          3        0.259176E-06                  -0.424178722480

 Energy components [Hartree]           Total Energy ::           -0.424178722480
                                        Band Energy ::           -0.199015229016
                                     Kinetic Energy ::            0.464007633961
                                   Potential Energy ::           -0.888186356441
                                      Virial (-V/T) ::            1.914163240935
                                        Core Energy ::           -0.479160803564
                                          XC Energy ::           -0.244352904054
                                     Coulomb Energy ::            0.299334985138
                       Total Pseudopotential Energy ::           -0.962295316385
                       Local Pseudopotential Energy ::           -0.962295316385
                    Nonlocal Pseudopotential Energy ::            0.000000000000
                                        Confinement ::            0.191268788606

 Orbital energies  State     L     Occupation   Energy[a.u.]          Energy[eV]

                       1     0          1.000      -0.199015           -5.415480


 Total Electron Density at R=0:                                         0.242907
 PAO| Made initial guess for matrix_X with norm:   4.8989794855663558     

     Lanczos converged:  T threshold:   0.100E-02
     Est. extremal eigenvalues:    0.335E+01   0.114E+00
     Est. condition number :    0.293E+02
     NS sqrt iter    1 1.00000000   0.820E+00       0.001       43.745
     NS sqrt iter    2 1.00000000   0.440E+00       0.002       70.624
     NS sqrt iter    3 1.00000000   0.170E+00       0.002       70.015
     NS sqrt iter    4 1.00000000   0.206E-01       0.002       68.190
     NS sqrt iter    5 1.00000000   0.529E-04       0.002       59.839
     Final NS sqrt iter    5 1.00000000   0.414E-08

 PAO| Read restart DM 2H2O_ref_LS_DM_SPIN_1_RESTART.dm with checksum:    47.301178759832055     
 PAO| Quickstep energy from restart density:  -34.450480621733234     
 PAO| ======================= Iteration:         1 =============================

     Lanczos converged:  T threshold:   0.100E-02
     Est. extremal eigenvalues:    0.335E+01   0.114E+00
     Est. condition number :    0.293E+02
     NS sqrt iter    1 1.00000000   0.820E+00       0.001       47.718
     NS sqrt iter    2 1.00000000   0.440E+00       0.001       80.815
     NS sqrt iter    3 1.00000000   0.170E+00       0.001       85.819
     NS sqrt iter    4 1.00000000   0.206E-01       0.001       94.232
     NS sqrt iter    5 1.00000000   0.529E-04       0.001       81.878
     Final NS sqrt iter    5 1.00000000   0.414E-08

     Est. extremal eigenvalues     -0.92014     1.88399  converged:  T
     TRS4 it   1 1.00000000   0.881E+00       0.000       16.128   0.100E-07
     TRS4 it   2 1.00000000   0.691E+00       0.001       32.256   0.100E-07
     TRS4 it   3 1.00000000   0.499E+00       0.001       32.256   0.100E-07
     TRS4 it   4 1.00000000   0.313E+00       0.001       32.256   0.100E-07
     TRS4 it   5 1.00000000   0.155E+00       0.001       32.256   0.100E-07
     TRS4 it   6 1.00000000   0.486E-01       0.001       32.256   0.100E-07
     TRS4 it   7 1.00000000   0.673E-02       0.001       32.256   0.100E-07
     TRS4 it   8 1.00000000   0.181E-03       0.001       32.256   0.100E-07
     TRS4 it   9 1.00000000   0.145E-06       0.001       32.256   0.100E-07
     TRS4 it  10 1.00000000   0.947E-13       0.001       32.256   0.100E-07
     Final TRS4 iteration   10 1.00000000   0.947E-13
     Chemical potential (mu):      -0.06567
 
 PAO| energy:  -7.6254455050953194      penalty:   6.1013460638187638E-033
 PAO|CG| warming up with steepest descent
 PAO|CG| beta:    0.0000000000000000     
 PAO| norm of gradient:  0.78338853340159875     
 PAO|LS| adapt:  T F F
 PAO|LS| adapt: scan_steps:    0.0000000000000000        0.0000000000000000        0.0000000000000000     
 PAO|LS| adapt: energies:   -7.6254455050953194        0.0000000000000000        0.0000000000000000     
 PAO| ======================= Iteration:         2 =============================

     Lanczos converged:  T threshold:   0.100E-02
     Est. extremal eigenvalues:    0.327E+01   0.127E+00
     Est. condition number :    0.256E+02
     NS sqrt iter    1 1.00000000   0.804E+00       0.001       53.461
     NS sqrt iter    2 1.00000000   0.425E+00       0.001       77.523
     NS sqrt iter    3 1.00000000   0.153E+00       0.002       66.614
     NS sqrt iter    4 1.00000000   0.142E-01       0.001       86.254
     NS sqrt iter    5 1.00000000   0.166E-04       0.001       71.071
     Final NS sqrt iter    5 1.00000000   0.419E-09

     Est. extremal eigenvalues     -0.92381     1.82870  converged:  T
     TRS4 it   1 1.00000000   0.877E+00       0.000       16.128   0.100E-07
     TRS4 it   2 1.00000000   0.672E+00       0.001       32.256   0.100E-07
     TRS4 it   3 1.00000000   0.483E+00       0.001       32.256   0.100E-07
     TRS4 it   4 1.00000000   0.292E+00       0.001       32.256   0.100E-07
     TRS4 it   5 1.00000000   0.135E+00       0.001       32.256   0.100E-07
     TRS4 it   6 1.00000000   0.373E-01       0.001       32.256   0.100E-07
     TRS4 it   7 1.00000000   0.402E-02       0.001       32.256   0.100E-07
     TRS4 it   8 1.00000000   0.650E-04       0.001       32.256   0.100E-07
     TRS4 it   9 1.00000000   0.188E-07       0.001       32.256   0.100E-07
     Final TRS4 iteration    9 1.00000000   0.188E-07
     Chemical potential (mu):      -0.05361
 
 PAO| energy:  -7.6809369039644659      penalty:   2.2479713907724924E-008
 PAO|LS| adapt:  T T F
 PAO|LS| adapt: scan_steps:    0.0000000000000000       0.10000000000000001        0.0000000000000000     
 PAO|LS| adapt: energies:   -7.6254455050953194       -7.6809369039644659        0.0000000000000000     
 PAO| ======================= Iteration:         3 =============================

     Lanczos converged:  T threshold:   0.100E-02
     Est. extremal eigenvalues:    0.317E+01   0.139E+00
     Est. condition number :    0.228E+02
     NS sqrt iter    1 1.00000000   0.786E+00       0.001       60.087
     NS sqrt iter    2 1.00000000   0.408E+00       0.001       94.109
     NS sqrt iter    3 1.00000000   0.136E+00       0.001       77.944
     NS sqrt iter    4 1.00000000   0.974E-02       0.001       87.924
     NS sqrt iter    5 1.00000000   0.545E-05       0.001       76.180
     Final NS sqrt iter    5 1.00000000   0.452E-10

     Est. extremal eigenvalues     -0.92723     1.78393  converged:  T
     TRS4 it   1 1.00000000   0.874E+00       0.001       16.128   0.100E-07
     TRS4 it   2 1.00000000   0.655E+00       0.001       32.256   0.100E-07
     TRS4 it   3 1.00000000   0.467E+00       0.001       32.256   0.100E-07
     TRS4 it   4 1.00000000   0.272E+00       0.001       32.256   0.100E-07
     TRS4 it   5 1.00000000   0.117E+00       0.001       32.256   0.100E-07
     TRS4 it   6 1.00000000   0.277E-01       0.001       32.256   0.100E-07
     TRS4 it   7 1.00000000   0.222E-02       0.001       32.256   0.100E-07
     TRS4 it   8 1.00000000   0.198E-04       0.001       32.256   0.100E-07
     TRS4 it   9 1.00000000   0.175E-08       0.001       32.256   0.100E-07
     Final TRS4 iteration    9 1.00000000   0.175E-08
     Chemical potential (mu):      -0.04058
 
 PAO| energy:  -7.7240119644665599      penalty:   3.5967514084191015E-007
 PAO|LS| adapt:  T T F
 PAO|LS| adapt: scan_steps:    0.0000000000000000       0.20000000000000001        0.0000000000000000     
 PAO|LS| adapt: energies:   -7.6254455050953194       -7.7240119644665599        0.0000000000000000     
 PAO| ======================= Iteration:         4 =============================

     Lanczos converged:  T threshold:   0.100E-02
     Est. extremal eigenvalues:    0.298E+01   0.157E+00
     Est. condition number :    0.189E+02
     NS sqrt iter    1 1.00000000   0.749E+00       0.001       58.569
     NS sqrt iter    2 1.00000000   0.374E+00       0.001       95.867
     NS sqrt iter    3 1.00000000   0.106E+00       0.001       97.855
     NS sqrt iter    4 1.00000000   0.473E-02       0.001       97.064
     NS sqrt iter    5 1.00000000   0.762E-06       0.001       73.724
     Final NS sqrt iter    5 1.00000000   0.967E-12

     Est. extremal eigenvalues     -0.93257     1.71855  converged:  T
     TRS4 it   1 1.00000000   0.869E+00       0.000       16.128   0.100E-07
     TRS4 it   2 1.00000000   0.628E+00       0.001       32.256   0.100E-07
     TRS4 it   3 1.00000000   0.437E+00       0.001       32.256   0.100E-07
     TRS4 it   4 1.00000000   0.235E+00       0.001       32.256   0.100E-07
     TRS4 it   5 1.00000000   0.849E-01       0.001       32.256   0.100E-07
     TRS4 it   6 1.00000000   0.141E-01       0.001       32.256   0.100E-07
     TRS4 it   7 1.00000000   0.549E-03       0.001       32.256   0.100E-07
     TRS4 it   8 1.00000000   0.119E-05       0.001       32.256   0.100E-07
     TRS4 it   9 1.00000000   0.628E-11       0.001       32.256   0.100E-07
     Final TRS4 iteration    9 1.00000000   0.628E-11
     Chemical potential (mu):      -0.01183
 
 PAO| energy:  -7.7712844621510007      penalty:   5.7548000000260864E-006
 PAO|LS| Need extra step
 PAO|LS| adapt:  T T F
 PAO|LS| adapt: scan_steps:    0.0000000000000000       0.40000000000000002        0.0000000000000000     
 PAO|LS| adapt: energies:   -7.6254455050953194       -7.7712844621510007        0.0000000000000000     
 PAO| ======================= Iteration:         5 =============================

     Lanczos converged:  T threshold:   0.100E-02
     Est. extremal eigenvalues:    0.263E+01   0.184E+00
     Est. condition number :    0.143E+02
     NS sqrt iter    1 1.00000000   0.687E+00       0.001       51.390
     NS sqrt iter    2 1.00000000   0.313E+00       0.001       93.784
     NS sqrt iter    3 1.00000000   0.653E-01       0.001       94.188
     NS sqrt iter    4 1.00000000   0.130E-02       0.001       83.435
     NS sqrt iter    5 1.00000000   0.213E-07       0.001       48.129
     Final NS sqrt iter    5 1.00000000   0.228E-08

     Est. extremal eigenvalues     -0.93384     1.64549  converged:  T
     TRS4 it   1 1.00000000   0.863E+00       0.000       16.128   0.100E-07
     TRS4 it   2 1.00000000   0.591E+00       0.001       32.256   0.100E-07
     TRS4 it   3 1.00000000   0.388E+00       0.001       32.256   0.100E-07
     TRS4 it   4 1.00000000   0.178E+00       0.001       32.256   0.100E-07
     TRS4 it   5 1.00000000   0.450E-01       0.001       32.256   0.100E-07
     TRS4 it   6 1.00000000   0.357E-02       0.001       32.256   0.100E-07
     TRS4 it   7 1.00000000   0.291E-04       0.001       32.256   0.100E-07
     TRS4 it   8 1.00000000   0.245E-08       0.001       32.256   0.100E-07
     Final TRS4 iteration    8 1.00000000   0.245E-08
     Chemical potential (mu):       0.03823
 
 PAO| energy:  -7.7165103933489982      penalty:   9.2076781972894170E-005
 PAO|LS| Need extra step
 PAO|LS| adapt:  T T T
 PAO|LS| adapt: scan_steps:    0.0000000000000000       0.40000000000000002       0.80000000000000004     
 PAO|LS| adapt: energies:   -7.6254455050953194       -7.7712844621510007       -7.7165103933489982     
 PAO|LS| adapt: suggested step_size:   0.49078661553939279     
 PAO|LS| adapt: predicted energy  -7.7764516327753910     
 PAO| ======================= Iteration:         6 =============================

     Lanczos converged:  T threshold:   0.100E-02
     Est. extremal eigenvalues:    0.289E+01   0.164E+00
     Est. condition number :    0.176E+02
     NS sqrt iter    1 1.00000000   0.733E+00       0.001       57.480
     NS sqrt iter    2 1.00000000   0.359E+00       0.001       97.026
     NS sqrt iter    3 1.00000000   0.946E-01       0.001       88.600
     NS sqrt iter    4 1.00000000   0.347E-02       0.001       89.908
     NS sqrt iter    5 1.00000000   0.333E-06       0.001       77.116
     Final NS sqrt iter    5 1.00000000   0.165E-09

     Est. extremal eigenvalues     -0.93406     1.69671  converged:  T
     TRS4 it   1 1.00000000   0.867E+00       0.000       16.128   0.100E-07
     TRS4 it   2 1.00000000   0.618E+00       0.001       32.256   0.100E-07
     TRS4 it   3 1.00000000   0.424E+00       0.001       32.256   0.100E-07
     TRS4 it   4 1.00000000   0.220E+00       0.001       32.256   0.100E-07
     TRS4 it   5 1.00000000   0.731E-01       0.001       32.256   0.100E-07
     TRS4 it   6 1.00000000   0.102E-01       0.001       32.256   0.100E-07
     TRS4 it   7 1.00000000   0.273E-03       0.001       32.256   0.100E-07
     TRS4 it   8 1.00000000   0.281E-06       0.001       32.256   0.100E-07
     TRS4 it   9 1.00000000   0.351E-12       0.001       32.256   0.100E-07
     Final TRS4 iteration    9 1.00000000   0.351E-12
     Chemical potential (mu):       0.00210
 
 PAO| energy:  -7.7757375974568825      penalty:   1.3042507035850922E-005
 PAO|CG| warming up with steepest descent
 PAO|CG| beta:    0.0000000000000000     
 PAO| norm of gradient:  0.41757195371840528     
 PAO| energy improvement: -0.15029209236156316     
 PAO| step      6                   -7.775737597  0.261E-01  0.491E+00     0.094
 PAO|LS| adapt:  T F F
 PAO|LS| adapt: scan_steps:    0.0000000000000000        0.0000000000000000        0.0000000000000000     
 PAO|LS| adapt: energies:   -7.7757375974568825        0.0000000000000000        0.0000000000000000     
 PAO| ======================= Iteration:         7 =============================

     Lanczos converged:  T threshold:   0.100E-02
     Est. extremal eigenvalues:    0.281E+01   0.178E+00
     Est. condition number :    0.158E+02
     NS sqrt iter    1 1.00000000   0.716E+00       0.001       57.912
     NS sqrt iter    2 1.00000000   0.338E+00       0.001       96.288
     NS sqrt iter    3 1.00000000   0.790E-01       0.001       94.242
     NS sqrt iter    4 1.00000000   0.211E-02       0.001       96.327
     NS sqrt iter    5 1.00000000   0.836E-07       0.001       69.219
     Final NS sqrt iter    5 1.00000000   0.888E-09

     Est. extremal eigenvalues     -0.93579     1.68437  converged:  T
     TRS4 it   1 1.00000000   0.866E+00       0.001       16.128   0.100E-07
     TRS4 it   2 1.00000000   0.616E+00       0.001       32.256   0.100E-07
     TRS4 it   3 1.00000000   0.424E+00       0.001       32.256   0.100E-07
     TRS4 it   4 1.00000000   0.221E+00       0.001       32.256   0.100E-07
     TRS4 it   5 1.00000000   0.737E-01       0.001       32.256   0.100E-07
     TRS4 it   6 1.00000000   0.101E-01       0.001       32.256   0.100E-07
     TRS4 it   7 1.00000000   0.254E-03       0.001       32.256   0.100E-07
     TRS4 it   8 1.00000000   0.230E-06       0.001       32.256   0.100E-07
     TRS4 it   9 1.00000000   0.230E-12       0.001       32.256   0.100E-07
     Final TRS4 iteration    9 1.00000000   0.230E-12
     Chemical potential (mu):       0.00430
 
 PAO| energy:  -7.7698627385107342      penalty:   1.9780526135180264E-005
 PAO|LS| adapt:  T F T
 PAO|LS| adapt: scan_steps:    0.0000000000000000        0.0000000000000000       0.49078661553939279     
 PAO|LS| adapt: energies:   -7.7757375974568825        0.0000000000000000       -7.7698627385107342     
 PAO| ======================= Iteration:         8 =============================

     Lanczos converged:  T threshold:   0.100E-02
     Est. extremal eigenvalues:    0.285E+01   0.171E+00
     Est. condition number :    0.167E+02
     NS sqrt iter    1 1.00000000   0.725E+00       0.001       51.014
     NS sqrt iter    2 1.00000000   0.349E+00       0.001       90.899
     NS sqrt iter    3 1.00000000   0.866E-01       0.001      100.852
     NS sqrt iter    4 1.00000000   0.272E-02       0.001       82.529
     NS sqrt iter    5 1.00000000   0.170E-06       0.001       63.156
     Final NS sqrt iter    5 1.00000000   0.139E-08

     Est. extremal eigenvalues     -0.93587     1.68988  converged:  T
     TRS4 it   1 1.00000000   0.866E+00       0.000       16.128   0.100E-07
     TRS4 it   2 1.00000000   0.616E+00       0.001       32.256   0.100E-07
     TRS4 it   3 1.00000000   0.424E+00       0.001       32.256   0.100E-07
     TRS4 it   4 1.00000000   0.219E+00       0.001       32.256   0.100E-07
     TRS4 it   5 1.00000000   0.731E-01       0.001       32.256   0.100E-07
     TRS4 it   6 1.00000000   0.102E-01       0.001       32.256   0.100E-07
     TRS4 it   7 1.00000000   0.270E-03       0.001       32.256   0.100E-07
     TRS4 it   8 1.00000000   0.270E-06       0.001       32.256   0.100E-07
     TRS4 it   9 1.00000000   0.322E-12       0.001       32.256   0.100E-07
     Final TRS4 iteration    9 1.00000000   0.322E-12
     Chemical potential (mu):       0.00272
 
 PAO| energy:  -7.7954223548654573      penalty:   1.4150437315377997E-005
 PAO|LS| adapt:  T T T
 PAO|LS| adapt: scan_steps:    0.0000000000000000       0.24539330776969639       0.49078661553939279     
 PAO|LS| adapt: energies:   -7.7757375974568825       -7.7954223548654573       -7.7698627385107342     
 PAO|LS| adapt: suggested step_size:   0.22946148078698764     
 PAO|LS| adapt: predicted energy  -7.7955177091735361     
 PAO| ======================= Iteration:         9 =============================

     Lanczos converged:  T threshold:   0.100E-02
     Est. extremal eigenvalues:    0.285E+01   0.170E+00
     Est. condition number :    0.167E+02
     NS sqrt iter    1 1.00000000   0.725E+00       0.001       58.459
     NS sqrt iter    2 1.00000000   0.349E+00       0.001       87.473
     NS sqrt iter    3 1.00000000   0.871E-01       0.001       75.576
     NS sqrt iter    4 1.00000000   0.276E-02       0.001       96.571
     NS sqrt iter    5 1.00000000   0.178E-06       0.001       66.911
     Final NS sqrt iter    5 1.00000000   0.121E-08

     Est. extremal eigenvalues     -0.93581     1.69028  converged:  T
     TRS4 it   1 1.00000000   0.866E+00       0.000       16.128   0.100E-07
     TRS4 it   2 1.00000000   0.616E+00       0.001       32.256   0.100E-07
     TRS4 it   3 1.00000000   0.424E+00       0.001       32.256   0.100E-07
     TRS4 it   4 1.00000000   0.219E+00       0.001       32.256   0.100E-07
     TRS4 it   5 1.00000000   0.731E-01       0.001       32.256   0.100E-07
     TRS4 it   6 1.00000000   0.102E-01       0.001       32.256   0.100E-07
     TRS4 it   7 1.00000000   0.271E-03       0.001       32.256   0.100E-07
     TRS4 it   8 1.00000000   0.272E-06       0.001       32.256   0.100E-07
     TRS4 it   9 1.00000000   0.326E-12       0.001       32.256   0.100E-07
     Final TRS4 iteration    9 1.00000000   0.326E-12
     Chemical potential (mu):       0.00265
 
 PAO| energy:  -7.7955415841393600      penalty:   1.3979301769233602E-005
 PAO|CG| trace_G_new    3.6961083400632422E-002
 PAO|CG| trace_G_prev   0.17436633653220598     
 PAO|CG| trace_G_mix   -1.4514031557039406E-003
 PAO|CG| trace_D   0.17436633653220598     
 PAO|CG| trace_D_Gnew   1.4514031557039406E-003
 PAO|CG| beta:   0.22029760629421413     
 PAO| norm of gradient:  0.19225265511985112     
 PAO| energy improvement:  -1.9803986682477515E-002
 PAO| step      9                   -7.795541584  0.120E-01  0.229E+00     0.059
 PAO|LS| adapt:  T F F
 PAO|LS| adapt: scan_steps:    0.0000000000000000        0.0000000000000000        0.0000000000000000     
 PAO|LS| adapt: energies:   -7.7955415841393600        0.0000000000000000        0.0000000000000000     
 PAO| ======================= Iteration:        10 =============================

     Lanczos converged:  T threshold:   0.100E-02
     Est. extremal eigenvalues:    0.282E+01   0.176E+00
     Est. condition number :    0.160E+02
     NS sqrt iter    1 1.00000000   0.718E+00       0.001       45.456
     NS sqrt iter    2 1.00000000   0.341E+00       0.002       73.073
     NS sqrt iter    3 1.00000000   0.815E-01       0.001       88.678
     NS sqrt iter    4 1.00000000   0.227E-02       0.001       82.853
     NS sqrt iter    5 1.00000000   0.993E-07       0.001       71.418
     Final NS sqrt iter    5 1.00000000   0.103E-08

     Est. extremal eigenvalues     -0.93670     1.68645  converged:  T
     TRS4 it   1 1.00000000   0.864E+00       0.000       16.128   0.100E-07
     TRS4 it   2 1.00000000   0.615E+00       0.001       32.256   0.100E-07
     TRS4 it   3 1.00000000   0.422E+00       0.001       32.256   0.100E-07
     TRS4 it   4 1.00000000   0.217E+00       0.001       32.256   0.100E-07
     TRS4 it   5 1.00000000   0.712E-01       0.005        6.270   0.100E-07
     TRS4 it   6 1.00000000   0.961E-02       0.001       32.256   0.100E-07
     TRS4 it   7 1.00000000   0.235E-03       0.001       32.256   0.100E-07
     TRS4 it   8 1.00000000   0.200E-06       0.001       32.120   0.100E-07
     TRS4 it   9 1.00000000   0.174E-12       0.001       30.408   0.100E-07
     Final TRS4 iteration    9 1.00000000   0.174E-12
     Chemical potential (mu):       0.00588
 
 PAO| energy:  -7.8005923787580915      penalty:   1.4523703589281905E-005
 PAO|LS| adapt:  T T F
 PAO|LS| adapt: scan_steps:    0.0000000000000000       0.22946148078698764        0.0000000000000000     
 PAO|LS| adapt: energies:   -7.7955415841393600       -7.8005923787580915        0.0000000000000000     
 PAO| ======================= Iteration:        11 =============================

     Lanczos converged:  T threshold:   0.100E-02
     Est. extremal eigenvalues:    0.278E+01   0.182E+00
     Est. condition number :    0.153E+02
     NS sqrt iter    1 1.00000000   0.710E+00       0.002       39.432
     NS sqrt iter    2 1.00000000   0.333E+00       0.002       61.625
     NS sqrt iter    3 1.00000000   0.761E-01       0.002       58.165
     NS sqrt iter    4 1.00000000   0.186E-02       0.002       61.678
     NS sqrt iter    5 1.00000000   0.546E-07       0.002       40.978
     Final NS sqrt iter    5 1.00000000   0.404E-09

     Est. extremal eigenvalues     -0.93661     1.68410  converged:  T
     TRS4 it   1 1.00000000   0.863E+00       0.001       16.128   0.100E-07
     TRS4 it   2 1.00000000   0.614E+00       0.001       32.256   0.100E-07
     TRS4 it   3 1.00000000   0.420E+00       0.001       32.256   0.100E-07
     TRS4 it   4 1.00000000   0.215E+00       0.001       32.256   0.100E-07
     TRS4 it   5 1.00000000   0.693E-01       0.001       32.256   0.100E-07
     TRS4 it   6 1.00000000   0.905E-02       0.001       32.256   0.100E-07
     TRS4 it   7 1.00000000   0.205E-03       0.001       32.256   0.100E-07
     TRS4 it   8 1.00000000   0.146E-06       0.001       30.401   0.100E-07
     TRS4 it   9 1.00000000   0.932E-13       0.001       30.263   0.100E-07
     Final TRS4 iteration    9 1.00000000   0.932E-13
     Chemical potential (mu):       0.00922
 
 PAO| energy:  -7.7991729329467141      penalty:   1.5741664974109814E-005
 PAO|LS| adapt:  T T T
 PAO|LS| adapt: scan_steps:    0.0000000000000000       0.22946148078698764       0.45892296157397527     
 PAO|LS| adapt: energies:   -7.7955415841393600       -7.8005923787580915       -7.7991729329467141     
 PAO|LS| adapt: suggested step_size:   0.29385280314898343     
 PAO|LS| adapt: predicted energy  -7.8008471354070741     
 PAO| ======================= Iteration:        12 =============================

     Lanczos converged:  T threshold:   0.100E-02
     Est. extremal eigenvalues:    0.281E+01   0.178E+00
     Est. condition number :    0.158E+02
     NS sqrt iter    1 1.00000000   0.715E+00       0.002       36.197
     NS sqrt iter    2 1.00000000   0.339E+00       0.002       62.345
     NS sqrt iter    3 1.00000000   0.800E-01       0.002       60.429
     NS sqrt iter    4 1.00000000   0.215E-02       0.002       60.919
     NS sqrt iter    5 1.00000000   0.840E-07       0.002       44.226
     Final NS sqrt iter    5 1.00000000   0.102E-08

     Est. extremal eigenvalues     -0.93677     1.68564  converged:  T
     TRS4 it   1 1.00000000   0.864E+00       0.001       16.128   0.100E-07
     TRS4 it   2 1.00000000   0.615E+00       0.001       32.256   0.100E-07
     TRS4 it   3 1.00000000   0.421E+00       0.001       32.256   0.100E-07
     TRS4 it   4 1.00000000   0.216E+00       0.001       21.723   0.100E-07
     TRS4 it   5 1.00000000   0.706E-01       0.001       29.328   0.100E-07
     TRS4 it   6 1.00000000   0.945E-02       0.001       32.256   0.100E-07
     TRS4 it   7 1.00000000   0.226E-03       0.001       32.256   0.100E-07
     TRS4 it   8 1.00000000   0.183E-06       0.001       28.909   0.100E-07
     TRS4 it   9 1.00000000   0.146E-12       0.001       31.871   0.100E-07
     Final TRS4 iteration    9 1.00000000   0.146E-12
     Chemical potential (mu):       0.00681
 
 PAO| energy:  -7.8008309647050318      penalty:   1.4789818305282451E-005
 PAO|CG| trace_G_new    1.1849868111538119E-002
 PAO|CG| trace_G_prev    3.6961083400632422E-002
 PAO|CG| trace_G_mix   -4.5658569323391517E-004
 PAO|CG| trace_D    4.4783780958863109E-002
 PAO|CG| trace_D_Gnew   2.0937050196413189E-004
 PAO|CG| beta:   0.33295706382247076     
 PAO| norm of gradient:  0.10885709949993211     
 PAO| energy improvement:  -5.2893805656717419E-003
 PAO| step     12                   -7.800830965  0.680E-02  0.294E+00     0.086
 PAO|LS| adapt:  T F F
 PAO|LS| adapt: scan_steps:    0.0000000000000000        0.0000000000000000        0.0000000000000000     
 PAO|LS| adapt: energies:   -7.8008309647050318        0.0000000000000000        0.0000000000000000     
 PAO| ======================= Iteration:        13 =============================

     Lanczos converged:  T threshold:   0.100E-02
     Est. extremal eigenvalues:    0.277E+01   0.182E+00
     Est. condition number :    0.152E+02
     NS sqrt iter    1 1.00000000   0.708E+00       0.001       60.568
     NS sqrt iter    2 1.00000000   0.332E+00       0.001       98.924
     NS sqrt iter    3 1.00000000   0.756E-01       0.001       96.908
     NS sqrt iter    4 1.00000000   0.183E-02       0.001       95.976
     NS sqrt iter    5 1.00000000   0.529E-07       0.001       60.817
     Final NS sqrt iter    5 1.00000000   0.398E-09

     Est. extremal eigenvalues     -0.93726     1.67970  converged:  T
     TRS4 it   1 1.00000000   0.864E+00       0.000       16.128   0.100E-07
     TRS4 it   2 1.00000000   0.612E+00       0.001       32.256   0.100E-07
     TRS4 it   3 1.00000000   0.417E+00       0.001       32.256   0.100E-07
     TRS4 it   4 1.00000000   0.211E+00       0.001       32.256   0.100E-07
     TRS4 it   5 1.00000000   0.671E-01       0.001       32.256   0.100E-07
     TRS4 it   6 1.00000000   0.848E-02       0.001       32.256   0.100E-07
     TRS4 it   7 1.00000000   0.179E-03       0.001       32.256   0.100E-07
     TRS4 it   8 1.00000000   0.112E-06       0.001       32.256   0.100E-07
     TRS4 it   9 1.00000000   0.541E-13       0.001       32.256   0.100E-07
     Final TRS4 iteration    9 1.00000000   0.541E-13
     Chemical potential (mu):       0.01143
 
 PAO| energy:  -7.8029025711186399      penalty:   1.5101535947560161E-005
 PAO|LS| adapt:  T T F
 PAO|LS| adapt: scan_steps:    0.0000000000000000       0.29385280314898343        0.0000000000000000     
 PAO|LS| adapt: energies:   -7.8008309647050318       -7.8029025711186399        0.0000000000000000     
 PAO| ======================= Iteration:        14 =============================

     Lanczos converged:  T threshold:   0.100E-02
     Est. extremal eigenvalues:    0.274E+01   0.186E+00
     Est. condition number :    0.147E+02
     NS sqrt iter    1 1.00000000   0.702E+00       0.001       53.150
     NS sqrt iter    2 1.00000000   0.325E+00       0.002       67.983
     NS sqrt iter    3 1.00000000   0.716E-01       0.001       87.744
     NS sqrt iter    4 1.00000000   0.156E-02       0.001       97.563
     NS sqrt iter    5 1.00000000   0.332E-07       0.001       62.048
     Final NS sqrt iter    5 1.00000000   0.225E-08

     Est. extremal eigenvalues     -0.93723     1.67411  converged:  T
     TRS4 it   1 1.00000000   0.863E+00       0.000       16.128   0.100E-07
     TRS4 it   2 1.00000000   0.609E+00       0.001       32.256   0.100E-07
     TRS4 it   3 1.00000000   0.413E+00       0.001       32.256   0.100E-07
     TRS4 it   4 1.00000000   0.207E+00       0.001       32.256   0.100E-07
     TRS4 it   5 1.00000000   0.638E-01       0.001       32.256   0.100E-07
     TRS4 it   6 1.00000000   0.761E-02       0.001       32.256   0.100E-07
     TRS4 it   7 1.00000000   0.143E-03       0.001       32.256   0.100E-07
     TRS4 it   8 1.00000000   0.687E-07       0.001       32.256   0.100E-07
     Final TRS4 iteration    8 1.00000000   0.687E-07
     Chemical potential (mu):       0.01336
 
 PAO| energy:  -7.8022437889197764      penalty:   1.5895959817294050E-005
 PAO|LS| adapt:  T T T
 PAO|LS| adapt: scan_steps:    0.0000000000000000       0.29385280314898343       0.58770560629796686     
 PAO|LS| adapt: energies:   -7.8008309647050318       -7.8029025711186399       -7.8022437889197764     
 PAO|LS| adapt: suggested step_size:   0.36987904241088360     
 PAO|LS| adapt: predicted energy  -7.8029939533605601     
 PAO| ======================= Iteration:        15 =============================

     Lanczos converged:  T threshold:   0.100E-02
     Est. extremal eigenvalues:    0.276E+01   0.183E+00
     Est. condition number :    0.151E+02
     NS sqrt iter    1 1.00000000   0.707E+00       0.011        5.869
     NS sqrt iter    2 1.00000000   0.330E+00       0.002       69.179
     NS sqrt iter    3 1.00000000   0.746E-01       0.002       66.445
     NS sqrt iter    4 1.00000000   0.176E-02       0.011       10.057
     NS sqrt iter    5 1.00000000   0.469E-07       0.004       18.573
     Final NS sqrt iter    5 1.00000000   0.340E-09

     Est. extremal eigenvalues     -0.93730     1.67822  converged:  T
     TRS4 it   1 1.00000000   0.864E+00       0.001       16.128   0.100E-07
     TRS4 it   2 1.00000000   0.611E+00       0.001       32.256   0.100E-07
     TRS4 it   3 1.00000000   0.416E+00       0.001       32.256   0.100E-07
     TRS4 it   4 1.00000000   0.210E+00       0.001       32.256   0.100E-07
     TRS4 it   5 1.00000000   0.663E-01       0.001       32.256   0.100E-07
     TRS4 it   6 1.00000000   0.824E-02       0.001       32.256   0.100E-07
     TRS4 it   7 1.00000000   0.169E-03       0.001       32.256   0.100E-07
     TRS4 it   8 1.00000000   0.988E-07       0.001       32.256   0.100E-07
     TRS4 it   9 1.00000000   0.419E-13       0.001       30.267   0.100E-07
     Final TRS4 iteration    9 1.00000000   0.419E-13
     Chemical potential (mu):       0.01261
 
 PAO| energy:  -7.8029909389479162      penalty:   1.5257751088714603E-005
 PAO|CG| trace_G_new    2.6156173487884822E-003
 PAO|CG| trace_G_prev    1.1849868111538119E-002
 PAO|CG| trace_G_mix    6.5858115326830285E-005
 PAO|CG| trace_D    1.6675193491324840E-002
 PAO|CG| trace_D_Gnew   3.3970301911016208E-005
 PAO|CG| beta:   0.21517195039318390     
 PAO| norm of gradient:   5.1143106561769222E-002
 PAO| energy improvement:  -2.1599742428843882E-003
 PAO| step     15                   -7.802990939  0.320E-02  0.370E+00     0.093
 PAO|LS| adapt:  T F F
 PAO|LS| adapt: scan_steps:    0.0000000000000000        0.0000000000000000        0.0000000000000000     
 PAO|LS| adapt: energies:   -7.8029909389479162        0.0000000000000000        0.0000000000000000     
 PAO| ======================= Iteration:        16 =============================

     Lanczos converged:  T threshold:   0.100E-02
     Est. extremal eigenvalues:    0.275E+01   0.184E+00
     Est. condition number :    0.150E+02
     NS sqrt iter    1 1.00000000   0.705E+00       0.002       41.346
     NS sqrt iter    2 1.00000000   0.329E+00       0.002       69.234
     NS sqrt iter    3 1.00000000   0.739E-01       0.002       61.870
     NS sqrt iter    4 1.00000000   0.171E-02       0.002       66.215
     NS sqrt iter    5 1.00000000   0.429E-07       0.002       46.344
     Final NS sqrt iter    5 1.00000000   0.325E-09

     Est. extremal eigenvalues     -0.93733     1.67815  converged:  T
     TRS4 it   1 1.00000000   0.864E+00       0.001       16.128   0.100E-07
     TRS4 it   2 1.00000000   0.610E+00       0.001       32.256   0.100E-07
     TRS4 it   3 1.00000000   0.415E+00       0.001       32.256   0.100E-07
     TRS4 it   4 1.00000000   0.209E+00       0.001       32.256   0.100E-07
     TRS4 it   5 1.00000000   0.652E-01       0.001       31.479   0.100E-07
     TRS4 it   6 1.00000000   0.799E-02       0.001       32.256   0.100E-07
     TRS4 it   7 1.00000000   0.159E-03       0.001       32.256   0.100E-07
     TRS4 it   8 1.00000000   0.887E-07       0.001       32.256   0.100E-07
     TRS4 it   9 1.00000000   0.335E-13       0.001       32.256   0.100E-07
     Final TRS4 iteration    9 1.00000000   0.335E-13
     Chemical potential (mu):       0.01345
 
 PAO| energy:  -7.8031182813637185      penalty:   1.5038984797339753E-005
 PAO|LS| adapt:  T T F
 PAO|LS| adapt: scan_steps:    0.0000000000000000       0.36987904241088360        0.0000000000000000     
 PAO|LS| adapt: energies:   -7.8029909389479162       -7.8031182813637185        0.0000000000000000     
 PAO| ======================= Iteration:        17 =============================

     Lanczos converged:  T threshold:   0.100E-02
     Est. extremal eigenvalues:    0.275E+01   0.184E+00
     Est. condition number :    0.149E+02
     NS sqrt iter    1 1.00000000   0.703E+00       0.003       21.727
     NS sqrt iter    2 1.00000000   0.327E+00       0.002       64.901
     NS sqrt iter    3 1.00000000   0.733E-01       0.002       68.084
     NS sqrt iter    4 1.00000000   0.166E-02       0.002       69.115
     NS sqrt iter    5 1.00000000   0.394E-07       0.002       44.237
     Final NS sqrt iter    5 1.00000000   0.311E-09

     Est. extremal eigenvalues     -0.93723     1.67816  converged:  T
     TRS4 it   1 1.00000000   0.864E+00       0.001       16.128   0.100E-07
     TRS4 it   2 1.00000000   0.610E+00       0.001       32.256   0.100E-07
     TRS4 it   3 1.00000000   0.414E+00       0.001       32.256   0.100E-07
     TRS4 it   4 1.00000000   0.207E+00       0.001       32.256   0.100E-07
     TRS4 it   5 1.00000000   0.642E-01       0.001       32.256   0.100E-07
     TRS4 it   6 1.00000000   0.774E-02       0.001       32.256   0.100E-07
     TRS4 it   7 1.00000000   0.150E-03       0.001       32.256   0.100E-07
     TRS4 it   8 1.00000000   0.798E-07       0.001       32.256   0.100E-07
     Final TRS4 iteration    8 1.00000000   0.798E-07
     Chemical potential (mu):       0.01233
 
 PAO| energy:  -7.8015649152582425      penalty:   1.4945213774925726E-005
 PAO|LS| adapt:  T T T
 PAO|LS| adapt: scan_steps:    0.0000000000000000       0.36987904241088360       0.73975808482176719     
 PAO|LS| adapt: energies:   -7.8029909389479162       -7.8031182813637185       -7.8015649152582425     
 PAO|LS| adapt: suggested step_size:   0.21296418474403103     
 PAO|LS| adapt: predicted energy  -7.8032695229039506     
 PAO| ======================= Iteration:        18 =============================

     Lanczos converged:  T threshold:   0.100E-02
     Est. extremal eigenvalues:    0.276E+01   0.183E+00
     Est. condition number :    0.150E+02
     NS sqrt iter    1 1.00000000   0.706E+00       0.002       42.125
     NS sqrt iter    2 1.00000000   0.329E+00       0.002       66.616
     NS sqrt iter    3 1.00000000   0.742E-01       0.002       65.155
     NS sqrt iter    4 1.00000000   0.173E-02       0.002       65.020
     NS sqrt iter    5 1.00000000   0.446E-07       0.002       46.026
     Final NS sqrt iter    5 1.00000000   0.334E-09

     Est. extremal eigenvalues     -0.93733     1.67817  converged:  T
     TRS4 it   1 1.00000000   0.864E+00       0.001       16.128   0.100E-07
     TRS4 it   2 1.00000000   0.611E+00       0.001       32.256   0.100E-07
     TRS4 it   3 1.00000000   0.416E+00       0.001       32.256   0.100E-07
     TRS4 it   4 1.00000000   0.209E+00       0.001       32.256   0.100E-07
     TRS4 it   5 1.00000000   0.657E-01       0.001       32.256   0.100E-07
     TRS4 it   6 1.00000000   0.809E-02       0.001       32.256   0.100E-07
     TRS4 it   7 1.00000000   0.163E-03       0.001       32.256   0.100E-07
     TRS4 it   8 1.00000000   0.928E-07       0.001       32.256   0.100E-07
     TRS4 it   9 1.00000000   0.368E-13       0.001       32.256   0.100E-07
     Final TRS4 iteration    9 1.00000000   0.368E-13
     Chemical potential (mu):       0.01309
 
 PAO| energy:  -7.8032690351778484      penalty:   1.5116793790492348E-005
 PAO|CG| trace_G_new    7.2958613438072351E-004
 PAO|CG| trace_G_prev    2.6156173487884822E-003
 PAO|CG| trace_G_mix    1.7333428647039734E-006
 PAO|CG| trace_D    3.3730426903373217E-003
 PAO|CG| trace_D_Gnew  -1.8354688361818424E-006
 PAO|CG| beta:   0.27827189319307388     
 PAO| norm of gradient:   2.7010852159469599E-002
 PAO| energy improvement:  -2.7809622993224536E-004
 PAO| step     18                   -7.803269035  0.169E-02  0.213E+00     0.081
 PAO|LS| adapt:  T F F
 PAO|LS| adapt: scan_steps:    0.0000000000000000        0.0000000000000000        0.0000000000000000     
 PAO|LS| adapt: energies:   -7.8032690351778484        0.0000000000000000        0.0000000000000000     
 PAO| ======================= Iteration:        19 =============================

     Lanczos converged:  T threshold:   0.100E-02
     Est. extremal eigenvalues:    0.276E+01   0.183E+00
     Est. condition number :    0.151E+02
     NS sqrt iter    1 1.00000000   0.706E+00       0.001       59.281
     NS sqrt iter    2 1.00000000   0.329E+00       0.001       90.644
     NS sqrt iter    3 1.00000000   0.744E-01       0.001       92.853
     NS sqrt iter    4 1.00000000   0.174E-02       0.001       82.709
     NS sqrt iter    5 1.00000000   0.450E-07       0.001       67.994
     Final NS sqrt iter    5 1.00000000   0.331E-09

     Est. extremal eigenvalues     -0.93733     1.67851  converged:  T
     TRS4 it   1 1.00000000   0.864E+00       0.000       16.128   0.100E-07
     TRS4 it   2 1.00000000   0.610E+00       0.001       32.256   0.100E-07
     TRS4 it   3 1.00000000   0.416E+00       0.001       32.256   0.100E-07
     TRS4 it   4 1.00000000   0.209E+00       0.001       32.256   0.100E-07
     TRS4 it   5 1.00000000   0.656E-01       0.001       32.256   0.100E-07
     TRS4 it   6 1.00000000   0.809E-02       0.001       32.256   0.100E-07
     TRS4 it   7 1.00000000   0.164E-03       0.001       32.256   0.100E-07
     TRS4 it   8 1.00000000   0.943E-07       0.001       32.256   0.100E-07
     TRS4 it   9 1.00000000   0.381E-13       0.001       32.256   0.100E-07
     Final TRS4 iteration    9 1.00000000   0.381E-13
     Chemical potential (mu):       0.01282
 
 PAO| energy:  -7.8033876096224706      penalty:   1.4826767147913784E-005
 PAO|LS| adapt:  T T F
 PAO|LS| adapt: scan_steps:    0.0000000000000000       0.21296418474403103        0.0000000000000000     
 PAO|LS| adapt: energies:   -7.8032690351778484       -7.8033876096224706        0.0000000000000000     
 PAO| ======================= Iteration:        20 =============================

     Lanczos converged:  T threshold:   0.100E-02
     Est. extremal eigenvalues:    0.276E+01   0.183E+00
     Est. condition number :    0.151E+02
     NS sqrt iter    1 1.00000000   0.705E+00       0.001       57.672
     NS sqrt iter    2 1.00000000   0.330E+00       0.001       73.798
     NS sqrt iter    3 1.00000000   0.746E-01       0.001       95.641
     NS sqrt iter    4 1.00000000   0.175E-02       0.001       86.964
     NS sqrt iter    5 1.00000000   0.456E-07       0.001       65.472
     Final NS sqrt iter    5 1.00000000   0.340E-09

     Est. extremal eigenvalues     -0.93733     1.67885  converged:  T
     TRS4 it   1 1.00000000   0.864E+00       0.000       16.128   0.100E-07
     TRS4 it   2 1.00000000   0.610E+00       0.001       32.256   0.100E-07
     TRS4 it   3 1.00000000   0.415E+00       0.001       32.256   0.100E-07
     TRS4 it   4 1.00000000   0.209E+00       0.001       32.256   0.100E-07
     TRS4 it   5 1.00000000   0.655E-01       0.001       32.256   0.100E-07
     TRS4 it   6 1.00000000   0.808E-02       0.001       32.256   0.100E-07
     TRS4 it   7 1.00000000   0.165E-03       0.001       32.256   0.100E-07
     TRS4 it   8 1.00000000   0.959E-07       0.001       32.256   0.100E-07
     TRS4 it   9 1.00000000   0.397E-13       0.001       32.256   0.100E-07
     Final TRS4 iteration    9 1.00000000   0.397E-13
     Chemical potential (mu):       0.01255
 
 PAO| energy:  -7.8034319583930012      penalty:   1.4549233090055719E-005
 PAO|LS| adapt:  T T F
 PAO|LS| adapt: scan_steps:    0.0000000000000000       0.42592836948806206        0.0000000000000000     
 PAO|LS| adapt: energies:   -7.8032690351778484       -7.8034319583930012        0.0000000000000000     
 PAO| ======================= Iteration:        21 =============================

     Lanczos converged:  T threshold:   0.100E-02
     Est. extremal eigenvalues:    0.276E+01   0.183E+00
     Est. condition number :    0.151E+02
     NS sqrt iter    1 1.00000000   0.705E+00       0.001       49.630
     NS sqrt iter    2 1.00000000   0.330E+00       0.001       77.553
     NS sqrt iter    3 1.00000000   0.751E-01       0.001       78.329
     NS sqrt iter    4 1.00000000   0.177E-02       0.001       90.965
     NS sqrt iter    5 1.00000000   0.467E-07       0.001       66.925
     Final NS sqrt iter    5 1.00000000   0.355E-09

     Est. extremal eigenvalues     -0.93732     1.67955  converged:  T
     TRS4 it   1 1.00000000   0.864E+00       0.000       16.128   0.100E-07
     TRS4 it   2 1.00000000   0.610E+00       0.001       32.256   0.100E-07
     TRS4 it   3 1.00000000   0.415E+00       0.001       32.256   0.100E-07
     TRS4 it   4 1.00000000   0.209E+00       0.001       32.256   0.100E-07
     TRS4 it   5 1.00000000   0.653E-01       0.001       32.256   0.100E-07
     TRS4 it   6 1.00000000   0.807E-02       0.001       32.256   0.100E-07
     TRS4 it   7 1.00000000   0.166E-03       0.001       32.256   0.100E-07
     TRS4 it   8 1.00000000   0.990E-07       0.001       32.256   0.100E-07
     TRS4 it   9 1.00000000   0.431E-13       0.001       32.256   0.100E-07
     Final TRS4 iteration    9 1.00000000   0.431E-13
     Chemical potential (mu):       0.01199
 
 PAO| energy:  -7.8032955384943534      penalty:   1.4031067375553682E-005
 PAO|LS| Need extra step
 PAO|LS| adapt:  T T T
 PAO|LS| adapt: scan_steps:    0.0000000000000000       0.42592836948806206       0.85185673897612413     
 PAO|LS| adapt: energies:   -7.8032690351778484       -7.8034319583930012       -7.8032955384943534     
 PAO|LS| adapt: suggested step_size:   0.44478384647177976     
 PAO|LS| adapt: predicted energy  -7.8034322517126711     
 PAO| ======================= Iteration:        22 =============================

     Lanczos converged:  T threshold:   0.100E-02
     Est. extremal eigenvalues:    0.276E+01   0.183E+00
     Est. condition number :    0.151E+02
     NS sqrt iter    1 1.00000000   0.705E+00       0.001       57.002
     NS sqrt iter    2 1.00000000   0.330E+00       0.001       94.020
     NS sqrt iter    3 1.00000000   0.746E-01       0.001       90.353
     NS sqrt iter    4 1.00000000   0.175E-02       0.001       96.049
     NS sqrt iter    5 1.00000000   0.456E-07       0.001       65.544
     Final NS sqrt iter    5 1.00000000   0.340E-09

     Est. extremal eigenvalues     -0.93733     1.67888  converged:  T
     TRS4 it   1 1.00000000   0.864E+00       0.000       16.128   0.100E-07
     TRS4 it   2 1.00000000   0.610E+00       0.001       32.256   0.100E-07
     TRS4 it   3 1.00000000   0.415E+00       0.001       32.256   0.100E-07
     TRS4 it   4 1.00000000   0.209E+00       0.001       32.256   0.100E-07
     TRS4 it   5 1.00000000   0.655E-01       0.001       32.256   0.100E-07
     TRS4 it   6 1.00000000   0.808E-02       0.001       32.256   0.100E-07
     TRS4 it   7 1.00000000   0.165E-03       0.001       32.256   0.100E-07
     TRS4 it   8 1.00000000   0.960E-07       0.001       32.256   0.100E-07
     TRS4 it   9 1.00000000   0.397E-13       0.001       32.256   0.100E-07
     Final TRS4 iteration    9 1.00000000   0.397E-13
     Chemical potential (mu):       0.01252
 
 PAO| energy:  -7.8034322877645312      penalty:   1.4525256774953702E-005
 PAO|CG| trace_G_new    2.2548415039226014E-004
 PAO|CG| trace_G_prev    7.2958613438072351E-004
 PAO|CG| trace_G_mix    3.0945274806457435E-006
 PAO|CG| trace_D    9.9180004547706302E-004
 PAO|CG| trace_D_Gnew  -1.9054475011551382E-006
 PAO|CG| beta:   0.30481613127198459     
 PAO| norm of gradient:   1.5016129674195683E-002
 PAO| energy improvement:  -1.6325258668281606E-004
 PAO| step     22                   -7.803432288  0.939E-03  0.445E+00     0.078
 PAO|LS| adapt:  T F F
 PAO|LS| adapt: scan_steps:    0.0000000000000000        0.0000000000000000        0.0000000000000000     
 PAO|LS| adapt: energies:   -7.8034322877645312        0.0000000000000000        0.0000000000000000     
 PAO| ======================= Iteration:        23 =============================

     Lanczos converged:  T threshold:   0.100E-02
     Est. extremal eigenvalues:    0.276E+01   0.183E+00
     Est. condition number :    0.151E+02
     NS sqrt iter    1 1.00000000   0.705E+00       0.001       56.280
     NS sqrt iter    2 1.00000000   0.330E+00       0.001       77.238
     NS sqrt iter    3 1.00000000   0.747E-01       0.001       85.006
     NS sqrt iter    4 1.00000000   0.175E-02       0.001       88.136
     NS sqrt iter    5 1.00000000   0.457E-07       0.001       65.644
     Final NS sqrt iter    5 1.00000000   0.342E-09

     Est. extremal eigenvalues     -0.93733     1.67866  converged:  T
     TRS4 it   1 1.00000000   0.864E+00       0.000       16.128   0.100E-07
     TRS4 it   2 1.00000000   0.610E+00       0.001       32.256   0.100E-07
     TRS4 it   3 1.00000000   0.415E+00       0.001       32.256   0.100E-07
     TRS4 it   4 1.00000000   0.209E+00       0.001       32.256   0.100E-07
     TRS4 it   5 1.00000000   0.655E-01       0.001       32.256   0.100E-07
     TRS4 it   6 1.00000000   0.811E-02       0.001       32.256   0.100E-07
     TRS4 it   7 1.00000000   0.166E-03       0.001       32.256   0.100E-07
     TRS4 it   8 1.00000000   0.982E-07       0.001       32.256   0.100E-07
     TRS4 it   9 1.00000000   0.415E-13       0.001       32.256   0.100E-07
     Final TRS4 iteration    9 1.00000000   0.415E-13
     Chemical potential (mu):       0.01223
 
 PAO| energy:  -7.8034825128343481      penalty:   1.3840675328017128E-005
 PAO|LS| adapt:  T T F
 PAO|LS| adapt: scan_steps:    0.0000000000000000       0.44478384647177976        0.0000000000000000     
 PAO|LS| adapt: energies:   -7.8034322877645312       -7.8034825128343481        0.0000000000000000     
 PAO| ======================= Iteration:        24 =============================

     Lanczos converged:  T threshold:   0.100E-02
     Est. extremal eigenvalues:    0.276E+01   0.183E+00
     Est. condition number :    0.151E+02
     NS sqrt iter    1 1.00000000   0.705E+00       0.001       58.540
     NS sqrt iter    2 1.00000000   0.330E+00       0.001       89.594
     NS sqrt iter    3 1.00000000   0.747E-01       0.001       80.578
     NS sqrt iter    4 1.00000000   0.175E-02       0.001       91.124
     NS sqrt iter    5 1.00000000   0.457E-07       0.001       58.187
     Final NS sqrt iter    5 1.00000000   0.345E-09

     Est. extremal eigenvalues     -0.93733     1.67844  converged:  T
     TRS4 it   1 1.00000000   0.864E+00       0.001       16.128   0.100E-07
     TRS4 it   2 1.00000000   0.610E+00       0.001       28.236   0.100E-07
     TRS4 it   3 1.00000000   0.416E+00       0.001       32.256   0.100E-07
     TRS4 it   4 1.00000000   0.209E+00       0.001       32.256   0.100E-07
     TRS4 it   5 1.00000000   0.656E-01       0.001       32.256   0.100E-07
     TRS4 it   6 1.00000000   0.815E-02       0.001       32.256   0.100E-07
     TRS4 it   7 1.00000000   0.168E-03       0.001       32.256   0.100E-07
     TRS4 it   8 1.00000000   0.100E-06       0.001       32.256   0.100E-07
     TRS4 it   9 1.00000000   0.437E-13       0.001       32.256   0.100E-07
     Final TRS4 iteration    9 1.00000000   0.437E-13
     Chemical potential (mu):       0.01194
 
 PAO| energy:  -7.8034314299163068      penalty:   1.3184754005868765E-005
 PAO|LS| adapt:  T T T
 PAO|LS| adapt: scan_steps:    0.0000000000000000       0.44478384647177976       0.88956769294355953     
 PAO|LS| adapt: energies:   -7.8034322877645312       -7.8034825128343481       -7.8034314299163068     
 PAO|LS| adapt: suggested step_size:   0.44290069272927129     
 PAO|LS| adapt: predicted energy  -7.8034825137423507     
 PAO| ======================= Iteration:        25 =============================

     Lanczos converged:  T threshold:   0.100E-02
     Est. extremal eigenvalues:    0.276E+01   0.183E+00
     Est. condition number :    0.151E+02
     NS sqrt iter    1 1.00000000   0.705E+00       0.001       50.442
     NS sqrt iter    2 1.00000000   0.330E+00       0.002       58.290
     NS sqrt iter    3 1.00000000   0.747E-01       0.002       55.996
     NS sqrt iter    4 1.00000000   0.175E-02       0.002       66.344
     NS sqrt iter    5 1.00000000   0.457E-07       0.002       45.726
     Final NS sqrt iter    5 1.00000000   0.342E-09

     Est. extremal eigenvalues     -0.93733     1.67866  converged:  T
     TRS4 it   1 1.00000000   0.864E+00       0.001       16.128   0.100E-07
     TRS4 it   2 1.00000000   0.610E+00       0.001       32.256   0.100E-07
     TRS4 it   3 1.00000000   0.415E+00       0.001       32.256   0.100E-07
     TRS4 it   4 1.00000000   0.209E+00       0.001       32.256   0.100E-07
     TRS4 it   5 1.00000000   0.655E-01       0.001       32.256   0.100E-07
     TRS4 it   6 1.00000000   0.811E-02       0.001       32.256   0.100E-07
     TRS4 it   7 1.00000000   0.166E-03       0.001       32.256   0.100E-07
     TRS4 it   8 1.00000000   0.982E-07       0.001       32.256   0.100E-07
     TRS4 it   9 1.00000000   0.414E-13       0.001       32.256   0.100E-07
     Final TRS4 iteration    9 1.00000000   0.414E-13
     Chemical potential (mu):       0.01223
 
 PAO| energy:  -7.8034825130456298      penalty:   1.3843512901730081E-005
 PAO|CG| trace_G_new    8.1757689434376569E-005
 PAO|CG| trace_G_prev    2.2548415039226014E-004
 PAO|CG| trace_G_mix    7.4556883937069915E-007
 PAO|CG| trace_D    3.1879676520672691E-004
 PAO|CG| trace_D_Gnew  -3.7007002691457829E-007
 PAO|CG| beta:   0.35928077629436189     
 PAO| norm of gradient:   9.0419958767064563E-003
 PAO| energy improvement:  -5.0225281098548180E-005
 PAO| step     25                   -7.803482513  0.565E-03  0.443E+00     0.068
 PAO|LS| adapt:  T F F
 PAO|LS| adapt: scan_steps:    0.0000000000000000        0.0000000000000000        0.0000000000000000     
 PAO|LS| adapt: energies:   -7.8034825130456298        0.0000000000000000        0.0000000000000000     
 PAO| ======================= Iteration:        26 =============================

     Lanczos converged:  T threshold:   0.100E-02
     Est. extremal eigenvalues:    0.276E+01   0.183E+00
     Est. condition number :    0.151E+02
     NS sqrt iter    1 1.00000000   0.705E+00       0.001       44.845
     NS sqrt iter    2 1.00000000   0.330E+00       0.001       87.712
     NS sqrt iter    3 1.00000000   0.746E-01       0.002       68.929
     NS sqrt iter    4 1.00000000   0.174E-02       0.002       66.757
     NS sqrt iter    5 1.00000000   0.454E-07       0.002       45.331
     Final NS sqrt iter    5 1.00000000   0.338E-09

     Est. extremal eigenvalues     -0.93733     1.67831  converged:  T
     TRS4 it   1 1.00000000   0.864E+00       0.001       16.128   0.100E-07
     TRS4 it   2 1.00000000   0.610E+00       0.001       32.256   0.100E-07
     TRS4 it   3 1.00000000   0.415E+00       0.001       32.256   0.100E-07
     TRS4 it   4 1.00000000   0.209E+00       0.001       32.256   0.100E-07
     TRS4 it   5 1.00000000   0.654E-01       0.001       32.256   0.100E-07
     TRS4 it   6 1.00000000   0.809E-02       0.001       32.256   0.100E-07
     TRS4 it   7 1.00000000   0.165E-03       0.001       32.256   0.100E-07
     TRS4 it   8 1.00000000   0.966E-07       0.001       32.256   0.100E-07
     TRS4 it   9 1.00000000   0.407E-13       0.001       32.256   0.100E-07
     Final TRS4 iteration    9 1.00000000   0.407E-13
     Chemical potential (mu):       0.01238
 
 PAO| energy:  -7.8034869468280830      penalty:   1.3115927886375972E-005
 PAO|LS| adapt:  T T F
 PAO|LS| adapt: scan_steps:    0.0000000000000000       0.44290069272927129        0.0000000000000000     
 PAO|LS| adapt: energies:   -7.8034825130456298       -7.8034869468280830        0.0000000000000000     
 PAO| ======================= Iteration:        27 =============================

     Lanczos converged:  T threshold:   0.100E-02
     Est. extremal eigenvalues:    0.276E+01   0.183E+00
     Est. condition number :    0.151E+02
     NS sqrt iter    1 1.00000000   0.705E+00       0.001       58.820
     NS sqrt iter    2 1.00000000   0.329E+00       0.001       84.379
     NS sqrt iter    3 1.00000000   0.745E-01       0.001       94.450
     NS sqrt iter    4 1.00000000   0.174E-02       0.001       87.757
     NS sqrt iter    5 1.00000000   0.451E-07       0.002       42.488
     Final NS sqrt iter    5 1.00000000   0.343E-09

     Est. extremal eigenvalues     -0.93733     1.67796  converged:  T
     TRS4 it   1 1.00000000   0.864E+00       0.001       16.128   0.100E-07
     TRS4 it   2 1.00000000   0.610E+00       0.001       32.256   0.100E-07
     TRS4 it   3 1.00000000   0.415E+00       0.001       32.256   0.100E-07
     TRS4 it   4 1.00000000   0.209E+00       0.001       32.256   0.100E-07
     TRS4 it   5 1.00000000   0.654E-01       0.001       32.256   0.100E-07
     TRS4 it   6 1.00000000   0.807E-02       0.001       32.256   0.100E-07
     TRS4 it   7 1.00000000   0.164E-03       0.001       32.256   0.100E-07
     TRS4 it   8 1.00000000   0.952E-07       0.001       32.256   0.100E-07
     TRS4 it   9 1.00000000   0.389E-13       0.001       32.256   0.100E-07
     Final TRS4 iteration    9 1.00000000   0.389E-13
     Chemical potential (mu):       0.01253
 
 PAO| energy:  -7.8034275960274364      penalty:   1.2412473626598198E-005
 PAO|LS| adapt:  T T T
 PAO|LS| adapt: scan_steps:    0.0000000000000000       0.44290069272927129       0.88580138545854259     
 PAO|LS| adapt: energies:   -7.8034825130456298       -7.8034869468280830       -7.8034275960274364     
 PAO|LS| adapt: suggested step_size:   0.25223717955370073     
 PAO|LS| adapt: predicted energy  -7.8034928571098874     
 PAO| ======================= Iteration:        28 =============================

     Lanczos converged:  T threshold:   0.100E-02
     Est. extremal eigenvalues:    0.276E+01   0.183E+00
     Est. condition number :    0.151E+02
     NS sqrt iter    1 1.00000000   0.705E+00       0.002       41.922
     NS sqrt iter    2 1.00000000   0.330E+00       0.002       67.002
     NS sqrt iter    3 1.00000000   0.746E-01       0.002       68.108
     NS sqrt iter    4 1.00000000   0.175E-02       0.002       66.164
     NS sqrt iter    5 1.00000000   0.455E-07       0.001       47.800
     Final NS sqrt iter    5 1.00000000   0.339E-09

     Est. extremal eigenvalues     -0.93733     1.67847  converged:  T
     TRS4 it   1 1.00000000   0.864E+00       0.001       16.128   0.100E-07
     TRS4 it   2 1.00000000   0.610E+00       0.001       32.256   0.100E-07
     TRS4 it   3 1.00000000   0.415E+00       0.001       32.256   0.100E-07
     TRS4 it   4 1.00000000   0.209E+00       0.001       32.256   0.100E-07
     TRS4 it   5 1.00000000   0.655E-01       0.001       32.256   0.100E-07
     TRS4 it   6 1.00000000   0.810E-02       0.001       32.256   0.100E-07
     TRS4 it   7 1.00000000   0.166E-03       0.001       32.256   0.100E-07
     TRS4 it   8 1.00000000   0.973E-07       0.001       32.256   0.100E-07
     TRS4 it   9 1.00000000   0.410E-13       0.001       32.256   0.100E-07
     Final TRS4 iteration    9 1.00000000   0.410E-13
     Chemical potential (mu):       0.01232
 
 PAO| energy:  -7.8034928478614276      penalty:   1.3426166686665879E-005
 PAO|CG| trace_G_new    3.3362503511370588E-005
 PAO|CG| trace_G_prev    8.1757689434376569E-005
 PAO|CG| trace_G_mix    5.4849881361821859E-008
 PAO|CG| trace_D    1.2317474714894992E-004
 PAO|CG| trace_D_Gnew  -2.5065706002852688E-008
 PAO|CG| beta:   0.40739475222992216     
 PAO| norm of gradient:   5.7760283509839692E-003
 PAO| energy improvement:  -1.0334815797818919E-005
 PAO| step     28                   -7.803492848  0.361E-03  0.252E+00     0.075
 PAO|LS| adapt:  T F F
 PAO|LS| adapt: scan_steps:    0.0000000000000000        0.0000000000000000        0.0000000000000000     
 PAO|LS| adapt: energies:   -7.8034928478614276        0.0000000000000000        0.0000000000000000     
 PAO| ======================= Iteration:        29 =============================

     Lanczos converged:  T threshold:   0.100E-02
     Est. extremal eigenvalues:    0.276E+01   0.183E+00
     Est. condition number :    0.151E+02
     NS sqrt iter    1 1.00000000   0.705E+00       0.002       39.838
     NS sqrt iter    2 1.00000000   0.329E+00       0.002       65.795
     NS sqrt iter    3 1.00000000   0.745E-01       0.002       68.449
     NS sqrt iter    4 1.00000000   0.174E-02       0.002       67.467
     NS sqrt iter    5 1.00000000   0.454E-07       0.001       47.592
     Final NS sqrt iter    5 1.00000000   0.339E-09

     Est. extremal eigenvalues     -0.93733     1.67838  converged:  T
     TRS4 it   1 1.00000000   0.864E+00       0.001       16.128   0.100E-07
     TRS4 it   2 1.00000000   0.610E+00       0.001       32.256   0.100E-07
     TRS4 it   3 1.00000000   0.415E+00       0.001       32.256   0.100E-07
     TRS4 it   4 1.00000000   0.209E+00       0.001       32.256   0.100E-07
     TRS4 it   5 1.00000000   0.654E-01       0.001       32.256   0.100E-07
     TRS4 it   6 1.00000000   0.808E-02       0.001       32.256   0.100E-07
     TRS4 it   7 1.00000000   0.165E-03       0.001       32.256   0.100E-07
     TRS4 it   8 1.00000000   0.959E-07       0.001       32.256   0.100E-07
     TRS4 it   9 1.00000000   0.394E-13       0.001       32.256   0.100E-07
     Final TRS4 iteration    9 1.00000000   0.394E-13
     Chemical potential (mu):       0.01247
 
 PAO| energy:  -7.8035002511667955      penalty:   1.2985810466348025E-005
 PAO|LS| adapt:  T T F
 PAO|LS| adapt: scan_steps:    0.0000000000000000       0.25223717955370073        0.0000000000000000     
 PAO|LS| adapt: energies:   -7.8034928478614276       -7.8035002511667955        0.0000000000000000     
 PAO| ======================= Iteration:        30 =============================

     Lanczos converged:  T threshold:   0.100E-02
     Est. extremal eigenvalues:    0.276E+01   0.183E+00
     Est. condition number :    0.151E+02
     NS sqrt iter    1 1.00000000   0.705E+00       0.002       41.632
     NS sqrt iter    2 1.00000000   0.329E+00       0.002       67.685
     NS sqrt iter    3 1.00000000   0.745E-01       0.002       64.770
     NS sqrt iter    4 1.00000000   0.174E-02       0.002       71.829
     NS sqrt iter    5 1.00000000   0.454E-07       0.001       48.319
     Final NS sqrt iter    5 1.00000000   0.345E-09

     Est. extremal eigenvalues     -0.93733     1.67828  converged:  T
     TRS4 it   1 1.00000000   0.864E+00       0.000       16.128   0.100E-07
     TRS4 it   2 1.00000000   0.610E+00       0.001       32.256   0.100E-07
     TRS4 it   3 1.00000000   0.415E+00       0.001       32.256   0.100E-07
     TRS4 it   4 1.00000000   0.209E+00       0.001       32.256   0.100E-07
     TRS4 it   5 1.00000000   0.653E-01       0.001       32.256   0.100E-07
     TRS4 it   6 1.00000000   0.805E-02       0.001       32.256   0.100E-07
     TRS4 it   7 1.00000000   0.164E-03       0.001       32.256   0.100E-07
     TRS4 it   8 1.00000000   0.945E-07       0.001       32.256   0.100E-07
     TRS4 it   9 1.00000000   0.384E-13       0.001       32.256   0.100E-07
     Final TRS4 iteration    9 1.00000000   0.384E-13
     Chemical potential (mu):       0.01262
 
 PAO| energy:  -7.8035056264187723      penalty:   1.2553688931820385E-005
 PAO|LS| adapt:  T T F
 PAO|LS| adapt: scan_steps:    0.0000000000000000       0.50447435910740146        0.0000000000000000     
 PAO|LS| adapt: energies:   -7.8034928478614276       -7.8035056264187723        0.0000000000000000     
 PAO| ======================= Iteration:        31 =============================

     Lanczos converged:  T threshold:   0.100E-02
     Est. extremal eigenvalues:    0.276E+01   0.183E+00
     Est. condition number :    0.151E+02
     NS sqrt iter    1 1.00000000   0.704E+00       0.001       44.571
     NS sqrt iter    2 1.00000000   0.329E+00       0.001       95.989
     NS sqrt iter    3 1.00000000   0.743E-01       0.001       86.352
     NS sqrt iter    4 1.00000000   0.174E-02       0.001       96.748
     NS sqrt iter    5 1.00000000   0.452E-07       0.001       64.012
     Final NS sqrt iter    5 1.00000000   0.343E-09

     Est. extremal eigenvalues     -0.93734     1.67810  converged:  T
     TRS4 it   1 1.00000000   0.864E+00       0.000       16.128   0.100E-07
     TRS4 it   2 1.00000000   0.610E+00       0.001       32.256   0.100E-07
     TRS4 it   3 1.00000000   0.415E+00       0.001       32.256   0.100E-07
     TRS4 it   4 1.00000000   0.208E+00       0.001       32.256   0.100E-07
     TRS4 it   5 1.00000000   0.651E-01       0.001       32.256   0.100E-07
     TRS4 it   6 1.00000000   0.801E-02       0.001       32.256   0.100E-07
     TRS4 it   7 1.00000000   0.161E-03       0.001       32.256   0.100E-07
     TRS4 it   8 1.00000000   0.918E-07       0.001       32.256   0.100E-07
     TRS4 it   9 1.00000000   0.359E-13       0.001       32.256   0.100E-07
     Final TRS4 iteration    9 1.00000000   0.359E-13
     Chemical potential (mu):       0.01292
 
 PAO| energy:  -7.8035102926278883      penalty:   1.1713970747888731E-005
 PAO|LS| Need extra step
 PAO|LS| adapt:  T T F
 PAO|LS| adapt: scan_steps:    0.0000000000000000        1.0089487182148029        0.0000000000000000     
 PAO|LS| adapt: energies:   -7.8034928478614276       -7.8035102926278883        0.0000000000000000     
 PAO| ======================= Iteration:        32 =============================

     Lanczos converged:  T threshold:   0.100E-02
     Est. extremal eigenvalues:    0.275E+01   0.183E+00
     Est. condition number :    0.151E+02
     NS sqrt iter    1 1.00000000   0.703E+00       0.001       60.304
     NS sqrt iter    2 1.00000000   0.328E+00       0.001       98.906
     NS sqrt iter    3 1.00000000   0.740E-01       0.001       95.600
     NS sqrt iter    4 1.00000000   0.173E-02       0.001       92.754
     NS sqrt iter    5 1.00000000   0.450E-07       0.001       59.371
     Final NS sqrt iter    5 1.00000000   0.343E-09

     Est. extremal eigenvalues     -0.93734     1.67770  converged:  T
     TRS4 it   1 1.00000000   0.864E+00       0.000       16.128   0.100E-07
     TRS4 it   2 1.00000000   0.610E+00       0.001       32.256   0.100E-07
     TRS4 it   3 1.00000000   0.414E+00       0.001       32.256   0.100E-07
     TRS4 it   4 1.00000000   0.208E+00       0.001       32.256   0.100E-07
     TRS4 it   5 1.00000000   0.647E-01       0.001       32.256   0.100E-07
     TRS4 it   6 1.00000000   0.791E-02       0.001       32.256   0.100E-07
     TRS4 it   7 1.00000000   0.157E-03       0.001       32.256   0.100E-07
     TRS4 it   8 1.00000000   0.865E-07       0.001       32.256   0.100E-07
     TRS4 it   9 1.00000000   0.318E-13       0.001       32.256   0.100E-07
     Final TRS4 iteration    9 1.00000000   0.318E-13
     Chemical potential (mu):       0.01353
 
 PAO| energy:  -7.8034953034883037      penalty:   1.0131392248542764E-005
 PAO|LS| Need extra step
 PAO|LS| adapt:  T T T
 PAO|LS| adapt: scan_steps:    0.0000000000000000        1.0089487182148029        2.0178974364296058     
 PAO|LS| adapt: energies:   -7.8034928478614276       -7.8035102926278883       -7.8034953034883037     
 PAO|LS| adapt: suggested step_size:    1.0471433406194222     
 PAO|LS| adapt: predicted energy  -7.8035103158678565     
 PAO| ======================= Iteration:        33 =============================

     Lanczos converged:  T threshold:   0.100E-02
     Est. extremal eigenvalues:    0.276E+01   0.183E+00
     Est. condition number :    0.151E+02
     NS sqrt iter    1 1.00000000   0.704E+00       0.001       51.094
     NS sqrt iter    2 1.00000000   0.329E+00       0.001       87.344
     NS sqrt iter    3 1.00000000   0.743E-01       0.001       84.294
     NS sqrt iter    4 1.00000000   0.174E-02       0.001       96.748
     NS sqrt iter    5 1.00000000   0.452E-07       0.001       61.505
     Final NS sqrt iter    5 1.00000000   0.343E-09

     Est. extremal eigenvalues     -0.93734     1.67808  converged:  T
     TRS4 it   1 1.00000000   0.864E+00       0.000       16.128   0.100E-07
     TRS4 it   2 1.00000000   0.610E+00       0.001       32.256   0.100E-07
     TRS4 it   3 1.00000000   0.415E+00       0.001       32.256   0.100E-07
     TRS4 it   4 1.00000000   0.208E+00       0.001       32.256   0.100E-07
     TRS4 it   5 1.00000000   0.651E-01       0.001       32.256   0.100E-07
     TRS4 it   6 1.00000000   0.800E-02       0.001       32.256   0.100E-07
     TRS4 it   7 1.00000000   0.161E-03       0.001       32.256   0.100E-07
     TRS4 it   8 1.00000000   0.916E-07       0.001       32.256   0.100E-07
[...]
     NS sqrt iter    3 1.00000000   0.494E-01       0.002       58.792
     NS sqrt iter    4 1.00000000   0.812E-03       0.002       58.337
     NS sqrt iter    5 1.00000000   0.707E-08       0.001       25.674
     Final NS sqrt iter    5 1.00000000   0.412E-09

     Est. extremal eigenvalues     -0.93703     1.62835  converged:  T
     TRS4 it   1 1.00000000   0.876E+00       0.001       16.128   0.100E-07
     TRS4 it   2 1.00000000   0.631E+00       0.001       28.769   0.100E-07
     TRS4 it   3 1.00000000   0.455E+00       0.001       32.256   0.100E-07
     TRS4 it   4 1.00000000   0.278E+00       0.001       32.256   0.100E-07
     TRS4 it   5 1.00000000   0.138E+00       0.001       32.256   0.100E-07
     TRS4 it   6 1.00000000   0.433E-01       0.001       32.256   0.100E-07
     TRS4 it   7 1.00000000   0.601E-02       0.001       31.934   0.100E-07
     TRS4 it   8 1.00000000   0.154E-03       0.001       31.265   0.100E-07
     TRS4 it   9 1.00000000   0.106E-06       0.001       31.337   0.100E-07
     TRS4 it  10 1.00000000   0.507E-13       0.001       30.949   0.100E-07
     Final TRS4 iteration   10 1.00000000   0.507E-13
     Chemical potential (mu):      -0.07625
 
 PAO| energy:  -7.8028963837042200      penalty:   2.5482326146699407E-008
 PAO|LS| Need extra step
 PAO|LS| adapt:  T T T
 PAO|LS| adapt: scan_steps:    0.0000000000000000       0.20000000000000001       0.40000000000000002     
 PAO|LS| adapt: energies:   -7.8028963800590994       -7.8028963850762718       -7.8028963837042200     
 PAO|LS| adapt: suggested step_size:   0.25705106756299712     
 PAO|LS| adapt: predicted energy  -7.8028963853362194     
 PAO| ======================= Iteration:       425 =============================

     Lanczos converged:  T threshold:   0.100E-02
     Est. extremal eigenvalues:    0.252E+01   0.190E+00
     Est. condition number :    0.133E+02
     NS sqrt iter    1 1.00000000   0.639E+00       0.002       32.011
     NS sqrt iter    2 1.00000000   0.278E+00       0.002       58.402
     NS sqrt iter    3 1.00000000   0.494E-01       0.002       63.070
     NS sqrt iter    4 1.00000000   0.812E-03       0.002       63.367
     NS sqrt iter    5 1.00000000   0.707E-08       0.001       27.656
     Final NS sqrt iter    5 1.00000000   0.412E-09

     Est. extremal eigenvalues     -0.93703     1.62835  converged:  T
     TRS4 it   1 1.00000000   0.876E+00       0.001       16.128   0.100E-07
     TRS4 it   2 1.00000000   0.631E+00       0.001       30.126   0.100E-07
     TRS4 it   3 1.00000000   0.455E+00       0.001       32.256   0.100E-07
     TRS4 it   4 1.00000000   0.278E+00       0.001       32.256   0.100E-07
     TRS4 it   5 1.00000000   0.138E+00       0.001       32.256   0.100E-07
     TRS4 it   6 1.00000000   0.433E-01       0.001       32.256   0.100E-07
     TRS4 it   7 1.00000000   0.601E-02       0.001       32.256   0.100E-07
     TRS4 it   8 1.00000000   0.154E-03       0.001       32.256   0.100E-07
     TRS4 it   9 1.00000000   0.106E-06       0.001       32.256   0.100E-07
     TRS4 it  10 1.00000000   0.510E-13       0.001       32.256   0.100E-07
     Final TRS4 iteration   10 1.00000000   0.510E-13
     Chemical potential (mu):      -0.07624
 
 PAO| energy:  -7.8028963853362301      penalty:   2.5779143229951199E-008
 PAO|CG| warming up with steepest descent
 PAO|CG| beta:    0.0000000000000000     
 PAO| norm of gradient:   1.2304925547594860E-004
 PAO| energy improvement:  -5.2771307323951078E-009
 PAO| step    425                   -7.802896385  0.769E-05  0.257E+00     0.121
 PAO| converged after          425  steps :-)
 PAO| Recalculating energy after mixing.

     Lanczos converged:  T threshold:   0.100E-02
     Est. extremal eigenvalues:    0.252E+01   0.190E+00
     Est. condition number :    0.133E+02
     NS sqrt iter    1 1.00000000   0.639E+00       0.002       39.801
     NS sqrt iter    2 1.00000000   0.278E+00       0.002       63.832
     NS sqrt iter    3 1.00000000   0.494E-01       0.002       60.205
     NS sqrt iter    4 1.00000000   0.812E-03       0.002       58.369
     NS sqrt iter    5 1.00000000   0.707E-08       0.002       24.833
     Final NS sqrt iter    5 1.00000000   0.412E-09

     Est. extremal eigenvalues     -0.93703     1.62834  converged:  T
     TRS4 it   1 1.00000000   0.876E+00       0.001       16.128   0.100E-07
     TRS4 it   2 1.00000000   0.631E+00       0.001       31.977   0.100E-07
     TRS4 it   3 1.00000000   0.455E+00       0.001       32.256   0.100E-07
     TRS4 it   4 1.00000000   0.278E+00       0.001       32.256   0.100E-07
     TRS4 it   5 1.00000000   0.138E+00       0.001       32.256   0.100E-07
     TRS4 it   6 1.00000000   0.433E-01       0.001       32.256   0.100E-07
     TRS4 it   7 1.00000000   0.601E-02       0.001       32.256   0.100E-07
     TRS4 it   8 1.00000000   0.154E-03       0.001       32.256   0.100E-07
     TRS4 it   9 1.00000000   0.106E-06       0.001       32.256   0.100E-07
     TRS4 it  10 1.00000000   0.506E-13       0.001       32.256   0.100E-07
     Final TRS4 iteration   10 1.00000000   0.506E-13
     Chemical potential (mu):      -0.07625
 
 PAO| energy:  -7.8028963840169272      penalty:   2.6047474304242952E-008
 PAO| Writing restart file.
     Est. extremal eigenvalues     -0.93703     1.62834  converged:  T
     TRS4 it   1 1.00000000   0.876E+00       0.001       16.128   0.100E-07
     TRS4 it   2 1.00000000   0.631E+00       0.001       32.256   0.100E-07
     TRS4 it   3 1.00000000   0.455E+00       0.001       32.256   0.100E-07
     TRS4 it   4 1.00000000   0.278E+00       0.001       32.256   0.100E-07
     TRS4 it   5 1.00000000   0.138E+00       0.001       32.256   0.100E-07
     TRS4 it   6 1.00000000   0.433E-01       0.001       32.256   0.100E-07
     TRS4 it   7 1.00000000   0.601E-02       0.001       32.256   0.100E-07
     TRS4 it   8 1.00000000   0.154E-03       0.001       32.256   0.100E-07
     TRS4 it   9 1.00000000   0.106E-06       0.001       32.256   0.100E-07
     TRS4 it  10 1.00000000   0.506E-13       0.001       32.256   0.100E-07
     Final TRS4 iteration   10 1.00000000   0.506E-13
     Chemical potential (mu):      -0.07625

 SCF     1       -34.449935822       -34.449935822    2.353556

*********************************************************
 Using MIXING_FRACTION=0.450 to mix KS matrix:  iscf=  2
 KS_nw=0.450*KS + 0.550*KS_old
*********************************************************
     Est. extremal eigenvalues     -0.93704     1.62835  converged:  T
     TRS4 it   1 1.00000000   0.876E+00       0.001       16.128   0.100E-07
     TRS4 it   2 1.00000000   0.631E+00       0.001       32.256   0.100E-07
     TRS4 it   3 1.00000000   0.455E+00       0.001       32.256   0.100E-07
     TRS4 it   4 1.00000000   0.278E+00       0.001       32.256   0.100E-07
     TRS4 it   5 1.00000000   0.138E+00       0.001       32.256   0.100E-07
     TRS4 it   6 1.00000000   0.433E-01       0.001       32.256   0.100E-07
     TRS4 it   7 1.00000000   0.601E-02       0.001       32.256   0.100E-07
     TRS4 it   8 1.00000000   0.154E-03       0.001       32.256   0.100E-07
     TRS4 it   9 1.00000000   0.106E-06       0.001       32.256   0.100E-07
     TRS4 it  10 1.00000000   0.507E-13       0.001       32.256   0.100E-07
     Final TRS4 iteration   10 1.00000000   0.507E-13
     Chemical potential (mu):      -0.07624

 SCF     2       -34.449935823        -0.000000000    2.395703

 PAO| Storing density matrix for ASPC guess in slot:           1

 ENERGY| Total FORCE_EVAL ( QS ) energy (a.u.):              -34.449935822614258


 -------------------------------------------------------------------------------
 -                                                                             -
 -                                DBCSR STATISTICS                             -
 -                                                                             -
 -------------------------------------------------------------------------------
 COUNTER                                    TOTAL       BLAS       SMM       ACC
 flops     5 x     5 x     4                20000     100.0%      0.0%      0.0%
 flops    13 x     5 x     4                20800     100.0%      0.0%      0.0%
 flops     5 x    13 x     4                20800     100.0%      0.0%      0.0%
 flops    13 x    13 x     4                40560     100.0%      0.0%      0.0%
 flops     4 x     4 x     5              3336960     100.0%      0.0%      0.0%
 flops     5 x     4 x     5              4076800     100.0%      0.0%      0.0%
 flops     4 x     4 x    13              4338048     100.0%      0.0%      0.0%
 flops    13 x     4 x     5              5299840     100.0%      0.0%      0.0%
 flops     5 x     4 x    13              5299840     100.0%      0.0%      0.0%
 flops     5 x     4 x     4              6456160     100.0%      0.0%      0.0%
 flops    13 x     4 x    13              6889792     100.0%      0.0%      0.0%
 flops    13 x     4 x     4              8561280     100.0%      0.0%      0.0%
 flops     4 x     4 x     4            431645184     100.0%      0.0%      0.0%
 flops inhomo. stacks                           0       0.0%      0.0%      0.0%
 flops total                       476.006064E+06     100.0%      0.0%      0.0%
 flops max/rank                    476.006064E+06     100.0%      0.0%      0.0%
 matmuls inhomo. stacks                         0       0.0%      0.0%      0.0%
 matmuls total                            3510517     100.0%      0.0%      0.0%
 number of processed stacks                 27978     100.0%      0.0%      0.0%
 average stack size                                   125.5       0.0       0.0
 marketing flops                   774.584064E+06
 -------------------------------------------------------------------------------
 # multiplications                          23406
 max memory usage/rank             328.085504E+06
 # max total images/rank                        1
 # max 3D layers                                1
 # MPI messages exchanged                       0
 MPI messages size (bytes):
  total size                         0.000000E+00
  min size                           0.000000E+00
  max size                           0.000000E+00
  average size                       0.000000E+00
 MPI breakdown and total messages size (bytes):
             size <=      128                   0                        0
       128 < size <=     8192                   0                        0
      8192 < size <=    32768                   0                        0
     32768 < size <=   131072                   0                        0
    131072 < size <=  4194304                   0                        0
   4194304 < size <= 16777216                   0                        0
  16777216 < size                               0                        0
 -------------------------------------------------------------------------------

 MEMORY| Estimated peak process memory [MiB]                                 313

 -------------------------------------------------------------------------------
 -                                                                             -
 -                           R E F E R E N C E S                               -
 -                                                                             -
 -------------------------------------------------------------------------------
 
 CP2K version 7.0 (Development Version), the CP2K developers group (2018).
 CP2K is freely available from https://www.cp2k.org/ .

 Schuett, O; VandeVondele, J. 
 Journal of Chemical Theory and Computation, 14, (2018). 
 Machine Learning Adaptive Basis Sets for Efficient Large Scale Density Functional Theory Simulation.
 https://dx.doi.org/10.1021/acs.jctc.8b00378


 Schuett, Ole; Messmer, Peter; Hutter, Juerg; VandeVondele, Joost. 
 Electronic Structure Calculations on Graphics Processing Units, John Wiley & Sons, Ltd, 173-190 (2016). 
 GPU-Accelerated Sparse Matrix-Matrix Multiplication for Linear Scaling Density Functional Theory.
 https://dx.doi.org/10.1002/9781118670712.ch8


 Borstnik, U; VandeVondele, J; Weber, V; Hutter, J. 
 PARALLEL COMPUTING, 40 (5-6), 47-58 (2014). 
 Sparse matrix multiplication: The distributed block-compressed sparse
 row library.
 https://dx.doi.org/10.1016/j.parco.2014.03.012


 Hutter, J; Iannuzzi, M; Schiffmann, F; VandeVondele, J. 
 WILEY INTERDISCIPLINARY REVIEWS-COMPUTATIONAL MOLECULAR SCIENCE, 4 (1), 15-25 (2014). 
 CP2K: atomistic simulations of condensed matter systems.
 https://dx.doi.org/10.1002/wcms.1159


 VandeVondele, J; Borstnik, U; Hutter, J. 
 JOURNAL OF CHEMICAL THEORY AND COMPUTATION, 8 (10), 3565-3573 (2012). 
 Linear Scaling Self-Consistent Field Calculations with Millions of Atoms
 in the Condensed Phase.
 https://dx.doi.org/10.1021/ct200897x


 VandeVondele, J; Hutter, J. 
 JOURNAL OF CHEMICAL PHYSICS, 127 (11), 114105 (2007). 
 Gaussian basis sets for accurate calculations on molecular systems in
 gas and condensed phases.
 https://dx.doi.org/10.1063/1.2770708


 Krack, M. 
 THEORETICAL CHEMISTRY ACCOUNTS, 114 (1-3), 145-152 (2005). 
 Pseudopotentials for H to Kr optimized for gradient-corrected
 exchange-correlation functionals.
 https://dx.doi.org/10.1007/s00214-005-0655-y


 VandeVondele, J; Krack, M; Mohamed, F; Parrinello, M; Chassaing, T;
 Hutter, J. COMPUTER PHYSICS COMMUNICATIONS, 167 (2), 103-128 (2005). 
 QUICKSTEP: Fast and accurate density functional calculations using a
 mixed Gaussian and plane waves approach.
 https://dx.doi.org/10.1016/j.cpc.2004.12.014


 Frigo, M; Johnson, SG. 
 PROCEEDINGS OF THE IEEE, 93 (2), 216-231 (2005). 
 The design and implementation of FFTW3.
 https://dx.doi.org/10.1109/JPROC.2004.840301


 Niklasson, AMN; Tymczak, CJ; Challacombe, M. 
 JOURNAL OF CHEMICAL PHYSICS, 118 (19), 8611-8620 (2003). 
 Trace resetting density matrix purification in O(N)
 self-consistent-field theory.
 https://dx.doi.org/10.1063/1.1559913


 Hartwigsen, C; Goedecker, S; Hutter, J. 
 PHYSICAL REVIEW B, 58 (7), 3641-3662 (1998). 
 Relativistic separable dual-space Gaussian pseudopotentials from H to Rn.
 https://dx.doi.org/10.1103/PhysRevB.58.3641


 Lippert, G; Hutter, J; Parrinello, M. 
 MOLECULAR PHYSICS, 92 (3), 477-487 (1997). 
 A hybrid Gaussian and plane wave density functional scheme.
 https://dx.doi.org/10.1080/002689797170220


 Perdew, JP; Burke, K; Ernzerhof, M. 
 PHYSICAL REVIEW LETTERS, 77 (18), 3865-3868 (1996). 
 Generalized gradient approximation made simple.
 https://dx.doi.org/10.1103/PhysRevLett.77.3865


 Goedecker, S; Teter, M; Hutter, J. 
 PHYSICAL REVIEW B, 54 (3), 1703-1710 (1996). 
 Separable dual-space Gaussian pseudopotentials.
 https://dx.doi.org/10.1103/PhysRevB.54.1703


 -------------------------------------------------------------------------------
 -                                                                             -
 -                                T I M I N G                                  -
 -                                                                             -
 -------------------------------------------------------------------------------
 SUBROUTINE                       CALLS  ASD         SELF TIME        TOTAL TIME
                                MAXIMUM       AVERAGE  MAXIMUM  AVERAGE  MAXIMUM
 CP2K                                 1  1.0    0.015    0.015   34.713   34.713
 qs_energies                          1  2.0    0.000    0.000   34.162   34.162
 ls_scf                               1  3.0    0.000    0.000   34.057   34.057
 ls_scf_main                          4  4.0    0.001    0.001   20.772   20.772
 ls_scf_dm_to_ks                      9  5.0    0.000    0.000   20.647   20.647
 qs_ks_update_qs_env                 10  6.0    0.000    0.000   15.867   15.867
 rebuild_ks_matrix                   10  7.0    0.000    0.000   15.866   15.866
 qs_ks_build_kohn_sham_matrix        10  8.0    0.001    0.001   15.866   15.866
 pao_update                           4  4.0    0.011    0.011   11.420   11.420
 pao_calc_energy                    428  5.0    0.005    0.005   10.289   10.289
 qs_vxc_create                       10  9.0    0.000    0.000    9.713    9.713
 xc_vxc_pw_create                    10 10.0    0.131    0.131    9.713    9.713
 dbcsr_multiply_generic           23406  8.4    0.533    0.533    8.832    8.832
 xc_rho_set_and_dset_create          10 11.0    0.037    0.037    6.985    6.985
 pw_transfer                        191 10.6    0.013    0.013    6.582    6.582
 qs_rho_update_rho                   10  6.0    0.000    0.000    6.560    6.560
 calculate_rho_elec                  10  7.0    5.108    5.108    6.560    6.560
 fft_wrap_pw1pw2                    171 11.7    0.002    0.002    6.494    6.494
 fft_wrap_pw1pw2_200                111 12.8    0.330    0.330    6.215    6.215
 pao_dm_trs4                        428  6.0    0.003    0.003    5.331    5.331
 sum_up_and_integrate                10  9.0    0.021    0.021    5.215    5.215
 integrate_v_rspace                  10 10.0    4.457    4.457    5.195    5.195
 density_matrix_trs4                437  7.0    0.191    0.191    5.152    5.152
 xc_functional_eval                  10 12.0    0.000    0.000    4.991    4.991
 pbe_lda_eval                        10 13.0    4.991    4.991    4.991    4.991
 ls_scf_init_matrix_S               432  7.0    0.004    0.004    4.957    4.957
 pao_rebuild_S                      428  6.0    0.003    0.003    4.911    4.911
 matrix_sqrt_Newton_Schulz          432  8.0    0.121    0.121    4.483    4.483
 multiply_cannon                  23406  9.4    1.385    1.385    4.160    4.160
 fft3d_s                            172 13.6    3.520    3.520    3.535    3.535
 make_m2s                         46812  9.4    0.207    0.207    2.789    2.789
 make_images                      46812 10.4    0.666    0.666    2.457    2.457
 pao_guess_initial_P                  1  4.0    0.000    0.000    1.787    1.787
 pao_read_preopt_dm                   1  5.0    0.000    0.000    1.787    1.787
 multiply_cannon_multrec          23406 10.4    1.475    1.475    1.616    1.616
 pw_gather_s                         81 13.1    1.571    1.571    1.571    1.571
 density_rs2pw                       10  8.0    0.001    0.001    1.438    1.438
 arnoldi_extremal                   869  8.5    0.005    0.005    1.235    1.235
 arnoldi_normal_ev                  869  9.5    0.014    0.014    1.230    1.230
 pao_calc_AB                        564  5.8    0.001    0.001    1.109    1.109
 pao_calc_AB_direct                 564  6.8    0.031    0.031    1.108    1.108
 pao_calc_grad_lnv_wrt_AB           135  7.0    0.008    0.008    1.046    1.046
 pw_scatter_s                        90 14.2    1.044    1.044    1.044    1.044
 build_subspace                     869 10.5    0.065    0.065    0.921    0.921
 dbcsr_finalize                   55787  9.6    0.134    0.134    0.845    0.845
 dbcsr_matrix_vector_mult         20820 11.5    0.125    0.125    0.826    0.826
 dbcsr_create_new                178995 10.7    0.400    0.400    0.763    0.763
 potential_pw2rs                     10 11.0    0.002    0.002    0.737    0.737
 -------------------------------------------------------------------------------

 The number of warnings for this run is : 0
 
 -------------------------------------------------------------------------------
  **** **** ******  **  PROGRAM ENDED AT                 2019-03-28 17:34:02.235
 ***** ** ***  *** **   PROGRAM RAN ON            oleschuett.zrh.corp.google.com
 **    ****   ******    PROGRAM RAN BY                                oleschuett
 ***** **    ** ** **   PROGRAM PROCESS ID                                 34135
  **** **  *******  **  PROGRAM STOPPED IN /usr/local/google/home/oleschuett/git
                                           /pao_ml_equivar/2H2O_rotations/phi_35
