6
Properties=species:S:1:pos:R:3 i=0 time=0.0 E=-34.4504806384 pbc="F F F"
O       2.52700000       4.18650000       4.35000000 
H       2.03500000       4.71150000       3.71000000 
H       2.19400000       3.28850000       4.25600000 
O       5.44000000       4.23450000       3.63500000 
H       5.96500000       4.57450000       4.36500000 
H       4.52200000       4.25350000       3.94700000 
