 DBCSR| CPU Multiplication driver                                           XSMM (U)
 DBCSR| Multrec recursion limit                                              512 (U)
 DBCSR| Multiplication stack size                                           1000 (D)
 DBCSR| Maximum elements for images                                    UNLIMITED (U)
 DBCSR| Multiplicative factor virtual images                                   1 (U)
 DBCSR| Use multiplication densification                                       T (D)
 DBCSR| Multiplication size stacks                                             3 (U)
 DBCSR| Use memory pool for CPU allocation                                     F (U)
 DBCSR| Number of 3D layers                                               SINGLE (U)
 DBCSR| Use MPI memory allocation                                              F (U)
 DBCSR| Use RMA algorithm                                                      F (U)
 DBCSR| Use Communication thread                                               T (U)
 DBCSR| Communication thread load                                             87 (D)
 DBCSR| MPI: My process id                                                     0
 DBCSR| MPI: Number of processes                                              32
 DBCSR| OMP: Current number of threads                                         1
 DBCSR| OMP: Max number of threads                                             1
 DBCSR| Split modifier for TAS multiplication algorithm                  1.0E+00 (U)


  **** **** ******  **  PROGRAM STARTED AT               2024-09-24 03:37:48.947
 ***** ** ***  *** **   PROGRAM STARTED ON                                moritz
 **    ****   ******    PROGRAM STARTED BY                                   ole
 ***** **    ** ** **   PROGRAM PROCESS ID                                167916
  **** **  *******  **  PROGRAM STARTED IN /home/ole/git/pao_ml_equivar/64H2O_MD
                                           /Frame4300

 CP2K| version string:                 CP2K version 2024.3 (Development Version)
 CP2K| source code revision number:                                  git:3f890bb
 CP2K| cp2kflags: omp libint fftw3 libxc libgrpp pexsi elpa parallel scalapack c
 CP2K|            osma quip deepmd xsmm plumed2 spglib libdftd4 sirius libvori l
 CP2K|            libbqb libvdwxc hdf5
 CP2K| is freely available from                            https://www.cp2k.org/
 CP2K| Program compiled at                          Mo 23 Sep 2024 17:17:04 CEST
 CP2K| Program compiled on                                                moritz
 CP2K| Program compiled for                                                local
 CP2K| Data directory path                               /home/ole/git/cp2k/data
 CP2K| Input file name                                           64H2O_pao44.inp

 GLOBAL| Force Environment number                                              1
 GLOBAL| Basis set file name                                        BASIS_MOLOPT
 GLOBAL| Potential file name                                      GTH_POTENTIALS
 GLOBAL| MM Potential file name                                     MM_POTENTIAL
 GLOBAL| Coordinate file name                                         coords.xyz
 GLOBAL| Method name                                                        CP2K
 GLOBAL| Project name                                                64H2O_pao44
 GLOBAL| Run type                                                         ENERGY
 GLOBAL| FFT library                                                       FFTW3
 GLOBAL| Diagonalization library                                            ELPA
 GLOBAL| DGEMM library                                                      BLAS
 GLOBAL| Minimum number of eigenvectors for ELPA usage                        16
 GLOBAL| Orthonormality check for eigenvectors                          DISABLED
 GLOBAL| Matrix multiplication library                                     COSMA
 GLOBAL| All-to-all communication in single precision                          F
 GLOBAL| FFTs using library dependent lengths                                  F
 GLOBAL| Grid backend                                                       AUTO
 GLOBAL| Global print level                                                  LOW
 GLOBAL| MPI I/O enabled                                                       T
 GLOBAL| Total number of message passing processes                            32
 GLOBAL| Number of threads for this process                                    1
 GLOBAL| This output is from process                                           0
 GLOBAL| Stack size for threads created by OpenMP (OMP_STACKSIZE)        default
 GLOBAL| CPU model name           AMD Ryzen Threadripper 3970X 32-Core Processor
 GLOBAL| CPUID                                                              1002

 MEMORY| system memory details [Kb]
 MEMORY|                        rank 0           min           max       average
 MEMORY| MemTotal            131752136     131752136     131752136     131752136
 MEMORY| MemFree             114340192     114340192     114340192     114340192
 MEMORY| Buffers               2013632       2013632       2013632       2013632
 MEMORY| Cached                8681588       8681588       8681588       8681588
 MEMORY| Slab                  1642168       1642168       1642168       1642168
 MEMORY| SReclaimable          1144924       1144924       1144924       1144924
 MEMORY| MemLikelyFree       126180336     126180336     126180336     126180336


 GENERATE|  Preliminary Number of Bonds generated:                             0
 GENERATE|  Achieved consistency in connectivity generation.

 *******************************************************************************
 *******************************************************************************
 **                                                                           **
 **     #####                         ##              ##                      **
 **    ##   ##            ##          ##              ##                      **
 **   ##     ##                       ##            ######                    **
 **   ##     ##  ##   ##  ##   #####  ##  ##   ####   ##    #####    #####    **
 **   ##     ##  ##   ##  ##  ##      ## ##   ##      ##   ##   ##  ##   ##   **
 **   ##  ## ##  ##   ##  ##  ##      ####     ###    ##   ######   ######    **
 **    ##  ###   ##   ##  ##  ##      ## ##      ##   ##   ##       ##        **
 **     #######   #####   ##   #####  ##  ##  ####    ##    #####   ##        **
 **           ##                                                    ##        **
 **                                                                           **
 **                                                ... make the atoms dance   **
 **                                                                           **
 **            Copyright (C) by CP2K developers group (2000-2024)             **
 **                      J. Chem. Phys. 152, 194103 (2020)                    **
 **                                                                           **
 *******************************************************************************


 TOTAL NUMBERS AND MAXIMUM NUMBERS

  Total number of            - Atomic kinds:                                   2
                             - Atoms:                                        192
                             - Shell sets:                                   192
                             - Shells:                                       704
                             - Primitive Cartesian functions:               1344
                             - Cartesian basis functions:                   1536
                             - Spherical basis functions:                   1472

  Maximum angular momentum of- Orbital basis functions:                        2
                             - Local part of the GTH pseudopotential:          2
                             - Non-local part of the GTH pseudopotential:      0

 ------------------------------ Linear scaling SCF -----------------------------
 eps_scf:                                                              0.100E-07
 eps_filter:                                                           0.100E-11
 mixing_fraction:                                                      0.450E+00
 max_scf:                                                                     25
 fixed chemical potential (mu)                                                 F
 has unit metric:                                                              F
 Computing inv(S):                                                             T
 Computing sqrt(S):                                                            T
 Computing S preconditioner                                                    F
 S sqrt method:                                                     NEWTONSCHULZ
 S sqrt order:                                                                 3
 Extrapolation order:                                                          1
 S preconditioner type                                                      NONE
 Polarized Atomic Orbitals (PAO)                                               T
 Purification method                                   Trace resetting 4th order
 Cluster type                                                             ATOMIC
 Computing Chebyshev                                                       FALSE
 Using PAO                                                                     T
 -------------------------------------------------------------------------------

 
 PAO|                                  EPS_PAO                           0.5E-06
 PAO|                                  MIXING                            0.5E+00
 PAO|                                  MAX_PAO                              1500
 PAO|                                  MAX_CYCLES                           1000
 PAO|                                  PARAMETERIZATION              EQUIVARIANT
 PAO|                                  PRECONDITION                            F
 PAO|                                  REGULARIZATION                    0.0E+00
 PAO|                                  EPS_PGF                           0.1E-09
 PAO|                                  PENALTY_DISTANCE                  0.1E+00
 PAO|                                  PENALTY_STRENGTH                  0.5E-02
 PAO|                                  LINPOT_PRECONDITION_DELTA         0.0E+00
 PAO|                                  LINPOT_INITGUESS_DELT             0.0E+00
 PAO|                                  LINPOT_REGULARIZATION_DELTA       0.0E+00
 PAO|                                  LINPOT_REGULARIZATION_STRENGTH    0.0E+00
 PAO|                                  OPTIMIZER                              CG
 PAO|                                  CG_INIT_STEPS                           2
 PAO|                                  CG_RESET_LIMIT                    0.1E+00
 PAO|                                  CHECK_UNITARY_TOL                -0.1E+01
 PAO|                                  CHECK_GRADIENT_TOL               -0.1E+01
 PAO|                                  NUM_GRADIENT_ORDER                      2
 PAO|                                  NUM_GRADIENT_EPS                  0.1E-07
 PAO|                                  PRINT%RESTART%WRITE_CYCLES            100
 PAO|                                  RESTART_FILE 
 PAO|                                  PREOPT_DM_FILE 64H2O_ref_LS_DM_SPIN_1_RESTART.dm
 PAO|                                  MACHINE_LEARNING%METHOD       GAUSSIAN_PR
 PAO|                                  MACHINE_LEARNING%PRIOR               ZERO
 PAO|                                  MACHINE_LEARNING%DESCRIPTOR     POTENTIAL
 PAO|                                  MACHINE_LEARNING%TOLERANCE        0.1E-01
 PAO|                                  MACHINE_LEARNING%GP_NOISE_VAR     0.1E+00
 PAO|                                  MACHINE_LEARNING%GP_SCALE         0.5E-01
 

 Calculating atomic Fock matrix for atomic kind: O

 Electronic structure
    Total number of core electrons                                          2.00
    Total number of valence electrons                                       6.00
    Total number of electrons                                               8.00
    Multiplicity                                                   not specified
    S   [  2.00] 2.00
    P      4.00


 *******************************************************************************
                  Iteration          Convergence                     Energy [au]
 *******************************************************************************
                          1        0.708315                     -15.576645311500
                          2        0.608879                     -15.587933561584
                          3        0.102828E-01                 -15.656849565404
                          4        0.113889E-02                 -15.656866888140
                          5        0.434197E-03                 -15.656867072159
                          6        0.263771E-03                 -15.656867091904
                          7        0.478536E-06                 -15.656867103452

 Energy components [Hartree]           Total Energy ::          -15.656867103452
                                        Band Energy ::           -3.000198112285
                                     Kinetic Energy ::           11.759971203220
                                   Potential Energy ::          -27.416838306672
                                      Virial (-V/T) ::            2.331369510426
                                        Core Energy ::          -26.140716385623
                                          XC Energy ::           -3.154051012914
                                     Coulomb Energy ::           13.637900295084
                       Total Pseudopotential Energy ::          -37.935781716540
                       Local Pseudopotential Energy ::          -39.218907440693
                    Nonlocal Pseudopotential Energy ::            1.283125724153
                                        Confinement ::            0.350941276976

 Orbital energies  State     L     Occupation   Energy[a.u.]          Energy[eV]

                       1     0          2.000      -0.864471          -23.523463

                       1     1          4.000      -0.317814           -8.648154


 Total Electron Density at R=0:                                         0.000068

 Calculating atomic Fock matrix for atomic kind: H

 Electronic structure
    Total number of core electrons                                          0.00
    Total number of valence electrons                                       1.00
    Total number of electrons                                               1.00
    Multiplicity                                                   not specified
    S      1.00


 *******************************************************************************
                  Iteration          Convergence                     Energy [au]
 *******************************************************************************
                          1        0.437545E-02                  -0.424159432110
                          2        0.531356E-03                  -0.424178438213
                          3        0.259176E-06                  -0.424178722480

 Energy components [Hartree]           Total Energy ::           -0.424178722480
                                        Band Energy ::           -0.199015229016
                                     Kinetic Energy ::            0.464007633961
                                   Potential Energy ::           -0.888186356441
                                      Virial (-V/T) ::            1.914163240935
                                        Core Energy ::           -0.479160803564
                                          XC Energy ::           -0.244352904054
                                     Coulomb Energy ::            0.299334985138
                       Total Pseudopotential Energy ::           -0.962295316385
                       Local Pseudopotential Energy ::           -0.962295316385
                    Nonlocal Pseudopotential Energy ::            0.000000000000
                                        Confinement ::            0.191268788606

 Orbital energies  State     L     Occupation   Energy[a.u.]          Energy[eV]

                       1     0          1.000      -0.199015           -5.415480


 Total Electron Density at R=0:                                         0.242907
 PAO| Made initial guess for matrix_X with norm:   27.712812921102035     

     Lanczos converged:  F threshold:   0.100E-02
     Est. extremal eigenvalues:    0.630E+01   0.952E-01
     Est. condition number :    0.662E+02

 Order=           3
     NS sqrt iter    1 1.00000000   0.154E+01       0.021     2694.003
     NS sqrt iter    2 1.00000000   0.833E+00       0.034     3332.555
     NS sqrt iter    3 1.00000000   0.335E+00       0.034     3310.905
     NS sqrt iter    4 1.00000000   0.945E-01       0.034     3327.860
     NS sqrt iter    5 1.00000000   0.352E-02       0.034     3303.068
     NS sqrt iter    6 1.00000000   0.326E-06       0.029     2894.289
     Symmetrizing Results
     Final NS sqrt iter    6 1.00000000   0.184E-12

 PAO| Read restart DM 64H2O_ref_LS_DM_SPIN_1_RESTART.dm with checksum:    6061.0434978072462     
 PAO| Quickstep energy from restart density:  -1103.1434433330894     
 PAO| ======================= Iteration:         1 =============================

     Lanczos converged:  F threshold:   0.100E-02
     Est. extremal eigenvalues:    0.630E+01   0.952E-01
     Est. condition number :    0.662E+02

 Order=           3
     NS sqrt iter    1 1.00000000   0.154E+01       0.021     2695.598
     NS sqrt iter    2 1.00000000   0.833E+00       0.034     3342.652
     NS sqrt iter    3 1.00000000   0.335E+00       0.034     3346.973
     NS sqrt iter    4 1.00000000   0.945E-01       0.034     3345.380
     NS sqrt iter    5 1.00000000   0.352E-02       0.034     3322.301
     NS sqrt iter    6 1.00000000   0.326E-06       0.030     2887.484
     Symmetrizing Results
     Final NS sqrt iter    6 1.00000000   0.184E-12

     Est. extremal eigenvalues     -0.81810     2.59816  converged:  T
     TRS4 it   1 1.00000000   0.272E+02       0.007     2084.116   0.100E-11
     TRS4 it   2 1.00000000   0.235E+02       0.013     2162.763   0.100E-11
     TRS4 it   3 1.00000000   0.160E+02       0.013     2167.058   0.100E-11
     TRS4 it   4 1.00000000   0.995E+01       0.013     2155.059   0.100E-11
     TRS4 it   5 1.00000000   0.480E+01       0.013     2145.963   0.100E-11
     TRS4 it   6 1.00000000   0.159E+01       0.013     2183.687   0.100E-11
     TRS4 it   7 1.00000000   0.307E+00       0.013     2154.345   0.100E-11
     TRS4 it   8 1.00000000   0.206E-01       0.013     2166.883   0.100E-11
     TRS4 it   9 1.00000000   0.141E-03       0.013     2149.961   0.100E-11
     TRS4 it  10 1.00000000   0.380E-08       0.013     2165.223   0.100E-11
     TRS4 it  11 1.00000000   0.107E-13       0.013     2172.884   0.100E-11
     Final TRS4 iteration   11 1.00000000   0.107E-13
     Chemical potential (mu):       0.00586
 
 PAO| energy:  -186.57358801616175      penalty:   1.3182605283341752E-031
 PAO|CG| warming up with steepest descent
 PAO|CG| beta:    0.0000000000000000     
 PAO| norm of gradient:   3.9854739174058946     
 PAO|LS| adapt:  T F F
 PAO|LS| adapt: scan_steps:    0.0000000000000000        0.0000000000000000        0.0000000000000000     
 PAO|LS| adapt: energies:   -186.57358801616175        0.0000000000000000        0.0000000000000000     
 PAO| ======================= Iteration:         2 =============================

     Lanczos converged:  F threshold:   0.100E-02
     Est. extremal eigenvalues:    0.609E+01   0.102E+00
     Est. condition number :    0.600E+02

 Order=           3
     NS sqrt iter    1 1.00000000   0.150E+01       0.021     2671.534
     NS sqrt iter    2 1.00000000   0.805E+00       0.034     3339.050
     NS sqrt iter    3 1.00000000   0.315E+00       0.034     3362.177
     NS sqrt iter    4 1.00000000   0.799E-01       0.034     3343.718
     NS sqrt iter    5 1.00000000   0.222E-02       0.034     3351.475
     NS sqrt iter    6 1.00000000   0.955E-07       0.029     2913.315
     Symmetrizing Results
     Final NS sqrt iter    6 1.00000000   0.225E-13

     Est. extremal eigenvalues     -0.82124     2.59723  converged:  T
     TRS4 it   1 1.00000000   0.274E+02       0.007     2111.343   0.100E-11
     TRS4 it   2 1.00000000   0.235E+02       0.013     2178.789   0.100E-11
     TRS4 it   3 1.00000000   0.158E+02       0.013     2171.564   0.100E-11
     TRS4 it   4 1.00000000   0.975E+01       0.013     2174.959   0.100E-11
     TRS4 it   5 1.00000000   0.458E+01       0.013     2178.637   0.100E-11
     TRS4 it   6 1.00000000   0.146E+01       0.013     2180.296   0.100E-11
     TRS4 it   7 1.00000000   0.262E+00       0.013     2155.835   0.100E-11
     TRS4 it   8 1.00000000   0.147E-01       0.013     2181.812   0.100E-11
     TRS4 it   9 1.00000000   0.646E-04       0.013     2189.837   0.100E-11
     TRS4 it  10 1.00000000   0.919E-09       0.013     2155.314   0.100E-11
     TRS4 it  11 1.00000000   0.266E-13       0.013     2158.412   0.100E-11
     Final TRS4 iteration   11 1.00000000   0.266E-13
     Chemical potential (mu):       0.01124
 
 PAO| energy:  -188.03205783321033      penalty:   4.7257354290466363E-007
 PAO|LS| adapt:  T T F
 PAO|LS| adapt: scan_steps:    0.0000000000000000       0.10000000000000001        0.0000000000000000     
 PAO|LS| adapt: energies:   -186.57358801616175       -188.03205783321033        0.0000000000000000     
 PAO| ======================= Iteration:         3 =============================

     Lanczos converged:  F threshold:   0.100E-02
     Est. extremal eigenvalues:    0.588E+01   0.107E+00
     Est. condition number :    0.550E+02

 Order=           3
     NS sqrt iter    1 1.00000000   0.146E+01       0.021     2672.014
     NS sqrt iter    2 1.00000000   0.777E+00       0.034     3343.137
     NS sqrt iter    3 1.00000000   0.295E+00       0.034     3358.328
     NS sqrt iter    4 1.00000000   0.673E-01       0.034     3324.964
     NS sqrt iter    5 1.00000000   0.142E-02       0.034     3339.408
     NS sqrt iter    6 1.00000000   0.296E-07       0.029     2894.333
     Symmetrizing Results
     Final NS sqrt iter    6 1.00000000   0.346E-14

     Est. extremal eigenvalues     -0.82428     2.59902  converged:  T
     TRS4 it   1 1.00000000   0.277E+02       0.007     2111.293   0.100E-11
     TRS4 it   2 1.00000000   0.235E+02       0.013     2184.631   0.100E-11
     TRS4 it   3 1.00000000   0.157E+02       0.013     2184.505   0.100E-11
     TRS4 it   4 1.00000000   0.956E+01       0.013     2160.955   0.100E-11
     TRS4 it   5 1.00000000   0.438E+01       0.013     2161.152   0.100E-11
     TRS4 it   6 1.00000000   0.133E+01       0.013     2178.297   0.100E-11
     TRS4 it   7 1.00000000   0.222E+00       0.013     2166.006   0.100E-11
     TRS4 it   8 1.00000000   0.102E-01       0.013     2184.777   0.100E-11
     TRS4 it   9 1.00000000   0.278E-04       0.013     2159.339   0.100E-11
     TRS4 it  10 1.00000000   0.199E-09       0.013     2172.438   0.100E-11
     Final TRS4 iteration   10 1.00000000   0.199E-09
     Chemical potential (mu):       0.02374
 
 PAO| energy:  -189.21402659823468      penalty:   7.5611766864844394E-006
 PAO|LS| adapt:  T T F
 PAO|LS| adapt: scan_steps:    0.0000000000000000       0.20000000000000001        0.0000000000000000     
 PAO|LS| adapt: energies:   -186.57358801616175       -189.21402659823468        0.0000000000000000     
 PAO| ======================= Iteration:         4 =============================

     Lanczos converged:  T threshold:   0.100E-02
     Est. extremal eigenvalues:    0.547E+01   0.116E+00
     Est. condition number :    0.470E+02

 Order=           3
     NS sqrt iter    1 1.00000000   0.138E+01       0.021     2662.384
     NS sqrt iter    2 1.00000000   0.721E+00       0.034     3318.806
     NS sqrt iter    3 1.00000000   0.258E+00       0.034     3352.868
     NS sqrt iter    4 1.00000000   0.477E-01       0.034     3338.892
     NS sqrt iter    5 1.00000000   0.595E-03       0.034     3320.015
     NS sqrt iter    6 1.00000000   0.293E-08       0.030     2829.353
     Symmetrizing Results
     Final NS sqrt iter    6 1.00000000   0.120E-13

     Est. extremal eigenvalues     -0.82945     2.60516  converged:  T
     TRS4 it   1 1.00000000   0.281E+02       0.007     2113.824   0.100E-11
     TRS4 it   2 1.00000000   0.235E+02       0.013     2167.601   0.100E-11
     TRS4 it   3 1.00000000   0.156E+02       0.013     2187.854   0.100E-11
     TRS4 it   4 1.00000000   0.924E+01       0.013     2183.245   0.100E-11
     TRS4 it   5 1.00000000   0.402E+01       0.013     2175.591   0.100E-11
     TRS4 it   6 1.00000000   0.112E+01       0.013     2163.702   0.100E-11
     TRS4 it   7 1.00000000   0.158E+00       0.013     2167.604   0.100E-11
     TRS4 it   8 1.00000000   0.473E-02       0.013     2182.087   0.100E-11
     TRS4 it   9 1.00000000   0.502E-05       0.013     2148.925   0.100E-11
     TRS4 it  10 1.00000000   0.828E-11       0.013     2187.951   0.100E-11
     Final TRS4 iteration   10 1.00000000   0.828E-11
     Chemical potential (mu):       0.03633
 
 PAO| energy:  -190.70533850767586      penalty:   1.2097882698382954E-004
 PAO|LS| Need extra step
 PAO|LS| adapt:  T T F
 PAO|LS| adapt: scan_steps:    0.0000000000000000       0.40000000000000002        0.0000000000000000     
 PAO|LS| adapt: energies:   -186.57358801616175       -190.70533850767586        0.0000000000000000     
 PAO| ======================= Iteration:         5 =============================

     Lanczos converged:  T threshold:   0.100E-02
     Est. extremal eigenvalues:    0.479E+01   0.131E+00
     Est. condition number :    0.365E+02

 Order=           3
     NS sqrt iter    1 1.00000000   0.125E+01       0.021     2648.218
     NS sqrt iter    2 1.00000000   0.629E+00       0.034     3350.538
     NS sqrt iter    3 1.00000000   0.199E+00       0.034     3354.086
     NS sqrt iter    4 1.00000000   0.250E-01       0.034     3338.841
     NS sqrt iter    5 1.00000000   0.115E-03       0.034     3345.556
     NS sqrt iter    6 1.00000000   0.307E-10       0.020     2242.465
     Symmetrizing Results
     Final NS sqrt iter    6 1.00000000   0.220E-11

     Est. extremal eigenvalues     -0.83317     2.60631  converged:  T
     TRS4 it   1 1.00000000   0.287E+02       0.007     2089.357   0.100E-11
     TRS4 it   2 1.00000000   0.235E+02       0.013     2187.677   0.100E-11
     TRS4 it   3 1.00000000   0.153E+02       0.013     2145.544   0.100E-11
     TRS4 it   4 1.00000000   0.875E+01       0.013     2169.004   0.100E-11
     TRS4 it   5 1.00000000   0.351E+01       0.013     2173.978   0.100E-11
     TRS4 it   6 1.00000000   0.832E+00       0.013     2169.123   0.100E-11
     TRS4 it   7 1.00000000   0.864E-01       0.013     2176.149   0.100E-11
     TRS4 it   8 1.00000000   0.133E-02       0.013     2168.713   0.100E-11
     TRS4 it   9 1.00000000   0.377E-06       0.013     2166.012   0.100E-11
     TRS4 it  10 1.00000000   0.284E-13       0.013     2175.781   0.100E-11
     Final TRS4 iteration   10 1.00000000   0.284E-13
     Chemical potential (mu):       0.05758
 
 PAO| energy:  -190.32322983522965      penalty:   1.9356612317419073E-003
 PAO|LS| Need extra step
 PAO|LS| adapt:  T T T
 PAO|LS| adapt: scan_steps:    0.0000000000000000       0.40000000000000002       0.80000000000000004     
 PAO|LS| adapt: energies:   -186.57358801616175       -190.70533850767586       -190.32322983522965     
 PAO|LS| adapt: suggested step_size:   0.56613907004480335     
 PAO|LS| adapt: predicted energy  -191.09468976068902     
 PAO| ======================= Iteration:         6 =============================

     Lanczos converged:  T threshold:   0.100E-02
     Est. extremal eigenvalues:    0.516E+01   0.123E+00
     Est. condition number :    0.420E+02

 Order=           3
     NS sqrt iter    1 1.00000000   0.132E+01       0.021     2651.773
     NS sqrt iter    2 1.00000000   0.679E+00       0.034     3350.865
     NS sqrt iter    3 1.00000000   0.231E+00       0.034     3334.122
     NS sqrt iter    4 1.00000000   0.361E-01       0.034     3348.402
     NS sqrt iter    5 1.00000000   0.295E-03       0.034     3346.955
     NS sqrt iter    6 1.00000000   0.430E-09       0.029     2717.399
     Symmetrizing Results
     Final NS sqrt iter    6 1.00000000   0.196E-12

     Est. extremal eigenvalues     -0.83224     2.60773  converged:  T
     TRS4 it   1 1.00000000   0.284E+02       0.007     2089.934   0.100E-11
     TRS4 it   2 1.00000000   0.235E+02       0.013     2173.973   0.100E-11
     TRS4 it   3 1.00000000   0.155E+02       0.013     2189.340   0.100E-11
     TRS4 it   4 1.00000000   0.901E+01       0.013     2173.543   0.100E-11
     TRS4 it   5 1.00000000   0.378E+01       0.013     2165.897   0.100E-11
     TRS4 it   6 1.00000000   0.978E+00       0.013     2162.055   0.100E-11
     TRS4 it   7 1.00000000   0.120E+00       0.013     2178.411   0.100E-11
     TRS4 it   8 1.00000000   0.262E-02       0.013     2166.624   0.100E-11
     TRS4 it   9 1.00000000   0.146E-05       0.013     2157.119   0.100E-11
     TRS4 it  10 1.00000000   0.780E-12       0.013     2185.671   0.100E-11
     Final TRS4 iteration   10 1.00000000   0.780E-12
     Chemical potential (mu):       0.04609
 
 PAO| energy:  -191.06821665911178      penalty:   4.8546945804797887E-004
 PAO|CG| warming up with steepest descent
 PAO|CG| beta:    0.0000000000000000     
 PAO| norm of gradient:   2.1042010288892974     
 PAO| energy improvement:  -4.4946286429500333     
 PAO| step      6                 -191.068216659  0.411E-02  0.566E+00     2.433
 PAO|LS| adapt:  T F F
 PAO|LS| adapt: scan_steps:    0.0000000000000000        0.0000000000000000        0.0000000000000000     
 PAO|LS| adapt: energies:   -191.06821665911178        0.0000000000000000        0.0000000000000000     
 PAO| ======================= Iteration:         7 =============================

     Lanczos converged:  T threshold:   0.100E-02
     Est. extremal eigenvalues:    0.501E+01   0.131E+00
     Est. condition number :    0.384E+02

 Order=           3
     NS sqrt iter    1 1.00000000   0.129E+01       0.022     2629.971
     NS sqrt iter    2 1.00000000   0.655E+00       0.034     3345.938
     NS sqrt iter    3 1.00000000   0.214E+00       0.034     3345.760
     NS sqrt iter    4 1.00000000   0.294E-01       0.034     3338.862
     NS sqrt iter    5 1.00000000   0.169E-03       0.034     3338.933
     NS sqrt iter    6 1.00000000   0.839E-10       0.025     2448.404
     Symmetrizing Results
     Final NS sqrt iter    6 1.00000000   0.173E-11

     Est. extremal eigenvalues     -0.83227     2.59778  converged:  T
     TRS4 it   1 1.00000000   0.285E+02       0.007     2124.208   0.100E-11
     TRS4 it   2 1.00000000   0.236E+02       0.013     2151.840   0.100E-11
     TRS4 it   3 1.00000000   0.155E+02       0.013     2178.391   0.100E-11
     TRS4 it   4 1.00000000   0.913E+01       0.013     2170.908   0.100E-11
     TRS4 it   5 1.00000000   0.387E+01       0.013     2180.649   0.100E-11
     TRS4 it   6 1.00000000   0.100E+01       0.013     2168.658   0.100E-11
     TRS4 it   7 1.00000000   0.121E+00       0.013     2159.584   0.100E-11
     TRS4 it   8 1.00000000   0.267E-02       0.013     2177.056   0.100E-11
     TRS4 it   9 1.00000000   0.164E-05       0.013     2154.382   0.100E-11
     TRS4 it  10 1.00000000   0.116E-11       0.013     2170.681   0.100E-11
     Final TRS4 iteration   10 1.00000000   0.116E-11
     Chemical potential (mu):       0.04853
 
 PAO| energy:  -190.15166741799985      penalty:   6.7884438642894240E-004
 PAO|LS| adapt:  T F T
 PAO|LS| adapt: scan_steps:    0.0000000000000000        0.0000000000000000       0.56613907004480335     
 PAO|LS| adapt: energies:   -191.06821665911178        0.0000000000000000       -190.15166741799985     
 PAO| ======================= Iteration:         8 =============================

     Lanczos converged:  T threshold:   0.100E-02
     Est. extremal eigenvalues:    0.509E+01   0.127E+00
     Est. condition number :    0.402E+02

 Order=           3
     NS sqrt iter    1 1.00000000   0.130E+01       0.021     2657.071
     NS sqrt iter    2 1.00000000   0.667E+00       0.034     3347.075
     NS sqrt iter    3 1.00000000   0.222E+00       0.034     3336.349
     NS sqrt iter    4 1.00000000   0.326E-01       0.034     3332.018
     NS sqrt iter    5 1.00000000   0.224E-03       0.034     3329.730
     NS sqrt iter    6 1.00000000   0.192E-09       0.028     2563.770
     Symmetrizing Results
     Final NS sqrt iter    6 1.00000000   0.929E-12

     Est. extremal eigenvalues     -0.83316     2.60321  converged:  T
     TRS4 it   1 1.00000000   0.284E+02       0.007     2086.698   0.100E-11
     TRS4 it   2 1.00000000   0.235E+02       0.013     2158.364   0.100E-11
     TRS4 it   3 1.00000000   0.155E+02       0.013     2171.402   0.100E-11
     TRS4 it   4 1.00000000   0.904E+01       0.013     2184.722   0.100E-11
     TRS4 it   5 1.00000000   0.380E+01       0.013     2181.970   0.100E-11
     TRS4 it   6 1.00000000   0.981E+00       0.013     2169.276   0.100E-11
     TRS4 it   7 1.00000000   0.119E+00       0.013     2183.676   0.100E-11
     TRS4 it   8 1.00000000   0.260E-02       0.013     2166.811   0.100E-11
     TRS4 it   9 1.00000000   0.148E-05       0.013     2185.606   0.100E-11
     TRS4 it  10 1.00000000   0.812E-12       0.013     2172.534   0.100E-11
     Final TRS4 iteration   10 1.00000000   0.812E-12
     Chemical potential (mu):       0.04599
 
 PAO| energy:  -191.45277276971530      penalty:   5.1417817089505051E-004
 PAO|LS| adapt:  T T T
 PAO|LS| adapt: scan_steps:    0.0000000000000000       0.28306953502240167       0.56613907004480335     
 PAO|LS| adapt: energies:   -191.06821665911178       -191.45277276971530       -190.15166741799985     
 PAO|LS| adapt: suggested step_size:   0.20611245517382690     
 PAO|LS| adapt: predicted energy  -191.51506749274847     
 PAO| ======================= Iteration:         9 =============================

     Lanczos converged:  T threshold:   0.100E-02
     Est. extremal eigenvalues:    0.511E+01   0.126E+00
     Est. condition number :    0.407E+02

 Order=           3
     NS sqrt iter    1 1.00000000   0.131E+01       0.021     2659.932
     NS sqrt iter    2 1.00000000   0.670E+00       0.034     3333.997
     NS sqrt iter    3 1.00000000   0.224E+00       0.034     3362.991
     NS sqrt iter    4 1.00000000   0.335E-01       0.034     3361.583
     NS sqrt iter    5 1.00000000   0.242E-03       0.034     3344.175
     NS sqrt iter    6 1.00000000   0.240E-09       0.028     2624.467
     Symmetrizing Results
     Final NS sqrt iter    6 1.00000000   0.653E-12

     Est. extremal eigenvalues     -0.83310     2.60454  converged:  T
     TRS4 it   1 1.00000000   0.284E+02       0.007     2102.692   0.100E-11
     TRS4 it   2 1.00000000   0.235E+02       0.013     2177.411   0.100E-11
     TRS4 it   3 1.00000000   0.155E+02       0.013     2182.175   0.100E-11
     TRS4 it   4 1.00000000   0.902E+01       0.013     2175.462   0.100E-11
     TRS4 it   5 1.00000000   0.379E+01       0.013     2181.025   0.100E-11
     TRS4 it   6 1.00000000   0.978E+00       0.013     2193.936   0.100E-11
     TRS4 it   7 1.00000000   0.119E+00       0.013     2177.407   0.100E-11
     TRS4 it   8 1.00000000   0.259E-02       0.013     2201.706   0.100E-11
     TRS4 it   9 1.00000000   0.146E-05       0.013     2176.155   0.100E-11
     TRS4 it  10 1.00000000   0.762E-12       0.013     2179.490   0.100E-11
     Final TRS4 iteration   10 1.00000000   0.762E-12
     Chemical potential (mu):       0.04576
 
 PAO| energy:  -191.51918829467081      penalty:   4.9732621471594801E-004
 PAO|CG| trace_G_new   0.72312419585198517     
 PAO|CG| trace_G_prev    4.4276619699787778     
 PAO|CG| trace_G_mix   -4.1011889071830163E-002
 PAO|CG| trace_D    4.4276619699787778     
 PAO|CG| trace_D_Gnew   4.1011889071830163E-002
 PAO|CG| beta:   0.17258229966626787     
 PAO| norm of gradient:  0.85036709476083627     
 PAO| energy improvement: -0.45097163555902853     
 PAO| step      9                 -191.519188295  0.166E-02  0.206E+00     1.521
 PAO|LS| adapt:  T F F
 PAO|LS| adapt: scan_steps:    0.0000000000000000        0.0000000000000000        0.0000000000000000     
 PAO|LS| adapt: energies:   -191.51918829467081        0.0000000000000000        0.0000000000000000     
 PAO| ======================= Iteration:        10 =============================

     Lanczos converged:  T threshold:   0.100E-02
     Est. extremal eigenvalues:    0.505E+01   0.129E+00
     Est. condition number :    0.392E+02

 Order=           3
     NS sqrt iter    1 1.00000000   0.130E+01       0.021     2690.467
     NS sqrt iter    2 1.00000000   0.661E+00       0.034     3341.533
     NS sqrt iter    3 1.00000000   0.219E+00       0.034     3330.784
     NS sqrt iter    4 1.00000000   0.312E-01       0.034     3330.577
     NS sqrt iter    5 1.00000000   0.195E-03       0.034     3350.720
     NS sqrt iter    6 1.00000000   0.126E-09       0.027     2484.314
     Symmetrizing Results
     Final NS sqrt iter    6 1.00000000   0.138E-11

     Est. extremal eigenvalues     -0.83357     2.59078  converged:  T
     TRS4 it   1 1.00000000   0.284E+02       0.007     2083.606   0.100E-11
     TRS4 it   2 1.00000000   0.235E+02       0.013     2172.199   0.100E-11
     TRS4 it   3 1.00000000   0.155E+02       0.013     2169.611   0.100E-11
     TRS4 it   4 1.00000000   0.900E+01       0.013     2177.957   0.100E-11
     TRS4 it   5 1.00000000   0.376E+01       0.013     2159.322   0.100E-11
     TRS4 it   6 1.00000000   0.966E+00       0.013     2176.007   0.100E-11
     TRS4 it   7 1.00000000   0.116E+00       0.013     2183.825   0.100E-11
     TRS4 it   8 1.00000000   0.245E-02       0.013     2170.406   0.100E-11
     TRS4 it   9 1.00000000   0.132E-05       0.013     2193.398   0.100E-11
     TRS4 it  10 1.00000000   0.597E-12       0.013     2174.920   0.100E-11
     Final TRS4 iteration   10 1.00000000   0.597E-12
     Chemical potential (mu):       0.04652
 
 PAO| energy:  -191.61842626965992      penalty:   4.9946542045104544E-004
 PAO|LS| adapt:  T T F
 PAO|LS| adapt: scan_steps:    0.0000000000000000       0.20611245517382690        0.0000000000000000     
 PAO|LS| adapt: energies:   -191.51918829467081       -191.61842626965992        0.0000000000000000     
 PAO| ======================= Iteration:        11 =============================

     Lanczos converged:  T threshold:   0.100E-02
     Est. extremal eigenvalues:    0.500E+01   0.132E+00
     Est. condition number :    0.378E+02

 Order=           3
     NS sqrt iter    1 1.00000000   0.129E+01       0.021     2661.315
     NS sqrt iter    2 1.00000000   0.653E+00       0.034     3340.764
     NS sqrt iter    3 1.00000000   0.213E+00       0.034     3311.554
     NS sqrt iter    4 1.00000000   0.290E-01       0.034     3338.867
     NS sqrt iter    5 1.00000000   0.157E-03       0.034     3346.347
     NS sqrt iter    6 1.00000000   0.649E-10       0.023     2375.901
     Symmetrizing Results
     Final NS sqrt iter    6 1.00000000   0.203E-11

     Est. extremal eigenvalues     -0.83365     2.57671  converged:  T
     TRS4 it   1 1.00000000   0.284E+02       0.007     2097.086   0.100E-11
     TRS4 it   2 1.00000000   0.234E+02       0.013     2169.723   0.100E-11
     TRS4 it   3 1.00000000   0.154E+02       0.013     2175.132   0.100E-11
     TRS4 it   4 1.00000000   0.898E+01       0.013     2187.193   0.100E-11
     TRS4 it   5 1.00000000   0.374E+01       0.013     2157.917   0.100E-11
     TRS4 it   6 1.00000000   0.951E+00       0.013     2171.287   0.100E-11
     TRS4 it   7 1.00000000   0.112E+00       0.013     2146.073   0.100E-11
     TRS4 it   8 1.00000000   0.230E-02       0.013     2169.950   0.100E-11
     TRS4 it   9 1.00000000   0.117E-05       0.013     2163.613   0.100E-11
     TRS4 it  10 1.00000000   0.535E-12       0.013     2165.596   0.100E-11
     Final TRS4 iteration   10 1.00000000   0.535E-12
     Chemical potential (mu):       0.04737
 
 PAO| energy:  -191.62358125964531      penalty:   5.1136363539212187E-004
 PAO|LS| adapt:  T T F
 PAO|LS| adapt: scan_steps:    0.0000000000000000       0.41222491034765379        0.0000000000000000     
 PAO|LS| adapt: energies:   -191.51918829467081       -191.62358125964531        0.0000000000000000     
 PAO| ======================= Iteration:        12 =============================

     Lanczos converged:  T threshold:   0.100E-02
     Est. extremal eigenvalues:    0.490E+01   0.139E+00
     Est. condition number :    0.352E+02

 Order=           3
     NS sqrt iter    1 1.00000000   0.127E+01       0.021     2660.043
     NS sqrt iter    2 1.00000000   0.636E+00       0.034     3342.558
     NS sqrt iter    3 1.00000000   0.202E+00       0.034     3360.248
     NS sqrt iter    4 1.00000000   0.250E-01       0.034     3304.266
     NS sqrt iter    5 1.00000000   0.101E-03       0.034     3349.926
     NS sqrt iter    6 1.00000000   0.168E-10       0.017     2137.893
     Symmetrizing Results
     Final NS sqrt iter    6 1.00000000   0.194E-11

     Est. extremal eigenvalues     -0.83271     2.54832  converged:  T
     TRS4 it   1 1.00000000   0.283E+02       0.007     2115.310   0.100E-11
     TRS4 it   2 1.00000000   0.232E+02       0.013     2170.307   0.100E-11
     TRS4 it   3 1.00000000   0.154E+02       0.013     2177.101   0.100E-11
     TRS4 it   4 1.00000000   0.891E+01       0.013     2173.370   0.100E-11
     TRS4 it   5 1.00000000   0.368E+01       0.013     2186.880   0.100E-11
     TRS4 it   6 1.00000000   0.917E+00       0.013     2159.021   0.100E-11
     TRS4 it   7 1.00000000   0.104E+00       0.013     2194.592   0.100E-11
     TRS4 it   8 1.00000000   0.198E-02       0.013     2153.085   0.100E-11
     TRS4 it   9 1.00000000   0.885E-06       0.013     2178.923   0.100E-11
     TRS4 it  10 1.00000000   0.290E-12       0.013     2167.855   0.100E-11
     Final TRS4 iteration   10 1.00000000   0.290E-12
     Chemical potential (mu):       0.04923
 
 PAO| energy:  -191.36811394166892      penalty:   5.7130030263927915E-004
 PAO|LS| Need extra step
 PAO|LS| adapt:  T T T
 PAO|LS| adapt: scan_steps:    0.0000000000000000       0.41222491034765379       0.82444982069530759     
 PAO|LS| adapt: energies:   -191.51918829467081       -191.62358125964531       -191.36811394166892     
 PAO|LS| adapt: suggested step_size:   0.32569603431921118     
 PAO|LS| adapt: predicted energy  -191.63150914902914     
 PAO| ======================= Iteration:        13 =============================

     Lanczos converged:  T threshold:   0.100E-02
     Est. extremal eigenvalues:    0.502E+01   0.131E+00
     Est. condition number :    0.384E+02

 Order=           3
     NS sqrt iter    1 1.00000000   0.129E+01       0.021     2658.693
     NS sqrt iter    2 1.00000000   0.657E+00       0.034     3325.925
     NS sqrt iter    3 1.00000000   0.215E+00       0.034     3320.688
     NS sqrt iter    4 1.00000000   0.299E-01       0.034     3335.448
     NS sqrt iter    5 1.00000000   0.172E-03       0.034     3322.557
     NS sqrt iter    6 1.00000000   0.857E-10       0.025     2433.165
     Symmetrizing Results
     Final NS sqrt iter    6 1.00000000   0.177E-11

     Est. extremal eigenvalues     -0.83366     2.58264  converged:  T
     TRS4 it   1 1.00000000   0.284E+02       0.007     2098.682   0.100E-11
     TRS4 it   2 1.00000000   0.234E+02       0.013     2153.569   0.100E-11
     TRS4 it   3 1.00000000   0.154E+02       0.013     2157.865   0.100E-11
     TRS4 it   4 1.00000000   0.899E+01       0.013     2168.923   0.100E-11
     TRS4 it   5 1.00000000   0.375E+01       0.013     2174.878   0.100E-11
     TRS4 it   6 1.00000000   0.957E+00       0.013     2178.079   0.100E-11
     TRS4 it   7 1.00000000   0.114E+00       0.013     2149.644   0.100E-11
     TRS4 it   8 1.00000000   0.236E-02       0.013     2179.622   0.100E-11
     TRS4 it   9 1.00000000   0.123E-05       0.013     2159.992   0.100E-11
     TRS4 it  10 1.00000000   0.531E-12       0.013     2168.557   0.100E-11
     Final TRS4 iteration   10 1.00000000   0.531E-12
     Chemical potential (mu):       0.04701
 
 PAO| energy:  -191.63261742009249      penalty:   5.0510140486760059E-004
 PAO|CG| trace_G_new   0.27436729563493950     
 PAO|CG| trace_G_prev   0.72312419585198517     
 PAO|CG| trace_G_mix   -1.2027255505327088E-002
 PAO|CG| trace_D   0.84084470638676700     
 PAO|CG| trace_D_Gnew   1.1576061734787230E-002
 PAO|CG| beta:   0.39605167795946367     
 PAO| norm of gradient:  0.52380081675665557     
 PAO| energy improvement: -0.11342912542167483     
 PAO| step     13                 -191.632617420  0.102E-02  0.326E+00     1.961
 PAO|LS| adapt:  T F F
 PAO|LS| adapt: scan_steps:    0.0000000000000000        0.0000000000000000        0.0000000000000000     
 PAO|LS| adapt: energies:   -191.63261742009249        0.0000000000000000        0.0000000000000000     
 PAO| ======================= Iteration:        14 =============================

     Lanczos converged:  T threshold:   0.100E-02
     Est. extremal eigenvalues:    0.495E+01   0.134E+00
     Est. condition number :    0.370E+02

 Order=           3
     NS sqrt iter    1 1.00000000   0.128E+01       0.021     2655.475
     NS sqrt iter    2 1.00000000   0.645E+00       0.034     3340.215
     NS sqrt iter    3 1.00000000   0.209E+00       0.034     3351.852
     NS sqrt iter    4 1.00000000   0.276E-01       0.034     3340.703
     NS sqrt iter    5 1.00000000   0.138E-03       0.034     3330.107
     NS sqrt iter    6 1.00000000   0.441E-10       0.022     2295.478
     Symmetrizing Results
     Final NS sqrt iter    6 1.00000000   0.219E-11

     Est. extremal eigenvalues     -0.83405     2.57605  converged:  T
     TRS4 it   1 1.00000000   0.284E+02       0.007     2116.493   0.100E-11
     TRS4 it   2 1.00000000   0.234E+02       0.013     2168.893   0.100E-11
     TRS4 it   3 1.00000000   0.154E+02       0.013     2193.363   0.100E-11
     TRS4 it   4 1.00000000   0.893E+01       0.013     2170.044   0.100E-11
     TRS4 it   5 1.00000000   0.369E+01       0.013     2199.550   0.100E-11
     TRS4 it   6 1.00000000   0.928E+00       0.013     2157.330   0.100E-11
     TRS4 it   7 1.00000000   0.107E+00       0.013     2187.635   0.100E-11
     TRS4 it   8 1.00000000   0.210E-02       0.013     2170.188   0.100E-11
     TRS4 it   9 1.00000000   0.981E-06       0.013     2177.336   0.100E-11
     TRS4 it  10 1.00000000   0.320E-12       0.013     2170.673   0.100E-11
     Final TRS4 iteration   10 1.00000000   0.320E-12
     Chemical potential (mu):       0.04868
 
 PAO| energy:  -191.68369177414732      penalty:   5.0648444624235987E-004
 PAO|LS| adapt:  T T F
 PAO|LS| adapt: scan_steps:    0.0000000000000000       0.32569603431921118        0.0000000000000000     
 PAO|LS| adapt: energies:   -191.63261742009249       -191.68369177414732        0.0000000000000000     
 PAO| ======================= Iteration:        15 =============================

     Lanczos converged:  T threshold:   0.100E-02
     Est. extremal eigenvalues:    0.487E+01   0.136E+00
     Est. condition number :    0.358E+02

 Order=           3
     NS sqrt iter    1 1.00000000   0.126E+01       0.021     2682.895
     NS sqrt iter    2 1.00000000   0.634E+00       0.034     3323.944
     NS sqrt iter    3 1.00000000   0.203E+00       0.034     3298.106
     NS sqrt iter    4 1.00000000   0.255E-01       0.034     3337.747
     NS sqrt iter    5 1.00000000   0.110E-03       0.034     3312.775
     NS sqrt iter    6 1.00000000   0.228E-10       0.018     2174.086
     Symmetrizing Results
     Final NS sqrt iter    6 1.00000000   0.212E-11

     Est. extremal eigenvalues     -0.83407     2.56906  converged:  T
     TRS4 it   1 1.00000000   0.285E+02       0.007     2091.894   0.100E-11
     TRS4 it   2 1.00000000   0.233E+02       0.013     2162.188   0.100E-11
     TRS4 it   3 1.00000000   0.154E+02       0.013     2179.673   0.100E-11
     TRS4 it   4 1.00000000   0.887E+01       0.013     2162.780   0.100E-11
     TRS4 it   5 1.00000000   0.364E+01       0.013     2173.581   0.100E-11
     TRS4 it   6 1.00000000   0.900E+00       0.013     2187.286   0.100E-11
     TRS4 it   7 1.00000000   0.101E+00       0.013     2173.252   0.100E-11
     TRS4 it   8 1.00000000   0.187E-02       0.013     2159.124   0.100E-11
     TRS4 it   9 1.00000000   0.784E-06       0.013     2175.307   0.100E-11
     TRS4 it  10 1.00000000   0.188E-12       0.013     2184.425   0.100E-11
     Final TRS4 iteration   10 1.00000000   0.188E-12
     Chemical potential (mu):       0.05027
 
 PAO| energy:  -191.66227217652732      penalty:   5.2239448431338651E-004
 PAO|LS| adapt:  T T T
 PAO|LS| adapt: scan_steps:    0.0000000000000000       0.32569603431921118       0.65139206863842236     
 PAO|LS| adapt: energies:   -191.63261742009249       -191.68369177414732       -191.66227217652732     
 PAO|LS| adapt: suggested step_size:   0.39231149910206237     
 PAO|LS| adapt: predicted energy  -191.68520811544010     
 PAO| ======================= Iteration:        16 =============================

     Lanczos converged:  T threshold:   0.100E-02
     Est. extremal eigenvalues:    0.493E+01   0.134E+00
     Est. condition number :    0.368E+02

 Order=           3
     NS sqrt iter    1 1.00000000   0.127E+01       0.021     2657.037
     NS sqrt iter    2 1.00000000   0.643E+00       0.034     3347.226
     NS sqrt iter    3 1.00000000   0.208E+00       0.034     3341.595
     NS sqrt iter    4 1.00000000   0.272E-01       0.034     3351.960
     NS sqrt iter    5 1.00000000   0.131E-03       0.034     3341.499
     NS sqrt iter    6 1.00000000   0.385E-10       0.021     2277.651
     Symmetrizing Results
     Final NS sqrt iter    6 1.00000000   0.224E-11

     Est. extremal eigenvalues     -0.83408     2.57465  converged:  T
     TRS4 it   1 1.00000000   0.284E+02       0.007     2104.150   0.100E-11
     TRS4 it   2 1.00000000   0.234E+02       0.013     2142.220   0.100E-11
     TRS4 it   3 1.00000000   0.154E+02       0.013     2175.400   0.100E-11
     TRS4 it   4 1.00000000   0.892E+01       0.013     2164.495   0.100E-11
     TRS4 it   5 1.00000000   0.368E+01       0.013     2169.754   0.100E-11
     TRS4 it   6 1.00000000   0.923E+00       0.014     2102.001   0.100E-11
     TRS4 it   7 1.00000000   0.106E+00       0.013     2141.606   0.100E-11
     TRS4 it   8 1.00000000   0.205E-02       0.013     2171.041   0.100E-11
     TRS4 it   9 1.00000000   0.937E-06       0.013     2171.334   0.100E-11
     TRS4 it  10 1.00000000   0.314E-12       0.013     2163.598   0.100E-11
     Final TRS4 iteration   10 1.00000000   0.314E-12
     Chemical potential (mu):       0.04901
 
 PAO| energy:  -191.68515382604565      penalty:   5.0851206837179610E-004
 PAO|CG| trace_G_new   0.10337666290318789     
 PAO|CG| trace_G_prev   0.27436729563493950     
 PAO|CG| trace_G_mix    4.2687820763992112E-003
 PAO|CG| trace_D   0.39709017889461901     
 PAO|CG| trace_D_Gnew   7.4583293027073207E-004
 PAO|CG| beta:   0.36122337612226596     
 PAO| norm of gradient:  0.32152241430915496     
 PAO| energy improvement:  -5.2536405953162557E-002
 PAO| step     16                 -191.685153826  0.628E-03  0.392E+00     1.503
 PAO|LS| adapt:  T F F
 PAO|LS| adapt: scan_steps:    0.0000000000000000        0.0000000000000000        0.0000000000000000     
 PAO|LS| adapt: energies:   -191.68515382604565        0.0000000000000000        0.0000000000000000     
 PAO| ======================= Iteration:        17 =============================

     Lanczos converged:  T threshold:   0.100E-02
     Est. extremal eigenvalues:    0.489E+01   0.135E+00
     Est. condition number :    0.362E+02

 Order=           3
     NS sqrt iter    1 1.00000000   0.126E+01       0.021     2670.858
     NS sqrt iter    2 1.00000000   0.637E+00       0.034     3329.889
     NS sqrt iter    3 1.00000000   0.205E+00       0.034     3344.642
     NS sqrt iter    4 1.00000000   0.262E-01       0.034     3343.127
     NS sqrt iter    5 1.00000000   0.119E-03       0.034     3370.788
     NS sqrt iter    6 1.00000000   0.292E-10       0.019     2226.390
     Symmetrizing Results
     Final NS sqrt iter    6 1.00000000   0.217E-11

     Est. extremal eigenvalues     -0.83414     2.57233  converged:  T
     TRS4 it   1 1.00000000   0.285E+02       0.007     2129.431   0.100E-11
     TRS4 it   2 1.00000000   0.233E+02       0.013     2208.561   0.100E-11
     TRS4 it   3 1.00000000   0.154E+02       0.013     2184.281   0.100E-11
     TRS4 it   4 1.00000000   0.887E+01       0.013     2164.160   0.100E-11
     TRS4 it   5 1.00000000   0.364E+01       0.013     2182.199   0.100E-11
     TRS4 it   6 1.00000000   0.903E+00       0.013     2181.262   0.100E-11
     TRS4 it   7 1.00000000   0.102E+00       0.013     2171.445   0.100E-11
     TRS4 it   8 1.00000000   0.189E-02       0.013     2168.784   0.100E-11
     TRS4 it   9 1.00000000   0.800E-06       0.013     2175.006   0.100E-11
     TRS4 it  10 1.00000000   0.206E-12       0.013     2181.757   0.100E-11
     Final TRS4 iteration   10 1.00000000   0.206E-12
     Chemical potential (mu):       0.05009
 
 PAO| energy:  -191.69040523239320      penalty:   5.0080683668693058E-004
 PAO|LS| adapt:  T T F
 PAO|LS| adapt: scan_steps:    0.0000000000000000       0.39231149910206237        0.0000000000000000     
 PAO|LS| adapt: energies:   -191.68515382604565       -191.69040523239320        0.0000000000000000     
 PAO| ======================= Iteration:        18 =============================

     Lanczos converged:  T threshold:   0.100E-02
     Est. extremal eigenvalues:    0.484E+01   0.135E+00
     Est. condition number :    0.357E+02

 Order=           3
     NS sqrt iter    1 1.00000000   0.125E+01       0.021     2680.073
     NS sqrt iter    2 1.00000000   0.632E+00       0.034     3350.124
     NS sqrt iter    3 1.00000000   0.202E+00       0.034     3343.686
     NS sqrt iter    4 1.00000000   0.253E-01       0.034     3332.100
     NS sqrt iter    5 1.00000000   0.108E-03       0.034     3340.686
     NS sqrt iter    6 1.00000000   0.222E-10       0.018     2159.734
     Symmetrizing Results
     Final NS sqrt iter    6 1.00000000   0.211E-11

     Est. extremal eigenvalues     -0.83402     2.56991  converged:  T
     TRS4 it   1 1.00000000   0.285E+02       0.007     2123.688   0.100E-11
     TRS4 it   2 1.00000000   0.233E+02       0.013     2169.372   0.100E-11
     TRS4 it   3 1.00000000   0.153E+02       0.013     2175.089   0.100E-11
     TRS4 it   4 1.00000000   0.883E+01       0.013     2169.759   0.100E-11
     TRS4 it   5 1.00000000   0.360E+01       0.013     2170.057   0.100E-11
     TRS4 it   6 1.00000000   0.884E+00       0.013     2183.560   0.100E-11
     TRS4 it   7 1.00000000   0.978E-01       0.013     2174.775   0.100E-11
     TRS4 it   8 1.00000000   0.175E-02       0.013     2166.969   0.100E-11
     TRS4 it   9 1.00000000   0.684E-06       0.013     2169.840   0.100E-11
     TRS4 it  10 1.00000000   0.144E-12       0.013     2162.962   0.100E-11
     Final TRS4 iteration   10 1.00000000   0.144E-12
     Chemical potential (mu):       0.05123
 
 PAO| energy:  -191.62513361649633      penalty:   5.0049613036880517E-004
 PAO|LS| adapt:  T T T
 PAO|LS| adapt: scan_steps:    0.0000000000000000       0.39231149910206237       0.78462299820412473     
 PAO|LS| adapt: energies:   -191.68515382604565       -191.69040523239320       -191.62513361649633     
 PAO|LS| adapt: suggested step_size:   0.22536872186895787     
 PAO|LS| adapt: predicted energy  -191.69679042661718     
 PAO| ======================= Iteration:        19 =============================

     Lanczos converged:  T threshold:   0.100E-02
     Est. extremal eigenvalues:    0.490E+01   0.135E+00
     Est. condition number :    0.364E+02

 Order=           3
     NS sqrt iter    1 1.00000000   0.127E+01       0.022     2646.511
     NS sqrt iter    2 1.00000000   0.640E+00       0.034     3343.093
     NS sqrt iter    3 1.00000000   0.206E+00       0.034     3354.090
     NS sqrt iter    4 1.00000000   0.266E-01       0.034     3349.914
     NS sqrt iter    5 1.00000000   0.124E-03       0.034     3342.943
     NS sqrt iter    6 1.00000000   0.328E-10       0.020     2248.684
     Symmetrizing Results
     Final NS sqrt iter    6 1.00000000   0.222E-11

     Est. extremal eigenvalues     -0.83413     2.57333  converged:  T
     TRS4 it   1 1.00000000   0.285E+02       0.007     2118.456   0.100E-11
     TRS4 it   2 1.00000000   0.234E+02       0.013     2179.186   0.100E-11
     TRS4 it   3 1.00000000   0.154E+02       0.013     2151.573   0.100E-11
     TRS4 it   4 1.00000000   0.889E+01       0.013     2169.966   0.100E-11
     TRS4 it   5 1.00000000   0.366E+01       0.013     2161.700   0.100E-11
     TRS4 it   6 1.00000000   0.911E+00       0.013     2189.935   0.100E-11
     TRS4 it   7 1.00000000   0.103E+00       0.013     2164.734   0.100E-11
     TRS4 it   8 1.00000000   0.196E-02       0.013     2180.068   0.100E-11
     TRS4 it   9 1.00000000   0.855E-06       0.013     2161.301   0.100E-11
     TRS4 it  10 1.00000000   0.249E-12       0.013     2154.327   0.100E-11
     Final TRS4 iteration   10 1.00000000   0.249E-12
     Chemical potential (mu):       0.04963
 
 PAO| energy:  -191.69678072086910      penalty:   5.0319514020800038E-004
 PAO|CG| trace_G_new    2.1933166323144630E-002
 PAO|CG| trace_G_prev   0.10337666290318789     
 PAO|CG| trace_G_mix   -3.8249891181567168E-004
 PAO|CG| trace_D   0.15465108907754987     
 PAO|CG| trace_D_Gnew  -3.7894678225021622E-005
 PAO|CG| beta:   0.21586753342830278     
 PAO| norm of gradient:  0.14809850209622186     
 PAO| energy improvement:  -1.1626894823450584E-002
 PAO| step     19                 -191.696780721  0.289E-03  0.225E+00     1.498
 PAO|LS| adapt:  T F F
 PAO|LS| adapt: scan_steps:    0.0000000000000000        0.0000000000000000        0.0000000000000000     
 PAO|LS| adapt: energies:   -191.69678072086910        0.0000000000000000        0.0000000000000000     
 PAO| ======================= Iteration:        20 =============================

     Lanczos converged:  T threshold:   0.100E-02
     Est. extremal eigenvalues:    0.490E+01   0.134E+00
     Est. condition number :    0.364E+02

 Order=           3
     NS sqrt iter    1 1.00000000   0.126E+01       0.021     2670.957
     NS sqrt iter    2 1.00000000   0.639E+00       0.034     3348.047
     NS sqrt iter    3 1.00000000   0.206E+00       0.034     3344.150
     NS sqrt iter    4 1.00000000   0.266E-01       0.034     3336.181
     NS sqrt iter    5 1.00000000   0.124E-03       0.034     3353.741
     NS sqrt iter    6 1.00000000   0.323E-10       0.020     2224.044
     Symmetrizing Results
     Final NS sqrt iter    6 1.00000000   0.222E-11

     Est. extremal eigenvalues     -0.83414     2.57210  converged:  T
     TRS4 it   1 1.00000000   0.285E+02       0.007     2083.219   0.100E-11
     TRS4 it   2 1.00000000   0.233E+02       0.013     2128.113   0.100E-11
     TRS4 it   3 1.00000000   0.154E+02       0.013     2170.843   0.100E-11
     TRS4 it   4 1.00000000   0.888E+01       0.013     2186.869   0.100E-11
     TRS4 it   5 1.00000000   0.365E+01       0.013     2178.862   0.100E-11
     TRS4 it   6 1.00000000   0.907E+00       0.013     2189.295   0.100E-11
     TRS4 it   7 1.00000000   0.103E+00       0.013     2167.852   0.100E-11
     TRS4 it   8 1.00000000   0.192E-02       0.013     2159.458   0.100E-11
     TRS4 it   9 1.00000000   0.827E-06       0.013     2160.384   0.100E-11
     TRS4 it  10 1.00000000   0.263E-12       0.013     2172.665   0.100E-11
     Final TRS4 iteration   10 1.00000000   0.263E-12
     Chemical potential (mu):       0.04984
 
 PAO| energy:  -191.70075471283522      penalty:   4.9327774543218394E-004
 PAO|LS| adapt:  T T F
 PAO|LS| adapt: scan_steps:    0.0000000000000000       0.22536872186895787        0.0000000000000000     
 PAO|LS| adapt: energies:   -191.69678072086910       -191.70075471283522        0.0000000000000000     
 PAO| ======================= Iteration:        21 =============================

     Lanczos converged:  T threshold:   0.100E-02
     Est. extremal eigenvalues:    0.489E+01   0.134E+00
     Est. condition number :    0.364E+02

 Order=           3
     NS sqrt iter    1 1.00000000   0.126E+01       0.022     2647.291
     NS sqrt iter    2 1.00000000   0.638E+00       0.034     3336.872
     NS sqrt iter    3 1.00000000   0.205E+00       0.034     3330.309
     NS sqrt iter    4 1.00000000   0.265E-01       0.034     3325.975
     NS sqrt iter    5 1.00000000   0.123E-03       0.034     3322.591
     NS sqrt iter    6 1.00000000   0.318E-10       0.020     2227.271
     Symmetrizing Results
     Final NS sqrt iter    6 1.00000000   0.222E-11

     Est. extremal eigenvalues     -0.83415     2.57085  converged:  T
     TRS4 it   1 1.00000000   0.285E+02       0.007     2094.592   0.100E-11
     TRS4 it   2 1.00000000   0.233E+02       0.013     2173.931   0.100E-11
     TRS4 it   3 1.00000000   0.154E+02       0.013     2154.709   0.100E-11
     TRS4 it   4 1.00000000   0.887E+01       0.013     2176.478   0.100E-11
     TRS4 it   5 1.00000000   0.364E+01       0.013     2177.211   0.100E-11
     TRS4 it   6 1.00000000   0.902E+00       0.013     2164.589   0.100E-11
     TRS4 it   7 1.00000000   0.102E+00       0.013     2194.425   0.100E-11
     TRS4 it   8 1.00000000   0.189E-02       0.013     2161.640   0.100E-11
     TRS4 it   9 1.00000000   0.799E-06       0.013     2198.789   0.100E-11
     TRS4 it  10 1.00000000   0.236E-12       0.013     2154.875   0.100E-11
     Final TRS4 iteration   10 1.00000000   0.236E-12
     Chemical potential (mu):       0.05005
 
 PAO| energy:  -191.70277290873474      penalty:   4.8382926424148359E-004
 PAO|LS| adapt:  T T F
 PAO|LS| adapt: scan_steps:    0.0000000000000000       0.45073744373791574        0.0000000000000000     
 PAO|LS| adapt: energies:   -191.69678072086910       -191.70277290873474        0.0000000000000000     
 PAO| ======================= Iteration:        22 =============================

     Lanczos converged:  T threshold:   0.100E-02
     Est. extremal eigenvalues:    0.487E+01   0.134E+00
     Est. condition number :    0.363E+02

 Order=           3
     NS sqrt iter    1 1.00000000   0.126E+01       0.021     2677.152
     NS sqrt iter    2 1.00000000   0.636E+00       0.034     3352.438
     NS sqrt iter    3 1.00000000   0.205E+00       0.034     3323.429
     NS sqrt iter    4 1.00000000   0.264E-01       0.034     3343.407
     NS sqrt iter    5 1.00000000   0.122E-03       0.034     3325.035
     NS sqrt iter    6 1.00000000   0.309E-10       0.020     2244.842
     Symmetrizing Results
     Final NS sqrt iter    6 1.00000000   0.221E-11

     Est. extremal eigenvalues     -0.83415     2.56830  converged:  T
     TRS4 it   1 1.00000000   0.285E+02       0.007     2119.939   0.100E-11
     TRS4 it   2 1.00000000   0.233E+02       0.013     2165.899   0.100E-11
     TRS4 it   3 1.00000000   0.154E+02       0.013     2179.956   0.100E-11
     TRS4 it   4 1.00000000   0.884E+01       0.013     2167.439   0.100E-11
     TRS4 it   5 1.00000000   0.362E+01       0.013     2181.863   0.100E-11
     TRS4 it   6 1.00000000   0.894E+00       0.013     2168.630   0.100E-11
     TRS4 it   7 1.00000000   0.100E+00       0.013     2180.776   0.100E-11
     TRS4 it   8 1.00000000   0.183E-02       0.013     2193.193   0.100E-11
     TRS4 it   9 1.00000000   0.747E-06       0.013     2148.755   0.100E-11
     TRS4 it  10 1.00000000   0.233E-12       0.013     2183.748   0.100E-11
     Final TRS4 iteration   10 1.00000000   0.233E-12
     Chemical potential (mu):       0.05048
 
 PAO| energy:  -191.70085697816529      penalty:   4.6630932931222168E-004
 PAO|LS| Need extra step
 PAO|LS| adapt:  T T T
 PAO|LS| adapt: scan_steps:    0.0000000000000000       0.45073744373791574       0.90147488747583149     
 PAO|LS| adapt: energies:   -191.69678072086910       -191.70277290873474       -191.70085697816529     
 PAO|LS| adapt: suggested step_size:   0.56690425438840963     
 PAO|LS| adapt: predicted energy  -191.70303554822479     
 PAO| ======================= Iteration:        23 =============================

     Lanczos converged:  T threshold:   0.100E-02
     Est. extremal eigenvalues:    0.488E+01   0.134E+00
     Est. condition number :    0.364E+02

 Order=           3
     NS sqrt iter    1 1.00000000   0.126E+01       0.021     2681.786
     NS sqrt iter    2 1.00000000   0.638E+00       0.034     3345.964
     NS sqrt iter    3 1.00000000   0.205E+00       0.034     3327.686
     NS sqrt iter    4 1.00000000   0.265E-01       0.034     3335.494
     NS sqrt iter    5 1.00000000   0.123E-03       0.034     3333.833
     NS sqrt iter    6 1.00000000   0.315E-10       0.020     2225.714
     Symmetrizing Results
     Final NS sqrt iter    6 1.00000000   0.223E-11

     Est. extremal eigenvalues     -0.83415     2.57020  converged:  T
     TRS4 it   1 1.00000000   0.285E+02       0.007     2082.673   0.100E-11
     TRS4 it   2 1.00000000   0.233E+02       0.013     2186.790   0.100E-11
     TRS4 it   3 1.00000000   0.154E+02       0.013     2144.404   0.100E-11
     TRS4 it   4 1.00000000   0.886E+01       0.013     2185.921   0.100E-11
     TRS4 it   5 1.00000000   0.363E+01       0.013     2203.439   0.100E-11
     TRS4 it   6 1.00000000   0.900E+00       0.013     2205.160   0.100E-11
     TRS4 it   7 1.00000000   0.101E+00       0.013     2159.906   0.100E-11
     TRS4 it   8 1.00000000   0.187E-02       0.013     2182.888   0.100E-11
     TRS4 it   9 1.00000000   0.785E-06       0.013     2185.024   0.100E-11
     TRS4 it  10 1.00000000   0.229E-12       0.013     2164.736   0.100E-11
     Final TRS4 iteration   10 1.00000000   0.229E-12
     Chemical potential (mu):       0.05016
 
 PAO| energy:  -191.70304238889528      penalty:   4.7913951210624349E-004
 PAO|CG| trace_G_new    1.7469042342107832E-002
 PAO|CG| trace_G_prev    2.1933166323144630E-002
 PAO|CG| trace_G_mix    1.1597510368364396E-004
 PAO|CG| trace_D    2.9156080715288888E-002
 PAO|CG| trace_D_Gnew  -5.0589929571602879E-005
 PAO|CG| beta:   0.79117930273991666     
 PAO| norm of gradient:  0.13217050481142845     
 PAO| energy improvement:  -6.2616680261839974E-003
 PAO| step     23                 -191.703042389  0.258E-03  0.567E+00     1.948
 PAO|LS| adapt:  T F F
 PAO|LS| adapt: scan_steps:    0.0000000000000000        0.0000000000000000        0.0000000000000000     
 PAO|LS| adapt: energies:   -191.70304238889528        0.0000000000000000        0.0000000000000000     
 PAO| ======================= Iteration:        24 =============================

     Lanczos converged:  T threshold:   0.100E-02
     Est. extremal eigenvalues:    0.486E+01   0.134E+00
     Est. condition number :    0.363E+02

 Order=           3
     NS sqrt iter    1 1.00000000   0.125E+01       0.021     2678.896
     NS sqrt iter    2 1.00000000   0.635E+00       0.034     3334.453
     NS sqrt iter    3 1.00000000   0.205E+00       0.034     3297.108
     NS sqrt iter    4 1.00000000   0.264E-01       0.034     3316.487
     NS sqrt iter    5 1.00000000   0.121E-03       0.034     3328.958
     NS sqrt iter    6 1.00000000   0.309E-10       0.020     2247.423
     Symmetrizing Results
     Final NS sqrt iter    6 1.00000000   0.221E-11

     Est. extremal eigenvalues     -0.83417     2.56650  converged:  T
     TRS4 it   1 1.00000000   0.285E+02       0.007     2110.360   0.100E-11
     TRS4 it   2 1.00000000   0.233E+02       0.013     2174.268   0.100E-11
     TRS4 it   3 1.00000000   0.153E+02       0.013     2141.719   0.100E-11
     TRS4 it   4 1.00000000   0.883E+01       0.013     2171.945   0.100E-11
     TRS4 it   5 1.00000000   0.361E+01       0.013     2169.769   0.100E-11
     TRS4 it   6 1.00000000   0.891E+00       0.013     2149.542   0.100E-11
     TRS4 it   7 1.00000000   0.993E-01       0.013     2164.909   0.100E-11
     TRS4 it   8 1.00000000   0.180E-02       0.013     2155.329   0.100E-11
     TRS4 it   9 1.00000000   0.729E-06       0.013     2168.553   0.100E-11
     TRS4 it  10 1.00000000   0.172E-12       0.013     2164.215   0.100E-11
     Final TRS4 iteration   10 1.00000000   0.172E-12
     Chemical potential (mu):       0.05062
 
 PAO| energy:  -191.70642612423376      penalty:   4.4133244457777304E-004
 PAO|LS| adapt:  T T F
 PAO|LS| adapt: scan_steps:    0.0000000000000000       0.56690425438840963        0.0000000000000000     
 PAO|LS| adapt: energies:   -191.70304238889528       -191.70642612423376        0.0000000000000000     
 PAO| ======================= Iteration:        25 =============================

     Lanczos converged:  T threshold:   0.100E-02
     Est. extremal eigenvalues:    0.484E+01   0.133E+00
     Est. condition number :    0.363E+02

 Order=           3
     NS sqrt iter    1 1.00000000   0.125E+01       0.021     2662.891
     NS sqrt iter    2 1.00000000   0.633E+00       0.034     3351.994
     NS sqrt iter    3 1.00000000   0.204E+00       0.034     3356.669
     NS sqrt iter    4 1.00000000   0.263E-01       0.034     3325.511
     NS sqrt iter    5 1.00000000   0.121E-03       0.034     3329.527
     NS sqrt iter    6 1.00000000   0.305E-10       0.020     2208.477
     Symmetrizing Results
     Final NS sqrt iter    6 1.00000000   0.220E-11

     Est. extremal eigenvalues     -0.83417     2.56255  converged:  T
     TRS4 it   1 1.00000000   0.285E+02       0.007     2107.881   0.100E-11
     TRS4 it   2 1.00000000   0.233E+02       0.013     2164.369   0.100E-11
     TRS4 it   3 1.00000000   0.153E+02       0.013     2180.108   0.100E-11
     TRS4 it   4 1.00000000   0.881E+01       0.013     2172.545   0.100E-11
     TRS4 it   5 1.00000000   0.359E+01       0.013     2170.832   0.100E-11
     TRS4 it   6 1.00000000   0.881E+00       0.013     2173.539   0.100E-11
     TRS4 it   7 1.00000000   0.974E-01       0.013     2182.266   0.100E-11
     TRS4 it   8 1.00000000   0.174E-02       0.013     2182.560   0.100E-11
     TRS4 it   9 1.00000000   0.678E-06       0.013     2168.064   0.100E-11
     TRS4 it  10 1.00000000   0.142E-12       0.013     2172.950   0.100E-11
     Final TRS4 iteration   10 1.00000000   0.142E-12
     Chemical potential (mu):       0.05109
 
 PAO| energy:  -191.69649732502214      penalty:   4.0787964080373103E-004
 PAO|LS| adapt:  T T T
 PAO|LS| adapt: scan_steps:    0.0000000000000000       0.56690425438840963        1.1338085087768193     
 PAO|LS| adapt: energies:   -191.70304238889528       -191.70642612423376       -191.69649732502214     
 PAO|LS| adapt: suggested step_size:   0.42754594733693163     
 PAO|LS| adapt: predicted energy  -191.70682835662745     
 PAO| ======================= Iteration:        26 =============================

     Lanczos converged:  T threshold:   0.100E-02
     Est. extremal eigenvalues:    0.487E+01   0.134E+00
     Est. condition number :    0.363E+02

 Order=           3
     NS sqrt iter    1 1.00000000   0.126E+01       0.021     2663.366
     NS sqrt iter    2 1.00000000   0.636E+00       0.034     3339.883
     NS sqrt iter    3 1.00000000   0.205E+00       0.034     3327.874
     NS sqrt iter    4 1.00000000   0.264E-01       0.034     3330.613
     NS sqrt iter    5 1.00000000   0.122E-03       0.034     3331.929
     NS sqrt iter    6 1.00000000   0.310E-10       0.020     2210.014
     Symmetrizing Results
     Final NS sqrt iter    6 1.00000000   0.221E-11

     Est. extremal eigenvalues     -0.83416     2.56743  converged:  T
     TRS4 it   1 1.00000000   0.285E+02       0.007     2104.495   0.100E-11
     TRS4 it   2 1.00000000   0.233E+02       0.013     2154.665   0.100E-11
     TRS4 it   3 1.00000000   0.154E+02       0.013     2196.921   0.100E-11
     TRS4 it   4 1.00000000   0.884E+01       0.013     2184.413   0.100E-11
     TRS4 it   5 1.00000000   0.362E+01       0.013     2192.057   0.100E-11
     TRS4 it   6 1.00000000   0.893E+00       0.013     2176.117   0.100E-11
     TRS4 it   7 1.00000000   0.998E-01       0.013     2161.978   0.100E-11
     TRS4 it   8 1.00000000   0.182E-02       0.013     2162.605   0.100E-11
     TRS4 it   9 1.00000000   0.743E-06       0.013     2177.412   0.100E-11
     TRS4 it  10 1.00000000   0.174E-12       0.013     2175.056   0.100E-11
     Final TRS4 iteration   10 1.00000000   0.174E-12
     Chemical potential (mu):       0.05051
 
 PAO| energy:  -191.70681503324718      penalty:   4.5021556845347598E-004
 PAO|CG| trace_G_new    1.3862157894217190E-002
 PAO|CG| trace_G_prev    1.7469042342107832E-002
 PAO|CG| trace_G_mix    2.5324671064930128E-004
 PAO|CG| trace_D    3.5799770752370501E-002
 PAO|CG| trace_D_Gnew  -8.2954722891680210E-005
 PAO|CG| beta:   0.77903017904791583     
 PAO| norm of gradient:  0.11773766557146098     
 PAO| energy improvement:  -3.7726443518977248E-003
 PAO| step     26                 -191.706815033  0.230E-03  0.428E+00     1.502
 PAO|LS| adapt:  T F F
 PAO|LS| adapt: scan_steps:    0.0000000000000000        0.0000000000000000        0.0000000000000000     
 PAO|LS| adapt: energies:   -191.70681503324718        0.0000000000000000        0.0000000000000000     
 PAO| ======================= Iteration:        27 =============================

     Lanczos converged:  T threshold:   0.100E-02
     Est. extremal eigenvalues:    0.485E+01   0.134E+00
     Est. condition number :    0.363E+02

 Order=           3
     NS sqrt iter    1 1.00000000   0.125E+01       0.021     2673.270
     NS sqrt iter    2 1.00000000   0.634E+00       0.034     3328.963
     NS sqrt iter    3 1.00000000   0.204E+00       0.034     3335.784
     NS sqrt iter    4 1.00000000   0.262E-01       0.034     3326.091
     NS sqrt iter    5 1.00000000   0.121E-03       0.034     3347.600
     NS sqrt iter    6 1.00000000   0.308E-10       0.020     2226.251
     Symmetrizing Results
     Final NS sqrt iter    6 1.00000000   0.221E-11

     Est. extremal eigenvalues     -0.83418     2.56496  converged:  T
     TRS4 it   1 1.00000000   0.285E+02       0.007     2093.547   0.100E-11
     TRS4 it   2 1.00000000   0.233E+02       0.013     2179.545   0.100E-11
     TRS4 it   3 1.00000000   0.153E+02       0.013     2164.487   0.100E-11
     TRS4 it   4 1.00000000   0.882E+01       0.013     2189.411   0.100E-11
     TRS4 it   5 1.00000000   0.360E+01       0.013     2164.354   0.100E-11
     TRS4 it   6 1.00000000   0.885E+00       0.013     2158.199   0.100E-11
     TRS4 it   7 1.00000000   0.981E-01       0.013     2180.106   0.100E-11
     TRS4 it   8 1.00000000   0.176E-02       0.013     2174.547   0.100E-11
     TRS4 it   9 1.00000000   0.697E-06       0.013     2175.899   0.100E-11
     TRS4 it  10 1.00000000   0.197E-12       0.013     2169.928   0.100E-11
     Final TRS4 iteration   10 1.00000000   0.197E-12
     Chemical potential (mu):       0.05092
 
 PAO| energy:  -191.70964960984986      penalty:   4.1461685930134051E-004
 PAO|LS| adapt:  T T F
 PAO|LS| adapt: scan_steps:    0.0000000000000000       0.42754594733693163        0.0000000000000000     
 PAO|LS| adapt: energies:   -191.70681503324718       -191.70964960984986        0.0000000000000000     
 PAO| ======================= Iteration:        28 =============================

     Lanczos converged:  T threshold:   0.100E-02
     Est. extremal eigenvalues:    0.483E+01   0.133E+00
     Est. condition number :    0.363E+02

 Order=           3
     NS sqrt iter    1 1.00000000   0.125E+01       0.021     2678.141
     NS sqrt iter    2 1.00000000   0.631E+00       0.034     3345.391
     NS sqrt iter    3 1.00000000   0.203E+00       0.034     3334.382
     NS sqrt iter    4 1.00000000   0.261E-01       0.034     3329.922
     NS sqrt iter    5 1.00000000   0.120E-03       0.034     3332.419
     NS sqrt iter    6 1.00000000   0.307E-10       0.020     2224.190
     Symmetrizing Results
     Final NS sqrt iter    6 1.00000000   0.222E-11

     Est. extremal eigenvalues     -0.83419     2.56229  converged:  T
     TRS4 it   1 1.00000000   0.285E+02       0.007     2095.591   0.100E-11
     TRS4 it   2 1.00000000   0.233E+02       0.013     2178.035   0.100E-11
     TRS4 it   3 1.00000000   0.153E+02       0.013     2192.033   0.100E-11
     TRS4 it   4 1.00000000   0.880E+01       0.013     2174.684   0.100E-11
     TRS4 it   5 1.00000000   0.358E+01       0.013     2167.535   0.100E-11
     TRS4 it   6 1.00000000   0.877E+00       0.013     2159.642   0.100E-11
     TRS4 it   7 1.00000000   0.964E-01       0.013     2171.072   0.100E-11
     TRS4 it   8 1.00000000   0.170E-02       0.013     2172.177   0.100E-11
     TRS4 it   9 1.00000000   0.655E-06       0.013     2165.390   0.100E-11
     TRS4 it  10 1.00000000   0.171E-12       0.013     2182.329   0.100E-11
     Final TRS4 iteration   10 1.00000000   0.171E-12
     Chemical potential (mu):       0.05133
 
 PAO| energy:  -191.70618848583692      penalty:   3.8222151139871507E-004
 PAO|LS| adapt:  T T T
 PAO|LS| adapt: scan_steps:    0.0000000000000000       0.42754594733693163       0.85509189467386326     
 PAO|LS| adapt: energies:   -191.70681503324718       -191.70964960984986       -191.70618848583692     
 PAO|LS| adapt: suggested step_size:   0.40627128527567019     
 PAO|LS| adapt: predicted energy  -191.70965740409076     
 PAO| ======================= Iteration:        29 =============================

     Lanczos converged:  T threshold:   0.100E-02
     Est. extremal eigenvalues:    0.485E+01   0.134E+00
     Est. condition number :    0.363E+02

 Order=           3
     NS sqrt iter    1 1.00000000   0.125E+01       0.021     2678.211
     NS sqrt iter    2 1.00000000   0.634E+00       0.034     3327.245
     NS sqrt iter    3 1.00000000   0.204E+00       0.034     3328.658
     NS sqrt iter    4 1.00000000   0.262E-01       0.034     3336.135
     NS sqrt iter    5 1.00000000   0.121E-03       0.034     3319.952
     NS sqrt iter    6 1.00000000   0.308E-10       0.020     2229.234
     Symmetrizing Results
     Final NS sqrt iter    6 1.00000000   0.221E-11

     Est. extremal eigenvalues     -0.83418     2.56509  converged:  T
     TRS4 it   1 1.00000000   0.285E+02       0.007     2107.815   0.100E-11
     TRS4 it   2 1.00000000   0.233E+02       0.013     2176.746   0.100E-11
     TRS4 it   3 1.00000000   0.153E+02       0.013     2174.979   0.100E-11
     TRS4 it   4 1.00000000   0.882E+01       0.013     2202.183   0.100E-11
     TRS4 it   5 1.00000000   0.360E+01       0.013     2192.648   0.100E-11
     TRS4 it   6 1.00000000   0.885E+00       0.013     2173.521   0.100E-11
     TRS4 it   7 1.00000000   0.982E-01       0.013     2178.556   0.100E-11
     TRS4 it   8 1.00000000   0.176E-02       0.013     2191.257   0.100E-11
     TRS4 it   9 1.00000000   0.700E-06       0.013     2143.978   0.100E-11
     TRS4 it  10 1.00000000   0.197E-12       0.013     2170.286   0.100E-11
     Final TRS4 iteration   10 1.00000000   0.197E-12
[...]
     TRS4 it   1 1.00000000   0.287E+02       0.007     2107.612   0.100E-11
     TRS4 it   2 1.00000000   0.235E+02       0.013     2149.198   0.100E-11
     TRS4 it   3 1.00000000   0.155E+02       0.013     2163.541   0.100E-11
     TRS4 it   4 1.00000000   0.919E+01       0.013     2176.125   0.100E-11
     TRS4 it   5 1.00000000   0.412E+01       0.013     2173.543   0.100E-11
     TRS4 it   6 1.00000000   0.127E+01       0.013     2170.646   0.100E-11
     TRS4 it   7 1.00000000   0.213E+00       0.013     2191.729   0.100E-11
     TRS4 it   8 1.00000000   0.883E-02       0.013     2181.220   0.100E-11
     TRS4 it   9 1.00000000   0.173E-04       0.013     2164.448   0.100E-11
     TRS4 it  10 1.00000000   0.897E-10       0.013     2153.592   0.100E-11
     Final TRS4 iteration   10 1.00000000   0.897E-10
     Chemical potential (mu):       0.02707
 
 PAO| energy:  -191.33509542519673      penalty:   2.1355131920210632E-008
 PAO| Writing restart file.
     Est. extremal eigenvalues     -0.83443     2.55663  converged:  T
     TRS4 it   1 1.00000000   0.287E+02       0.007     2092.054   0.100E-11
     TRS4 it   2 1.00000000   0.235E+02       0.013     2153.439   0.100E-11
     TRS4 it   3 1.00000000   0.155E+02       0.013     2175.227   0.100E-11
     TRS4 it   4 1.00000000   0.919E+01       0.013     2165.876   0.100E-11
     TRS4 it   5 1.00000000   0.412E+01       0.013     2159.155   0.100E-11
     TRS4 it   6 1.00000000   0.127E+01       0.013     2152.048   0.100E-11
     TRS4 it   7 1.00000000   0.213E+00       0.013     2183.056   0.100E-11
     TRS4 it   8 1.00000000   0.883E-02       0.013     2154.612   0.100E-11
     TRS4 it   9 1.00000000   0.173E-04       0.013     2166.027   0.100E-11
     TRS4 it  10 1.00000000   0.897E-10       0.013     2169.559   0.100E-11
     Final TRS4 iteration   10 1.00000000   0.897E-10
     Chemical potential (mu):       0.02707

 SCF     1     -1103.051194298     -1103.051194298    1.752864

*********************************************************
 Using MIXING_FRACTION=0.450 to mix KS matrix:  iscf=  2
 KS_nw=0.450*KS + 0.550*KS_old
*********************************************************
     Est. extremal eigenvalues     -0.83443     2.55663  converged:  T
     TRS4 it   1 1.00000000   0.287E+02       0.007     2102.437   0.100E-11
     TRS4 it   2 1.00000000   0.235E+02       0.013     2166.052   0.100E-11
     TRS4 it   3 1.00000000   0.155E+02       0.013     2178.469   0.100E-11
     TRS4 it   4 1.00000000   0.919E+01       0.013     2167.162   0.100E-11
     TRS4 it   5 1.00000000   0.412E+01       0.013     2164.694   0.100E-11
     TRS4 it   6 1.00000000   0.127E+01       0.013     2159.026   0.100E-11
     TRS4 it   7 1.00000000   0.213E+00       0.013     2194.887   0.100E-11
     TRS4 it   8 1.00000000   0.883E-02       0.013     2154.880   0.100E-11
     TRS4 it   9 1.00000000   0.173E-04       0.013     2161.349   0.100E-11
     TRS4 it  10 1.00000000   0.897E-10       0.013     2175.250   0.100E-11
     Final TRS4 iteration   10 1.00000000   0.897E-10
     Chemical potential (mu):       0.02707

 SCF     2     -1103.051194298        -0.000000000    1.751415


 SCF run converged in     2 steps.

 PAO| Storing density matrix for ASPC guess in slot:           1

 ENERGY| Total FORCE_EVAL ( QS ) energy [a.u.]:            -1103.051194298112932

 -------------------------------------------------------------------------------
 -                                                                             -
 -                                DBCSR STATISTICS                             -
 -                                                                             -
 -------------------------------------------------------------------------------
 COUNTER                                    TOTAL       BLAS       SMM       ACC
 flops     5 x     5 x     4             26419200       0.0%    100.0%      0.0%     
 flops    13 x     5 x     4             34078720       0.0%    100.0%      0.0%     
 flops     5 x    13 x     4             34078720       0.0%    100.0%      0.0%     
 flops    13 x    13 x     4             44994560       0.0%    100.0%      0.0%     
 flops     4 x     4 x     5           6511656960       0.0%    100.0%      0.0%     
 flops     5 x     4 x     5           8051097600       0.0%    100.0%      0.0%     
 flops     4 x     4 x    13           8465154048       0.0%    100.0%      0.0%     
 flops    13 x     4 x     5          10466426880       0.0%    100.0%      0.0%     
 flops     5 x     4 x    13          10466426880       0.0%    100.0%      0.0%     
 flops    13 x     4 x    13          13606354944       0.0%    100.0%      0.0%     
 flops     5 x     4 x     4         411875696160       0.0%    100.0%      0.0%     
 flops    13 x     4 x     4         553485735296       0.0%    100.0%      0.0%     
 flops     4 x     4 x     4       29472677506432       0.0%    100.0%      0.0%     
 flops inhomo. stacks                           0       0.0%      0.0%      0.0%
 flops total                        30.495746E+12       0.0%    100.0%      0.0%
 flops max/rank                    962.697676E+09       0.0%    100.0%      0.0%
 matmuls inhomo. stacks                         0       0.0%      0.0%      0.0%
 matmuls total                       234311928756       0.0%    100.0%      0.0%
 number of processed stacks             239293314       0.0%    100.0%      0.0%
 average stack size                                     0.0     979.2       0.0
 marketing flops                    52.420885E+12
 -------------------------------------------------------------------------------
 # multiplications                          48981
 max memory usage/rank             618.041344E+06
 # max total images/rank                        2
 # max 3D layers                                1
 # MPI messages exchanged                20376096
 MPI messages size (bytes):
  total size                         2.427161E+12
  min size                           0.000000E+00
  max size                         541.696000E+03
  average size                     119.118078E+03
 MPI breakdown and total messages size (bytes):
             size <=      128              894498                    12672
       128 < size <=     8192              301716               1128877312
      8192 < size <=    32768               67479               1543401856
     32768 < size <=   131072             8633055             641422729472
    131072 < size <=  4194304            10479348            1783488661760
   4194304 < size <= 16777216                   0                        0
  16777216 < size                               0                        0
 -------------------------------------------------------------------------------

 *** WARNING in dbcsr_mm.F:301 :: Using a non-square number of MPI ranks ***
 *** might lead to poor performance. Used ranks: 32 Suggested: 36 64     ***

 -------------------------------------------------------------------------------
 -                                                                             -
 -                      DBCSR MESSAGE PASSING PERFORMANCE                      -
 -                                                                             -
 -------------------------------------------------------------------------------
 ROUTINE             CALLS      AVE VOLUME [Bytes]
 MP_Bcast               14                     12.
 MP_Allreduce       292860                     37.
 MP_Alltoall        127198                  14845.
 MP_ISend          1635980                  55484.
 MP_IRecv          1601686                  56739.
 -------------------------------------------------------------------------------

 -------------------------------------------------------------------------------
 -                                                                             -
 -                                DBM STATISTICS                               -
 -                                                                             -
 -------------------------------------------------------------------------------
    M  x    N  x    K                                          COUNT     PERCENT
 -------------------------------------------------------------------------------

 -------------------------------------------------------------------------------
 -                                                                             -
 -                                GRID STATISTICS                              -
 -                                                                             -
 -------------------------------------------------------------------------------
 LP    KERNEL             BACKEND                              COUNT     PERCENT
 2     collocate ortho    CPU                               13109728      28.83%
 2     integrate ortho    CPU                               13109728      28.83%
 3     collocate ortho    CPU                                8427872      18.53%
 3     integrate ortho    CPU                                8427872      18.53%
 4     collocate ortho    CPU                                1195312       2.63%
 4     integrate ortho    CPU                                1195312       2.63%
 0     collocate general  CPU                                   6144       0.01%
 -------------------------------------------------------------------------------

 MEMORY| Estimated peak process memory [MiB]                                 590

 -------------------------------------------------------------------------------
 -                                                                             -
 -                         MESSAGE PASSING PERFORMANCE                         -
 -                                                                             -
 -------------------------------------------------------------------------------

 ROUTINE             CALLS      AVE VOLUME [Bytes]
 MP_Group                5
 MP_Bcast           367094                   1948.
 MP_Allreduce       912486                    514.
 MP_Sync                 5
 MP_Alltoall           419
 MP_SendRecv          1488                  18832.
 MP_ISendRecv         1488                  18832.
 MP_Wait              4218
 MP_ISend             2470                 108139.
 MP_IRecv             2470                 108153.
 -------------------------------------------------------------------------------


 -------------------------------------------------------------------------------
 -                                                                             -
 -                           R E F E R E N C E S                               -
 -                                                                             -
 -------------------------------------------------------------------------------
 
 CP2K version 2024.3 (Development Version), the CP2K developers group (2024).
 CP2K is freely available from https://www.cp2k.org/ .
 
 T. D. Kuehne, M. Iannuzzi, M. Del Ben, V. V. Rybkin, P. Seewald, F. Stein, T. 
 Laino, R. Z. Khaliullin, O. Schuett, F. Schiffmann, D. Golze, J. Wilhelm, S. 
 Chulkov, M. H. Bani-Hashemian, V. Weber, U. Borstnik, M. Taillefumier, A. S. 
 Jakobovits, A. Lazzaro, H. Pabst, T. Mueller, R. Schade, M. Guidon, S. 
 Andermatt, N. Holmberg, G. K. Schenter, A. Hehn, A. Bussy, F. Belleflamme, G. 
 Tabacchi, A. Gloess, M. Lass, I. Bethune, C. J. Mundy, C. Plessl, M. Watkins, 
 J. VandeVondele, M. Krack, J. Hutter.
 J. Chem. Phys. 152, 194103 (2020).
 CP2K: An electronic structure and molecular dynamics software package - 
 Quickstep: Efficient and accurate electronic structure calculations.
 https://doi.org/10.1063/5.0007045

 O. Schuett, J. VandeVondele.
 J. Chem. Theory Comput. 14, 4168-4175 (2018).
 Machine Learning Adaptive Basis Sets for Efficient Large Scale Density 
 Functional Theory Simulation.
 https://doi.org/10.1021/acs.jctc.8b00378

 O. Schuett, P. Messmer, J. Hutter, J. VandeVondele.
 Electronic Structure Calculations on Graphics Processing Units, 173-190 (2016).
 GPU-Accelerated Sparse Matrix-Matrix Multiplication for Linear Scaling Density 
 Functional Theory.
 https://doi.org/10.1002/9781118670712.ch8

 A. Heinecke, G. Henry, M. Hutchinson, H. Pabst.
 Proceedings of Intl. Supercomputing Conference, 981-991 (2016).
 LIBXSMM: Accelerating Small Matrix Multiplications by Runtime Code Generation.
 https://doi.org/10.1109/SC.2016.83

 J. Hutter, M. Iannuzzi, F. Schiffmann, J. VandeVondele.
 WIREs Comput Mol Sci. 4, 15-25 (2014).
 CP2K: atomistic simulations of condensed matter systems.
 https://doi.org/10.1002/wcms.1159

 U. Borstnik, J. VandeVondele, V. Weber, J. Hutter.
 Parallel Comput. 40, 47-58 (2014).
 Sparse matrix multiplication: The distributed block-compressed sparse row 
 library.
 https://doi.org/10.1016/j.parco.2014.03.012

 A. Marek, V. Blum, R. Johanni, V. Havu, B. Lang, T. Auckenthaler, A. Heinecke, 
 H. Bungartz, H. Lederer.
 J. Phys. Condens. Matter 26, 213201 (2014).
 The ELPA library: scalable parallel eigenvalue solutions for electronic 
 structure theory and computational science.
 https://doi.org/10.1088/0953-8984/26/21/213201

 J. VandeVondele, U. Borstnik, J. Hutter.
 J. Chem. Theory Comput. 8, 3565-3573 (2012).
 Linear Scaling Self-Consistent Field Calculations with Millions of Atoms in the 
 Condensed Phase.
 https://doi.org/10.1021/ct200897x

 J. VandeVondele, J. Hutter.
 J. Chem. Phys. 127, 114105 (2007).
 Gaussian basis sets for accurate calculations on molecular systems in gas and 
 condensed phases.
 https://doi.org/10.1063/1.2770708

 J. VandeVondele, M. Krack, F. Mohamed, M. Parrinello, T. Chassaing, J. Hutter.
 Comput. Phys. Commun. 167, 103-128 (2005).
 QUICKSTEP: Fast and accurate density functional calculations using a mixed 
 Gaussian and plane waves approach.
 https://doi.org/10.1016/j.cpc.2004.12.014

 M. Krack.
 Theor. Chem. Acc. 114, 145-152 (2005).
 Pseudopotentials for H to Kr optimized for gradient-corrected 
 exchange-correlation functionals.
 https://doi.org/10.1007/s00214-005-0655-y

 M. Frigo, S. G. Johnson.
 Proc. IEEE 93, 216-231 (2005).
 The design and implementation of FFTW3.
 https://doi.org/10.1109/JPROC.2004.840301

 A. M. N. Niklasson, C. J. Tymczak, M. Challacombe.
 J. Chem. Phys. 118, 8611-8620 (2003).
 Trace resetting density matrix purification in O(N) self-consistent-field 
 theory.
 https://doi.org/10.1063/1.1559913

 C. Hartwigsen, S. Goedecker, J. Hutter.
 Phys. Rev. B 58, 3641-3662 (1998).
 Relativistic separable dual-space Gaussian pseudopotentials from H to Rn.
 https://doi.org/10.1103/PhysRevB.58.3641

 G. Lippert, J. Hutter, M. Parrinello.
 Mol. Phys. 92, 477-487 (1997).
 A hybrid Gaussian and plane wave density functional scheme.
 https://doi.org/10.1080/002689797170220

 S. Goedecker, M. Teter, J. Hutter.
 Phys. Rev. B 54, 1703-1710 (1996).
 Separable dual-space Gaussian pseudopotentials.
 https://doi.org/10.1103/PhysRevB.54.1703

 J. P. Perdew, K. Burke, M. Ernzerhof.
 Phys. Rev. Lett. 77, 3865-3868 (1996).
 Generalized gradient approximation made simple.
 https://doi.org/10.1103/PhysRevLett.77.3865


 -------------------------------------------------------------------------------
 -                                                                             -
 -                                T I M I N G                                  -
 -                                                                             -
 -------------------------------------------------------------------------------
 SUBROUTINE                       CALLS  ASD         SELF TIME        TOTAL TIME
                                MAXIMUM       AVERAGE  MAXIMUM  AVERAGE  MAXIMUM
 CP2K                                 1  1.0    0.013    0.016  445.490  445.491
 qs_energies                          1  2.0    0.000    0.000  445.324  445.325
 ls_scf                               1  3.0    0.000    0.000  444.222  444.223
 pao_update                           7  4.0    0.006    0.025  414.312  414.313
 pao_calc_energy                    817  5.0    0.003    0.017  370.375  370.377
 dbcsr_multiply_generic           48981  8.4    1.352    1.430  346.691  346.893
 multiply_cannon                  48981  9.4    2.555    2.950  281.735  284.674
 multiply_cannon_loop             48981 10.4    1.846    2.040  271.336  273.674
 ls_scf_init_matrix_S               824  7.0    0.008    0.009  216.774  216.840
 pao_rebuild_S                      817  6.0    0.003    0.003  214.918  214.965
 matrix_sqrt_Newton_Schulz          824  8.0    0.170    0.281  201.242  201.281
 multiply_cannon_multrec         391848 11.4  175.052  176.767  175.856  177.552
 pao_dm_trs4                        817  6.0    0.006    0.007  155.098  155.114
 density_matrix_trs4                832  7.0    0.199    0.337  148.959  149.008
 mp_waitall_1                   3136532 12.6   92.384  100.010   92.384  100.010
 multiply_cannon_metrocomm3      391848 11.4    0.691    0.730   74.630   78.381
 arnoldi_extremal                  1656  8.5    0.013    0.014   60.581   60.638
 arnoldi_normal_ev                 1656  9.5    0.037    0.062   60.565   60.622
 build_subspace                    5922 10.7    0.362    0.390   53.267   53.299
 make_m2s                         97962  9.4    0.538    0.754   50.473   51.474
 dbcsr_matrix_vector_mult        180972 11.7    0.775    1.177   50.090   50.529
 make_images                      97962 10.4    7.208    7.387   49.137   50.202
 pao_calc_AB                       1085  5.8    0.002    0.002   43.462   43.464
 pao_calc_AB_equi                  1085  6.8    0.040    0.099   43.460   43.462
 dbcsr_matrix_vector_mult_local  180972 12.7   42.637   42.970   42.839   43.172
 pao_calc_grad_lnv_wrt_AB           267  7.0    0.020    0.025   43.061   43.083
 ls_scf_main                          7  4.0    0.000    0.001   26.349   26.351
 make_images_data                 97962 11.4    0.849    1.014   21.779   23.939
 ls_scf_dm_to_ks                     15  5.0    0.000    0.000   23.530   23.534
 hybrid_alltoall_any              99605 12.4    0.879    1.793   17.122   20.480
 matrix_qs_to_ls                   1656  7.5    0.016    0.023   17.523   17.591
 mp_sum_l                        199589  9.5    7.057   14.520    7.057   14.520
 qs_ks_update_qs_env                 16  6.0    0.000    0.000   14.007   14.010
 rebuild_ks_matrix                   16  7.0    0.000    0.000   13.995   13.998
 qs_ks_build_kohn_sham_matrix        16  8.0    0.003    0.003   13.995   13.998
 calculate_norms                 730192 11.4   11.388   12.074   11.388   12.074
 make_images_pack                 97962 11.4   10.772   11.091   10.904   11.223
 qs_rho_update_rho_low               16  6.0    0.000    0.000   10.990   10.993
 calculate_rho_elec                  16  7.0    0.005    0.006   10.990   10.993
 sum_up_and_integrate                16  9.0    0.000    0.001   10.609   10.612
 integrate_v_rspace                  16 10.0    0.001    0.001   10.594   10.598
 dbcsr_multiply_generic_mpsum_f   35588  9.5    0.026    0.033    4.021   10.488
 grid_collocate_task_list            16  8.0    9.740    9.874    9.740    9.874
 grid_integrate_task_list            16 11.0    9.304    9.477    9.304    9.477
 -------------------------------------------------------------------------------

 The number of warnings for this run is : 1
 
 -------------------------------------------------------------------------------
  **** **** ******  **  PROGRAM ENDED AT                 2024-09-24 03:45:14.990
 ***** ** ***  *** **   PROGRAM RAN ON                                    moritz
 **    ****   ******    PROGRAM RAN BY                                       ole
 ***** **    ** ** **   PROGRAM PROCESS ID                                167916
  **** **  *******  **  PROGRAM STOPPED IN /home/ole/git/pao_ml_equivar/64H2O_MD
                                           /Frame4300
