     192
 i =     4300, time =     6450.000, E =     -1100.0792783840
  O         5.6867039788       -3.5186645719        3.5625781409
  H         5.8095779594       -4.4304330100        3.8698793152
  H         6.2925774543       -2.9051648965        4.0128581548
  O        -4.8288430703        2.1779837389        5.0860880991
  H        -4.8295888306        1.6480600049        4.2637525042
  H        -4.0710800307        2.0247830441        5.6023091108
  O         6.2282770419        4.4212770236        6.3525074628
  H         5.3839330163        4.1079974539        5.9932679198
  H         6.8234697907        3.6254131225        6.1998386771
  O        -2.4187757462       -0.2312448177       -3.8589920089
  H        -2.0947828440        0.2943909108       -3.0786955307
  H        -1.7574230118       -0.9570271334       -4.0163106035
  O        -3.7030429355        5.0087803059        4.6089193262
  H        -4.6687236320        4.9264937996        4.5165276634
  H        -3.4453739771        5.6333030846        3.9167254545
  O         8.0046820904        0.0534804945        3.0372746259
  H         7.9984362170       -0.3787499611        3.9189280111
  H         7.3139157204       -0.4859030837        2.6458972603
  O         4.3493100164       -5.2655622689        0.3127908925
  H         4.2241883068       -4.4982284090       -0.3016066092
  H         3.9085845426       -6.0069863584       -0.1402191235
  O        -0.8188065463       -3.7795577398       -0.7959085364
  H        -1.8288207442       -3.8664190831       -0.8529577364
  H        -0.7734598394       -2.8378779382       -0.6544352924
  O         3.3300424099       -2.2621001359        3.4096939314
  H         4.1835283181       -2.7897081541        3.3798094945
  H         2.8822417122       -2.4977657594        2.5682146874
  O         3.0799609476        3.2175657858        5.5734595237
  H         2.3528591025        2.5678256138        5.4609491266
  H         2.9782440530        3.4510749905        6.5552779714
  O         5.2803679154       -4.9954995890       -3.3606754706
  H         5.2093284641       -4.3148583186       -2.7100661798
  H         4.4393907150       -5.1929572492       -3.8176448612
  O         2.3397547043       -2.5931555296        0.6813503631
  H         1.9043961083       -3.5006227489        0.6338620217
  H         3.1611428337       -2.6814054691        0.1859390398
  O         2.9139155149       -5.3059073985       -4.7072576611
  H         2.5050298590       -6.1865998807       -4.8692600550
  H         2.6523891492       -4.7782046650       -5.4633898515
  O         4.5261706222        4.6684501135       -2.5435468418
  H         5.3328999557        4.1446305498       -2.7615770401
  H         4.7940548060        5.5313098133       -2.3387898982
  O         3.1989468611        0.0942436897        4.4303697901
  H         3.1092642091       -0.7921208692        4.0652136233
  H         2.5000899965        0.6633299932        3.9933523160
  O         0.0982203878        2.1515896729        6.9413117309
  H         0.6712529264        1.3556363194        6.9199527249
  H        -0.6900737159        1.9593736625        6.4782900178
  O        -1.4790888055       -3.7235389998        3.0667346740
  H        -0.7137622677       -3.8404314434        2.5072722801
  H        -1.2974519712       -4.1070465848        3.9669301526
  O        -2.1182468567        3.0857615628        3.6357067829
  H        -1.7312610014        2.1966543637        3.6803856891
  H        -2.8451646089        3.3781451979        4.2098484444
  O         1.9068916099        0.1273960676       -5.6128591791
  H         2.4147922962        0.0482043929       -6.4390326585
  H         2.4060734395       -0.1370479524       -4.7659126038
  O        -1.0527444924       -0.9064617713       -0.1315086836
  H        -1.3332623815       -0.9872568509        0.8023204107
  H        -0.1935227079       -0.4230841605       -0.0039577600
  O        -3.1402150879        3.1940666534       -3.1603235010
  H        -3.2958003539        4.1395302496       -2.9367851130
  H        -2.7347243547        2.9005800270       -2.3418550674
  O         5.2072425749        6.3203959727        2.9238788713
  H         4.9981042771        6.6852780887        2.0124421487
  H         4.3479198248        6.0763513832        3.2591956087
  O         5.4416848827        0.4653461365       -4.3187253281
  H         5.4597555007        0.3710241791       -5.2752068977
  H         6.0359371934       -0.2811345241       -4.1240907464
  O        -3.6043084797        5.8078465276       -2.4213802290
  H        -3.7119726295        6.5651707797       -1.8365570083
  H        -4.1776051902        6.0162520486       -3.2051610090
  O         5.2098709405        1.7040428567       -0.5397755832
  H         5.1050512669        1.4806970176        0.4236933751
  H         6.0894643735        2.1000829951       -0.6805629498
  O         1.5843983278        0.0807787040        0.7710374792
  H         2.0408639221        0.6208460009        0.1590991414
  H         1.8158430364       -0.8469265610        0.7573368174
  O        -5.3440629556       -4.6185840555        0.0778641839
  H        -4.7022871721       -4.8191836364        0.7490840794
  H        -6.1732692896       -4.8908820881        0.4000495389
  O        -3.1321202085        3.9448704551        1.2261127616
  H        -4.0765205399        3.9378506405        1.4825125636
  H        -2.6278290849        3.4904932234        1.9285635036
  O         5.6794259050        0.1842778767       -6.8250877785
  H         6.1177355568        1.0538999761       -7.0461905379
  H         4.8226384238        0.2351007290       -7.3186690498
  O         4.0630515026       -3.1635746577       -1.6046056671
  H         4.3873069062       -2.2858623218       -1.6030405584
  H         3.2366773584       -3.2840078020       -2.0761738651
  O         2.4661810231        2.0221216311       -1.0108299039
  H         3.3475154550        2.2762968778       -1.2512781136
  H         1.8344243304        2.2634713634       -1.7373878212
  O        -1.9222330549       -0.9130981650        2.3941293368
  H        -1.9981368163       -1.8819931243        2.3849156407
  H        -2.8236026560       -0.5879267326        2.7086647689
  O         1.8412872780       -8.0621837900        2.1613794560
  H         2.1933393089       -7.8379888205        1.2965571189
  H         2.3540891688       -7.4585633800        2.7450599436
  O         1.6328732580       -4.1710670387       -2.3232195368
  H         0.7846182411       -4.1839107321       -1.9117371966
  H         1.5242493643       -4.7128925390       -3.0663589368
  O        -5.8178610504        3.6991156706        2.2785844355
  H        -6.0234349208        3.1383676229        3.0124463545
  H        -6.1962377956        4.5861484746        2.4355928209
  O         2.1880116220       -4.1987951149       -7.1863994345
  H         1.2406547218       -4.3370824285       -7.3743855238
  H         2.4610513400       -3.4075991332       -7.6913975800
  O         0.3013973827        2.5936927858       -2.8043050283
  H         0.2004966531        2.6119106473       -3.8080584115
  H         0.2108669201        3.4903319157       -2.4495520336
  O        -3.7097647239       -5.6362524978        2.2827946272
  H        -2.9289570071       -5.0194977678        2.4158130314
  H        -3.2718159106       -6.4323615369        1.8914524331
  O         2.8032370020        5.7574900440        4.3642638009
  H         2.6704917594        6.5252537795        4.8513838271
  H         2.7177955519        4.9683084482        4.9866598248
  O        -2.8393362830        1.8174623056       -5.6408156815
  H        -2.5799844487        0.9658115301       -5.2808648425
  H        -3.0512339364        2.3590537257       -4.8348033950
  O         1.4475798795        1.7933764664        2.9944526829
  H         1.5316427913        2.7800959622        2.7205034898
  H         1.3981111857        1.2904510133        2.1314803423
  O        -7.7211127697        1.0340526760        2.1304775563
  H        -8.5745618569        1.3425383852        2.4299979073
  H        -7.6678873799        0.0631903703        2.2551176514
  O        -0.8008536717        0.7412472273        4.2386575197
  H        -0.0381045739        1.2171261956        3.8366579299
  H        -0.9790417127        0.0013809596        3.6471709799
  O        -1.2797689969        5.5765813125        0.4478028769
  H        -1.0891051806        5.5030313749        1.4532635103
  H        -2.0070202300        4.9109510953        0.3679943230
  O         0.2678729085       -1.9351502220       -4.6675537615
  H         0.7491175284       -2.0126400862       -3.8067000537
  H         0.6247484548       -1.1532968337       -5.0996945650
  O        -6.1091504219        2.8753694450       -3.2336264143
  H        -5.1770879568        2.9016113842       -3.0687409358
  H        -6.4359414576        2.0392445989       -3.4734013964
  O         5.6309432988       -1.0533433255       -1.3604005800
  H         6.3795701145       -0.9831501896       -1.9768125063
  H         5.2528985191       -0.1596840706       -1.1034330506
  O        -1.6710657270        1.0636028404       -1.9034994468
  H        -0.9401497201        1.6616435661       -2.1625675542
  H        -1.4597945653        0.4078980484       -1.2291133828
  O         0.3938202525        5.0536152457       -1.2197024549
  H         0.1072991809        5.6202790519       -1.9518561122
  H        -0.3929961651        5.1848615950       -0.5707215756
  O         7.4077163090       -1.8575715565        4.9313025089
  H         7.7851011070       -2.4196290339        5.6338781680
  H         6.8361602410       -1.2251592985        5.4060707638
  O        -0.8629720474       -5.9687760209       -3.5392886500
  H        -0.8491530303       -6.7468832734       -4.1292343704
  H        -1.7021086232       -6.0566832539       -3.0355251403
  O        -4.9400169749       -1.3790306103       -3.2272191868
  H        -5.0589985706       -2.1454453471       -3.8642184784
  H        -3.9918955774       -1.0297750811       -3.4092053523
  O         2.6701778234        5.3343709046       -0.3133824309
  H         1.7411904630        5.4087988348       -0.6739321480
  H         3.0347822273        4.5512556608       -0.7140225070
  O        -4.2450663645       -3.2519897688       -5.0915507585
  H        -3.3480570672       -3.4429119075       -4.7558307494
  H        -4.5721203737       -4.1865826388       -5.0317396652
  O        -0.6878861829        5.2232181735        2.9909925769
  H        -1.2012062827        4.4403368363        3.3131045142
  H         0.2321945301        4.9145774772        2.7548867240
  O        -1.6335359632       -3.9234390899       -4.7256031331
  H        -1.1623906165       -4.6360143904       -4.2241047307
  H        -0.9965353818       -3.2254133678       -4.8884554727
  O        -6.5526074224       -1.4148527144        1.7232925735
  H        -6.5047772393       -1.2652196104        0.7705451479
  H        -6.5755380858       -2.3499465716        1.9299921215
  O         2.6101761077        4.1457901311       -4.3467791230
  H         3.3762180141        4.2820300255       -3.7013772250
  H         2.0564311979        3.5400552047       -3.8208658837
  O         2.8487718318       -0.5029275300       -3.0876017829
  H         2.5664942792        0.2776845770       -2.5191451329
  H         3.7609738848       -0.3640393026       -3.2871869284
  O        -0.6866465277        4.7851249083        6.7371964512
  H        -0.2012935982        3.9620864731        6.7115274910
  H        -1.5711286042        4.5217871038        6.5199435698
  O         0.6430806352       -4.5953808238        1.1983174852
  H         0.9709587178       -5.4559040793        1.4819776257
  H         0.0007716383       -4.7243853091        0.4880550373
  O         7.4593158766        6.4313180093        7.9830099786
  H         6.6416750809        6.9598260276        8.2994157163
  H         7.1577910598        5.6859054688        7.4094688689
  O        -0.5917133886       -5.1362117682        5.3113471400
  H        -0.4788841235       -6.0907454635        5.0793949725
  H        -1.1488959538       -5.0883734154        6.1113088260
  O        -3.5907932879       -3.5227249988       -1.6591296667
  H        -4.4070626539       -3.8454158471       -1.2727810319
  H        -3.8569836109       -2.7993539717       -2.2609206402
