 DBCSR| CPU Multiplication driver                                           XSMM (U)
 DBCSR| Multrec recursion limit                                              512 (U)
 DBCSR| Multiplication stack size                                           1000 (D)
 DBCSR| Maximum elements for images                                    UNLIMITED (U)
 DBCSR| Multiplicative factor virtual images                                   1 (U)
 DBCSR| Use multiplication densification                                       T (D)
 DBCSR| Multiplication size stacks                                             3 (U)
 DBCSR| Use memory pool for CPU allocation                                     F (U)
 DBCSR| Number of 3D layers                                               SINGLE (U)
 DBCSR| Use MPI memory allocation                                              F (U)
 DBCSR| Use RMA algorithm                                                      F (U)
 DBCSR| Use Communication thread                                               T (U)
 DBCSR| Communication thread load                                             87 (D)
 DBCSR| MPI: My process id                                                     0
 DBCSR| MPI: Number of processes                                              32
 DBCSR| OMP: Current number of threads                                         1
 DBCSR| OMP: Max number of threads                                             1
 DBCSR| Split modifier for TAS multiplication algorithm                  1.0E+00 (U)


  **** **** ******  **  PROGRAM STARTED AT               2024-09-23 17:45:07.448
 ***** ** ***  *** **   PROGRAM STARTED ON                                moritz
 **    ****   ******    PROGRAM STARTED BY                                   ole
 ***** **    ** ** **   PROGRAM PROCESS ID                                159014
  **** **  *******  **  PROGRAM STARTED IN /home/ole/git/pao_ml_equivar/64H2O_MD
                                           /Frame4400

 CP2K| version string:                 CP2K version 2024.3 (Development Version)
 CP2K| source code revision number:                                  git:3f890bb
 CP2K| cp2kflags: omp libint fftw3 libxc libgrpp pexsi elpa parallel scalapack c
 CP2K|            osma quip deepmd xsmm plumed2 spglib libdftd4 sirius libvori l
 CP2K|            libbqb libvdwxc hdf5
 CP2K| is freely available from                            https://www.cp2k.org/
 CP2K| Program compiled at                          Mo 23 Sep 2024 17:17:04 CEST
 CP2K| Program compiled on                                                moritz
 CP2K| Program compiled for                                                local
 CP2K| Data directory path                               /home/ole/git/cp2k/data
 CP2K| Input file name                                             64H2O_ref.inp

 GLOBAL| Force Environment number                                              1
 GLOBAL| Basis set file name                                        BASIS_MOLOPT
 GLOBAL| Potential file name                                      GTH_POTENTIALS
 GLOBAL| MM Potential file name                                     MM_POTENTIAL
 GLOBAL| Coordinate file name                                         coords.xyz
 GLOBAL| Method name                                                        CP2K
 GLOBAL| Project name                                                  64H2O_ref
 GLOBAL| Run type                                                         ENERGY
 GLOBAL| FFT library                                                       FFTW3
 GLOBAL| Diagonalization library                                            ELPA
 GLOBAL| DGEMM library                                                      BLAS
 GLOBAL| Minimum number of eigenvectors for ELPA usage                        16
 GLOBAL| Orthonormality check for eigenvectors                          DISABLED
 GLOBAL| Matrix multiplication library                                     COSMA
 GLOBAL| All-to-all communication in single precision                          F
 GLOBAL| FFTs using library dependent lengths                                  F
 GLOBAL| Grid backend                                                       AUTO
 GLOBAL| Global print level                                                  LOW
 GLOBAL| MPI I/O enabled                                                       T
 GLOBAL| Total number of message passing processes                            32
 GLOBAL| Number of threads for this process                                    1
 GLOBAL| This output is from process                                           0
 GLOBAL| Stack size for threads created by OpenMP (OMP_STACKSIZE)        default
 GLOBAL| CPU model name           AMD Ryzen Threadripper 3970X 32-Core Processor
 GLOBAL| CPUID                                                              1002

 MEMORY| system memory details [Kb]
 MEMORY|                        rank 0           min           max       average
 MEMORY| MemTotal            131752136     131752136     131752136     131752136
 MEMORY| MemFree             118069712     118069712     118069712     118069712
 MEMORY| Buffers                260444        260444        260444        260444
 MEMORY| Cached                7459512       7459512       7459512       7459512
 MEMORY| Slab                   719616        719616        719616        719616
 MEMORY| SReclaimable           281260        281260        281260        281260
 MEMORY| MemLikelyFree       126070928     126070928     126070928     126070928


 GENERATE|  Preliminary Number of Bonds generated:                             0
 GENERATE|  Achieved consistency in connectivity generation.

 *******************************************************************************
 *******************************************************************************
 **                                                                           **
 **     #####                         ##              ##                      **
 **    ##   ##            ##          ##              ##                      **
 **   ##     ##                       ##            ######                    **
 **   ##     ##  ##   ##  ##   #####  ##  ##   ####   ##    #####    #####    **
 **   ##     ##  ##   ##  ##  ##      ## ##   ##      ##   ##   ##  ##   ##   **
 **   ##  ## ##  ##   ##  ##  ##      ####     ###    ##   ######   ######    **
 **    ##  ###   ##   ##  ##  ##      ## ##      ##   ##   ##       ##        **
 **     #######   #####   ##   #####  ##  ##  ####    ##    #####   ##        **
 **           ##                                                    ##        **
 **                                                                           **
 **                                                ... make the atoms dance   **
 **                                                                           **
 **            Copyright (C) by CP2K developers group (2000-2024)             **
 **                      J. Chem. Phys. 152, 194103 (2020)                    **
 **                                                                           **
 *******************************************************************************


 TOTAL NUMBERS AND MAXIMUM NUMBERS

  Total number of            - Atomic kinds:                                   2
                             - Atoms:                                        192
                             - Shell sets:                                   192
                             - Shells:                                       704
                             - Primitive Cartesian functions:               1344
                             - Cartesian basis functions:                   1536
                             - Spherical basis functions:                   1472

  Maximum angular momentum of- Orbital basis functions:                        2
                             - Local part of the GTH pseudopotential:          2
                             - Non-local part of the GTH pseudopotential:      0

 ------------------------------ Linear scaling SCF -----------------------------
 eps_scf:                                                              0.100E-07
 eps_filter:                                                           0.100E-11
 mixing_fraction:                                                      0.450E+00
 max_scf:                                                                     25
 fixed chemical potential (mu)                                                 F
 has unit metric:                                                              F
 Computing inv(S):                                                             T
 Computing sqrt(S):                                                            T
 Computing S preconditioner                                                    F
 S sqrt method:                                                     NEWTONSCHULZ
 S sqrt order:                                                                 3
 Extrapolation order:                                                          1
 S preconditioner type                                                      NONE
 Polarized Atomic Orbitals (PAO)                                               F
 Purification method                                   Trace resetting 4th order
 Cluster type                                                             ATOMIC
 Computing Chebyshev                                                       FALSE
 Using PAO                                                                     F
 -------------------------------------------------------------------------------


     Lanczos converged:  F threshold:   0.100E-02
     Est. extremal eigenvalues:    0.849E+01   0.555E-02
     Est. condition number :    0.153E+04

 Order=           3
     NS sqrt iter    1 1.00000000   0.219E+01       0.065     6179.506
     NS sqrt iter    2 1.00000000   0.115E+01       0.099     8064.988
     NS sqrt iter    3 1.00000000   0.575E+00       0.099     8020.109
     NS sqrt iter    4 1.00000000   0.332E+00       0.099     8078.333
     NS sqrt iter    5 1.00000000   0.223E+00       0.099     8048.092
     NS sqrt iter    6 1.00000000   0.102E+00       0.098     8157.133
     NS sqrt iter    7 1.00000000   0.123E-01       0.098     8133.279
     NS sqrt iter    8 1.00000000   0.646E-04       0.098     8134.475
     NS sqrt iter    9 1.00000000   0.427E-10       0.058     5734.125
     Symmetrizing Results
     Final NS sqrt iter    9 1.00000000   0.688E-11



 Guess for atomic kind: O

 Electronic structure
    Total number of core electrons                                          2.00
    Total number of valence electrons                                       6.00
    Total number of electrons                                               8.00
    Multiplicity                                                   not specified
    S   [  2.00] 2.00
    P      4.00


 *******************************************************************************
                  Iteration          Convergence                     Energy [au]
 *******************************************************************************
                          1        0.708315                     -15.576645311500
                          2        0.608879                     -15.587933561584
                          3        0.102828E-01                 -15.656849565404
                          4        0.113889E-02                 -15.656866888140
                          5        0.434197E-03                 -15.656867072159
                          6        0.263771E-03                 -15.656867091904
                          7        0.478536E-06                 -15.656867103452

 Energy components [Hartree]           Total Energy ::          -15.656867103452
                                        Band Energy ::           -3.000198112285
                                     Kinetic Energy ::           11.759971203220
                                   Potential Energy ::          -27.416838306672
                                      Virial (-V/T) ::            2.331369510426
                                        Core Energy ::          -26.140716385623
                                          XC Energy ::           -3.154051012914
                                     Coulomb Energy ::           13.637900295084
                       Total Pseudopotential Energy ::          -37.935781716540
                       Local Pseudopotential Energy ::          -39.218907440693
                    Nonlocal Pseudopotential Energy ::            1.283125724153
                                        Confinement ::            0.350941276976

 Orbital energies  State     L     Occupation   Energy[a.u.]          Energy[eV]

                       1     0          2.000      -0.864471          -23.523463

                       1     1          4.000      -0.317814           -8.648154


 Total Electron Density at R=0:                                         0.000068

 Guess for atomic kind: H

 Electronic structure
    Total number of core electrons                                          0.00
    Total number of valence electrons                                       1.00
    Total number of electrons                                               1.00
    Multiplicity                                                   not specified
    S      1.00


 *******************************************************************************
                  Iteration          Convergence                     Energy [au]
 *******************************************************************************
                          1        0.437545E-02                  -0.424159432110
                          2        0.531356E-03                  -0.424178438213
                          3        0.259176E-06                  -0.424178722480

 Energy components [Hartree]           Total Energy ::           -0.424178722480
                                        Band Energy ::           -0.199015229016
                                     Kinetic Energy ::            0.464007633961
                                   Potential Energy ::           -0.888186356441
                                      Virial (-V/T) ::            1.914163240935
                                        Core Energy ::           -0.479160803564
                                          XC Energy ::           -0.244352904054
                                     Coulomb Energy ::            0.299334985138
                       Total Pseudopotential Energy ::           -0.962295316385
                       Local Pseudopotential Energy ::           -0.962295316385
                    Nonlocal Pseudopotential Energy ::            0.000000000000
                                        Confinement ::            0.191268788606

 Orbital energies  State     L     Occupation   Energy[a.u.]          Energy[eV]

                       1     0          1.000      -0.199015           -5.415480


 Total Electron Density at R=0:                                         0.242907
 Re-scaling the density matrix to get the right number of electrons
                  # Electrons              Trace(P)               Scaling factor
                          512               512.001                        1.000
 Energy with the initial guess:     -1095.905614922

     Est. extremal eigenvalues     -0.94156     5.17318  converged:  F
     TRS4 it   1 1.00000000   0.565E+02       0.019     5346.453   0.100E-11
     TRS4 it   2 1.00000000   0.535E+02       0.018     5470.900   0.100E-11
     TRS4 it   3 1.00000000   0.335E+02       0.037     5383.450   0.100E-11
     TRS4 it   4 1.00000000   0.177E+02       0.036     5515.818   0.100E-11
     TRS4 it   5 1.00000000   0.107E+02       0.036     5521.413   0.100E-11
     TRS4 it   6 1.00000000   0.481E+01       0.037     5473.839   0.100E-11
     TRS4 it   7 1.00000000   0.142E+01       0.036     5512.826   0.100E-11
     TRS4 it   8 1.00000000   0.213E+00       0.036     5507.791   0.100E-11
     TRS4 it   9 1.00000000   0.903E-02       0.036     5615.963   0.100E-11
     TRS4 it  10 1.00000000   0.250E-04       0.036     5592.327   0.100E-11
     TRS4 it  11 1.00000000   0.685E-10       0.036     5601.653   0.100E-11
     Final TRS4 iteration   11 1.00000000   0.685E-10
     Chemical potential (mu):      -0.10598

 SCF     1     -1098.020723368     -1098.020723368    2.060928

*********************************************************
 Using MIXING_FRACTION=0.450 to mix KS matrix:  iscf=  2
 KS_nw=0.450*KS + 0.550*KS_old
*********************************************************
     Est. extremal eigenvalues     -0.83333     5.26156  converged:  T
     TRS4 it   1 1.00000000   0.558E+02       0.019     5343.571   0.100E-11
     TRS4 it   2 1.00000000   0.538E+02       0.019     5395.082   0.100E-11
     TRS4 it   3 1.00000000   0.347E+02       0.037     5442.016   0.100E-11
     TRS4 it   4 1.00000000   0.184E+02       0.036     5551.494   0.100E-11
     TRS4 it   5 1.00000000   0.119E+02       0.036     5546.928   0.100E-11
     TRS4 it   6 1.00000000   0.618E+01       0.036     5504.707   0.100E-11
     TRS4 it   7 1.00000000   0.246E+01       0.037     5480.978   0.100E-11
     TRS4 it   8 1.00000000   0.678E+00       0.036     5523.415   0.100E-11
     TRS4 it   9 1.00000000   0.102E+00       0.036     5560.759   0.100E-11
     TRS4 it  10 1.00000000   0.566E-02       0.036     5541.432   0.100E-11
     TRS4 it  11 1.00000000   0.111E-04       0.037     5474.841   0.100E-11
     TRS4 it  12 1.00000000   0.328E-10       0.036     5540.381   0.100E-11
     Final TRS4 iteration   12 1.00000000   0.328E-10
     Chemical potential (mu):      -0.01715

 SCF     2     -1102.997720328        -4.976996960    2.095995

*********************************************************
 Using MIXING_FRACTION=0.450 to mix KS matrix:  iscf=  3
 KS_nw=0.450*KS + 0.550*KS_old
*********************************************************
     Est. extremal eigenvalues     -0.84175     5.25349  converged:  F
     TRS4 it   1 1.00000000   0.558E+02       0.019     5284.630   0.100E-11
     TRS4 it   2 1.00000000   0.537E+02       0.019     5387.948   0.100E-11
     TRS4 it   3 1.00000000   0.346E+02       0.037     5482.348   0.100E-11
     TRS4 it   4 1.00000000   0.183E+02       0.036     5559.542   0.100E-11
     TRS4 it   5 1.00000000   0.117E+02       0.036     5580.239   0.100E-11
     TRS4 it   6 1.00000000   0.596E+01       0.036     5500.334   0.100E-11
     TRS4 it   7 1.00000000   0.228E+01       0.037     5463.637   0.100E-11
     TRS4 it   8 1.00000000   0.589E+00       0.036     5603.510   0.100E-11
     TRS4 it   9 1.00000000   0.770E-01       0.036     5540.525   0.100E-11
     TRS4 it  10 1.00000000   0.300E-02       0.037     5453.978   0.100E-11
     TRS4 it  11 1.00000000   0.270E-05       0.037     5487.156   0.100E-11
     TRS4 it  12 1.00000000   0.235E-11       0.036     5633.395   0.100E-11
     Final TRS4 iteration   12 1.00000000   0.235E-11
     Chemical potential (mu):      -0.02618

 SCF     3     -1103.156591174        -0.158870846    2.096361

*********************************************************
 Using MIXING_FRACTION=0.450 to mix KS matrix:  iscf=  4
 KS_nw=0.450*KS + 0.550*KS_old
*********************************************************
     Est. extremal eigenvalues     -0.83664     5.25885  converged:  T
     TRS4 it   1 1.00000000   0.558E+02       0.019     5395.462   0.100E-11
     TRS4 it   2 1.00000000   0.537E+02       0.019     5302.156   0.100E-11
     TRS4 it   3 1.00000000   0.346E+02       0.037     5471.668   0.100E-11
     TRS4 it   4 1.00000000   0.184E+02       0.036     5538.922   0.100E-11
     TRS4 it   5 1.00000000   0.118E+02       0.036     5612.273   0.100E-11
     TRS4 it   6 1.00000000   0.604E+01       0.037     5468.371   0.100E-11
     TRS4 it   7 1.00000000   0.235E+01       0.037     5489.003   0.100E-11
     TRS4 it   8 1.00000000   0.624E+00       0.037     5490.218   0.100E-11
     TRS4 it   9 1.00000000   0.879E-01       0.036     5583.591   0.100E-11
     TRS4 it  10 1.00000000   0.415E-02       0.036     5520.193   0.100E-11
     TRS4 it  11 1.00000000   0.655E-05       0.036     5548.600   0.100E-11
     TRS4 it  12 1.00000000   0.159E-10       0.037     5486.621   0.100E-11
     Final TRS4 iteration   12 1.00000000   0.159E-10
     Chemical potential (mu):      -0.01953

 SCF     4     -1103.164797445        -0.008206271    2.085916

*********************************************************
 Using MIXING_FRACTION=0.450 to mix KS matrix:  iscf=  5
 KS_nw=0.450*KS + 0.550*KS_old
*********************************************************
     Est. extremal eigenvalues     -0.83547     5.25961  converged:  F
     TRS4 it   1 1.00000000   0.558E+02       0.019     5313.130   0.100E-11
     TRS4 it   2 1.00000000   0.537E+02       0.019     5416.431   0.100E-11
     TRS4 it   3 1.00000000   0.346E+02       0.037     5468.107   0.100E-11
     TRS4 it   4 1.00000000   0.184E+02       0.036     5629.829   0.100E-11
     TRS4 it   5 1.00000000   0.118E+02       0.036     5534.896   0.100E-11
     TRS4 it   6 1.00000000   0.603E+01       0.036     5594.736   0.100E-11
     TRS4 it   7 1.00000000   0.234E+01       0.035     5666.347   0.100E-11
     TRS4 it   8 1.00000000   0.623E+00       0.037     5494.142   0.100E-11
     TRS4 it   9 1.00000000   0.876E-01       0.035     5667.922   0.100E-11
     TRS4 it  10 1.00000000   0.412E-02       0.036     5553.642   0.100E-11
     TRS4 it  11 1.00000000   0.650E-05       0.036     5526.467   0.100E-11
     TRS4 it  12 1.00000000   0.170E-10       0.036     5501.730   0.100E-11
     Final TRS4 iteration   12 1.00000000   0.170E-10
     Chemical potential (mu):      -0.01874

 SCF     5     -1103.165476036        -0.000678591    2.094020

*********************************************************
 Using MIXING_FRACTION=0.450 to mix KS matrix:  iscf=  6
 KS_nw=0.450*KS + 0.550*KS_old
*********************************************************
     Est. extremal eigenvalues     -0.83472     5.26041  converged:  T
     TRS4 it   1 1.00000000   0.558E+02       0.019     5291.330   0.100E-11
     TRS4 it   2 1.00000000   0.537E+02       0.019     5348.622   0.100E-11
     TRS4 it   3 1.00000000   0.346E+02       0.036     5510.160   0.100E-11
     TRS4 it   4 1.00000000   0.184E+02       0.036     5559.849   0.100E-11
     TRS4 it   5 1.00000000   0.118E+02       0.036     5601.958   0.100E-11
     TRS4 it   6 1.00000000   0.604E+01       0.036     5525.616   0.100E-11
     TRS4 it   7 1.00000000   0.235E+01       0.036     5624.926   0.100E-11
     TRS4 it   8 1.00000000   0.627E+00       0.036     5600.633   0.100E-11
     TRS4 it   9 1.00000000   0.891E-01       0.036     5569.383   0.100E-11
     TRS4 it  10 1.00000000   0.430E-02       0.036     5559.069   0.100E-11
     TRS4 it  11 1.00000000   0.738E-05       0.037     5484.960   0.100E-11
     TRS4 it  12 1.00000000   0.223E-10       0.037     5467.839   0.100E-11
     Final TRS4 iteration   12 1.00000000   0.223E-10
     Chemical potential (mu):      -0.01769

 SCF     6     -1103.165578246        -0.000102209    2.084519

*********************************************************
 Using MIXING_FRACTION=0.450 to mix KS matrix:  iscf=  7
 KS_nw=0.450*KS + 0.550*KS_old
*********************************************************
     Est. extremal eigenvalues     -0.83428     5.26072  converged:  T
     TRS4 it   1 1.00000000   0.558E+02       0.019     5337.577   0.100E-11
     TRS4 it   2 1.00000000   0.537E+02       0.019     5324.015   0.100E-11
     TRS4 it   3 1.00000000   0.346E+02       0.037     5395.895   0.100E-11
     TRS4 it   4 1.00000000   0.184E+02       0.037     5459.445   0.100E-11
     TRS4 it   5 1.00000000   0.118E+02       0.036     5525.432   0.100E-11
     TRS4 it   6 1.00000000   0.604E+01       0.036     5503.007   0.100E-11
     TRS4 it   7 1.00000000   0.235E+01       0.036     5605.987   0.100E-11
     TRS4 it   8 1.00000000   0.628E+00       0.036     5602.680   0.100E-11
     TRS4 it   9 1.00000000   0.894E-01       0.036     5500.120   0.100E-11
     TRS4 it  10 1.00000000   0.433E-02       0.036     5558.750   0.100E-11
     TRS4 it  11 1.00000000   0.753E-05       0.036     5563.607   0.100E-11
     TRS4 it  12 1.00000000   0.236E-10       0.036     5610.917   0.100E-11
     Final TRS4 iteration   12 1.00000000   0.236E-10
     Chemical potential (mu):      -0.01732

 SCF     7     -1103.165599669        -0.000021424    2.084982

*********************************************************
 Using MIXING_FRACTION=0.450 to mix KS matrix:  iscf=  8
 KS_nw=0.450*KS + 0.550*KS_old
*********************************************************
     Est. extremal eigenvalues     -0.83408     5.26090  converged:  T
     TRS4 it   1 1.00000000   0.558E+02       0.019     5380.727   0.100E-11
     TRS4 it   2 1.00000000   0.537E+02       0.019     5331.765   0.100E-11
     TRS4 it   3 1.00000000   0.346E+02       0.037     5410.895   0.100E-11
     TRS4 it   4 1.00000000   0.184E+02       0.036     5607.666   0.100E-11
     TRS4 it   5 1.00000000   0.118E+02       0.036     5543.146   0.100E-11
     TRS4 it   6 1.00000000   0.604E+01       0.037     5487.916   0.100E-11
     TRS4 it   7 1.00000000   0.235E+01       0.036     5576.400   0.100E-11
     TRS4 it   8 1.00000000   0.629E+00       0.036     5597.233   0.100E-11
     TRS4 it   9 1.00000000   0.897E-01       0.037     5453.081   0.100E-11
     TRS4 it  10 1.00000000   0.437E-02       0.036     5584.990   0.100E-11
     TRS4 it  11 1.00000000   0.772E-05       0.036     5585.662   0.100E-11
     TRS4 it  12 1.00000000   0.249E-10       0.035     5721.318   0.100E-11
     Final TRS4 iteration   12 1.00000000   0.249E-10
     Chemical potential (mu):      -0.01707

 SCF     8     -1103.165604782        -0.000005113    2.082284


 SCF run converged in     8 steps.

 Writing restart DM 64H2O_ref_LS_DM_SPIN_1_RESTART.dm with checksum:       0.63162110E+04

 ENERGY| Total FORCE_EVAL ( QS ) energy [a.u.]:            -1103.165604782086120

 -------------------------------------------------------------------------------
 -                                                                             -
 -                                DBCSR STATISTICS                             -
 -                                                                             -
 -------------------------------------------------------------------------------
 COUNTER                                    TOTAL       BLAS       SMM       ACC
 flops     5 x     5 x     5          79267274250       0.0%    100.0%      0.0%     
 flops    13 x     5 x     5         102628264050       0.0%    100.0%      0.0%     
 flops     5 x    13 x     5         102631820850       0.0%    100.0%      0.0%     
 flops     5 x     5 x    13         103136375550       0.0%    100.0%      0.0%     
 flops    13 x     5 x    13         133574029030       0.0%    100.0%      0.0%     
 flops     5 x    13 x    13         133581481930       0.0%    100.0%      0.0%     
 flops    13 x    13 x     5         134737692050       0.0%    100.0%      0.0%     
 flops    13 x    13 x    13         175420291072       0.0%    100.0%      0.0%     
 flops inhomo. stacks                           0       0.0%      0.0%      0.0%
 flops total                       964.977229E+09       0.0%    100.0%      0.0%
 flops max/rank                     30.963950E+09       0.0%    100.0%      0.0%
 matmuls inhomo. stacks                         0       0.0%      0.0%      0.0%
 matmuls total                         1069254507       0.0%    100.0%      0.0%
 number of processed stacks               1514048       0.0%    100.0%      0.0%
 average stack size                                     0.0     706.2       0.0
 marketing flops                     1.569237E+12
 -------------------------------------------------------------------------------
 # multiplications                            246
 max memory usage/rank             619.511808E+06
 # max total images/rank                        2
 # max 3D layers                                1
 # MPI messages exchanged                  102336
 MPI messages size (bytes):
  total size                        42.302198E+09
  min size                           0.000000E+00
  max size                         541.696000E+03
  average size                     413.365750E+03
 MPI breakdown and total messages size (bytes):
             size <=      128                 312                        0
       128 < size <=     8192                  42                   279312
      8192 < size <=    32768                  62                   841968
     32768 < size <=   131072                 144                 16986672
    131072 < size <=  4194304              101776              42284089168
   4194304 < size <= 16777216                   0                        0
  16777216 < size                               0                        0
 -------------------------------------------------------------------------------

 *** WARNING in dbcsr_mm.F:301 :: Using a non-square number of MPI ranks ***
 *** might lead to poor performance. Used ranks: 32 Suggested: 36 64     ***

 -------------------------------------------------------------------------------
 -                                                                             -
 -                      DBCSR MESSAGE PASSING PERFORMANCE                      -
 -                                                                             -
 -------------------------------------------------------------------------------
 ROUTINE             CALLS      AVE VOLUME [Bytes]
 MP_Bcast                9                     12.
 MP_Allreduce         1762                     34.
 MP_Alltoall           546                  34827.
 MP_ISend             8604                 170515.
 MP_IRecv             8238                 178708.
 -------------------------------------------------------------------------------

 -------------------------------------------------------------------------------
 -                                                                             -
 -                                DBM STATISTICS                               -
 -                                                                             -
 -------------------------------------------------------------------------------
    M  x    N  x    K                                          COUNT     PERCENT
 -------------------------------------------------------------------------------

 -------------------------------------------------------------------------------
 -                                                                             -
 -                                GRID STATISTICS                              -
 -                                                                             -
 -------------------------------------------------------------------------------
 LP    KERNEL             BACKEND                              COUNT     PERCENT
 2     collocate ortho    CPU                                7377543      28.83%
 2     integrate ortho    CPU                                7377543      28.83%
 3     collocate ortho    CPU                                4739643      18.52%
 3     integrate ortho    CPU                                4739643      18.52%
 4     collocate ortho    CPU                                 672606       2.63%
 4     integrate ortho    CPU                                 672606       2.63%
 0     collocate general  CPU                                   6144       0.02%
 -------------------------------------------------------------------------------

 MEMORY| Estimated peak process memory [MiB]                                 592

 -------------------------------------------------------------------------------
 -                                                                             -
 -                         MESSAGE PASSING PERFORMANCE                         -
 -                                                                             -
 -------------------------------------------------------------------------------

 ROUTINE             CALLS      AVE VOLUME [Bytes]
 MP_Group                5
 MP_Bcast             2540                 153592.
 MP_Allreduce         6784                    940.
 MP_Sync                 5
 MP_Alltoall           244
 MP_SendRecv           837                  18832.
 MP_ISendRecv          837                  18832.
 MP_Wait              2391
 MP_ISend             1406                 108579.
 MP_IRecv             1406                 108603.
 -------------------------------------------------------------------------------


 -------------------------------------------------------------------------------
 -                                                                             -
 -                           R E F E R E N C E S                               -
 -                                                                             -
 -------------------------------------------------------------------------------
 
 CP2K version 2024.3 (Development Version), the CP2K developers group (2024).
 CP2K is freely available from https://www.cp2k.org/ .
 
 T. D. Kuehne, M. Iannuzzi, M. Del Ben, V. V. Rybkin, P. Seewald, F. Stein, T. 
 Laino, R. Z. Khaliullin, O. Schuett, F. Schiffmann, D. Golze, J. Wilhelm, S. 
 Chulkov, M. H. Bani-Hashemian, V. Weber, U. Borstnik, M. Taillefumier, A. S. 
 Jakobovits, A. Lazzaro, H. Pabst, T. Mueller, R. Schade, M. Guidon, S. 
 Andermatt, N. Holmberg, G. K. Schenter, A. Hehn, A. Bussy, F. Belleflamme, G. 
 Tabacchi, A. Gloess, M. Lass, I. Bethune, C. J. Mundy, C. Plessl, M. Watkins, 
 J. VandeVondele, M. Krack, J. Hutter.
 J. Chem. Phys. 152, 194103 (2020).
 CP2K: An electronic structure and molecular dynamics software package - 
 Quickstep: Efficient and accurate electronic structure calculations.
 https://doi.org/10.1063/5.0007045

 O. Schuett, P. Messmer, J. Hutter, J. VandeVondele.
 Electronic Structure Calculations on Graphics Processing Units, 173-190 (2016).
 GPU-Accelerated Sparse Matrix-Matrix Multiplication for Linear Scaling Density 
 Functional Theory.
 https://doi.org/10.1002/9781118670712.ch8

 A. Heinecke, G. Henry, M. Hutchinson, H. Pabst.
 Proceedings of Intl. Supercomputing Conference, 981-991 (2016).
 LIBXSMM: Accelerating Small Matrix Multiplications by Runtime Code Generation.
 https://doi.org/10.1109/SC.2016.83

 J. Hutter, M. Iannuzzi, F. Schiffmann, J. VandeVondele.
 WIREs Comput Mol Sci. 4, 15-25 (2014).
 CP2K: atomistic simulations of condensed matter systems.
 https://doi.org/10.1002/wcms.1159

 U. Borstnik, J. VandeVondele, V. Weber, J. Hutter.
 Parallel Comput. 40, 47-58 (2014).
 Sparse matrix multiplication: The distributed block-compressed sparse row 
 library.
 https://doi.org/10.1016/j.parco.2014.03.012

 A. Marek, V. Blum, R. Johanni, V. Havu, B. Lang, T. Auckenthaler, A. Heinecke, 
 H. Bungartz, H. Lederer.
 J. Phys. Condens. Matter 26, 213201 (2014).
 The ELPA library: scalable parallel eigenvalue solutions for electronic 
 structure theory and computational science.
 https://doi.org/10.1088/0953-8984/26/21/213201

 J. VandeVondele, U. Borstnik, J. Hutter.
 J. Chem. Theory Comput. 8, 3565-3573 (2012).
 Linear Scaling Self-Consistent Field Calculations with Millions of Atoms in the 
 Condensed Phase.
 https://doi.org/10.1021/ct200897x

 J. VandeVondele, J. Hutter.
 J. Chem. Phys. 127, 114105 (2007).
 Gaussian basis sets for accurate calculations on molecular systems in gas and 
 condensed phases.
 https://doi.org/10.1063/1.2770708

 J. VandeVondele, M. Krack, F. Mohamed, M. Parrinello, T. Chassaing, J. Hutter.
 Comput. Phys. Commun. 167, 103-128 (2005).
 QUICKSTEP: Fast and accurate density functional calculations using a mixed 
 Gaussian and plane waves approach.
 https://doi.org/10.1016/j.cpc.2004.12.014

 M. Krack.
 Theor. Chem. Acc. 114, 145-152 (2005).
 Pseudopotentials for H to Kr optimized for gradient-corrected 
 exchange-correlation functionals.
 https://doi.org/10.1007/s00214-005-0655-y

 M. Frigo, S. G. Johnson.
 Proc. IEEE 93, 216-231 (2005).
 The design and implementation of FFTW3.
 https://doi.org/10.1109/JPROC.2004.840301

 A. M. N. Niklasson, C. J. Tymczak, M. Challacombe.
 J. Chem. Phys. 118, 8611-8620 (2003).
 Trace resetting density matrix purification in O(N) self-consistent-field 
 theory.
 https://doi.org/10.1063/1.1559913

 C. Hartwigsen, S. Goedecker, J. Hutter.
 Phys. Rev. B 58, 3641-3662 (1998).
 Relativistic separable dual-space Gaussian pseudopotentials from H to Rn.
 https://doi.org/10.1103/PhysRevB.58.3641

 G. Lippert, J. Hutter, M. Parrinello.
 Mol. Phys. 92, 477-487 (1997).
 A hybrid Gaussian and plane wave density functional scheme.
 https://doi.org/10.1080/002689797170220

 S. Goedecker, M. Teter, J. Hutter.
 Phys. Rev. B 54, 1703-1710 (1996).
 Separable dual-space Gaussian pseudopotentials.
 https://doi.org/10.1103/PhysRevB.54.1703

 J. P. Perdew, K. Burke, M. Ernzerhof.
 Phys. Rev. Lett. 77, 3865-3868 (1996).
 Generalized gradient approximation made simple.
 https://doi.org/10.1103/PhysRevLett.77.3865


 -------------------------------------------------------------------------------
 -                                                                             -
 -                                T I M I N G                                  -
 -                                                                             -
 -------------------------------------------------------------------------------
 SUBROUTINE                       CALLS  ASD         SELF TIME        TOTAL TIME
                                MAXIMUM       AVERAGE  MAXIMUM  AVERAGE  MAXIMUM
 CP2K                                 1  1.0    0.011    0.015   20.393   20.393
 qs_energies                          1  2.0    0.000    0.000   20.246   20.247
 ls_scf                               1  3.0    0.000    0.000   19.223   19.224
 ls_scf_main                          1  4.0    0.000    0.000   16.685   16.686
 ls_scf_dm_to_ks                      8  5.0    0.000    0.000   12.382   12.385
 qs_ks_update_qs_env                  9  6.1    0.000    0.000    7.806    7.807
 rebuild_ks_matrix                    9  7.1    0.000    0.000    7.799    7.801
 qs_ks_build_kohn_sham_matrix         9  8.1    0.002    0.002    7.799    7.801
 qs_rho_update_rho_low                9  6.1    0.000    0.000    6.132    6.134
 calculate_rho_elec                   9  7.1    0.003    0.003    6.132    6.134
 sum_up_and_integrate                 9  9.1    0.000    0.000    5.900    5.901
 integrate_v_rspace                   9 10.1    0.000    0.000    5.891    5.893
 grid_collocate_task_list             9  8.1    5.438    5.535    5.438    5.535
 grid_integrate_task_list             9 11.1    5.202    5.283    5.202    5.283
 dbcsr_multiply_generic             246  6.2    0.012    0.013    4.649    4.655
 density_matrix_trs4                  8  5.0    0.004    0.005    4.298    4.301
 multiply_cannon                    246  7.2    0.018    0.022    3.776    3.885
 multiply_cannon_loop               246  8.2    0.019    0.021    3.702    3.761
 ls_scf_init_scf                      1  4.0    0.000    0.000    2.476    2.476
 multiply_cannon_multrec           1968  9.2    2.097    2.136    2.103    2.142
 mp_waitall_1                     16729 10.5    1.739    1.812    1.739    1.812
 fft_wrap_pw1pw2                    172 11.3    0.003    0.003    1.762    1.786
 fft_wrap_pw1pw2_200                100 12.8    0.103    0.110    1.689    1.727
 qs_vxc_create                        9  9.1    0.000    0.000    1.553    1.580
 xc_vxc_pw_create                     9 10.1    0.013    0.020    1.553    1.580
 ls_scf_initial_guess                 1  5.0    0.000    0.000    1.560    1.561
 ls_scf_qs_atomic_guess               1  6.0    0.000    0.000    1.560    1.561
 multiply_cannon_metrocomm3        1968  9.2    0.005    0.006    1.361    1.446
 fft3d_ps                           172 13.3    0.717    0.789    1.324    1.364
 xc_pw_derive                        54 12.1    0.001    0.001    1.101    1.185
 qs_energies_init_hamiltonians        1  3.0    0.000    0.000    1.022    1.022
 ls_scf_init_matrix_S                 1  5.0    0.000    0.000    0.916    0.917
 matrix_sqrt_Newton_Schulz            1  6.0    0.001    0.001    0.892    0.893
 build_core_hamiltonian_matrix        1  4.0    0.000    0.000    0.696    0.833
 xc_rho_set_and_dset_create           9 11.1    0.020    0.025    0.782    0.800
 xc_pw_divergence                     9 11.1    0.000    0.000    0.737    0.778
 density_rs2pw                        9  8.1    0.000    0.000    0.660    0.753
 make_m2s                           492  7.2    0.005    0.007    0.682    0.694
 make_images                        492  8.2    0.039    0.040    0.672    0.685
 mp_waitany                        1406 12.5    0.506    0.612    0.506    0.612
 mp_alltoall_z22v                   172 15.3    0.434    0.612    0.434    0.612
 potential_pw2rs                      9 11.1    0.000    0.001    0.599    0.600
 build_core_ppl                       1  5.0    0.477    0.585    0.477    0.585
 transfer_rs2pw                      46  9.0    0.001    0.001    0.436    0.543
 arnoldi_extremal                     9  6.1    0.000    0.000    0.453    0.455
 arnoldi_normal_ev                    9  7.1    0.000    0.001    0.453    0.454
 transfer_rs2pw_200                  10  9.8    0.029    0.041    0.331    0.437
 make_images_data                   492  9.2    0.005    0.008    0.373    0.412
 -------------------------------------------------------------------------------

 The number of warnings for this run is : 1
 
 -------------------------------------------------------------------------------
  **** **** ******  **  PROGRAM ENDED AT                 2024-09-23 17:45:28.408
 ***** ** ***  *** **   PROGRAM RAN ON                                    moritz
 **    ****   ******    PROGRAM RAN BY                                       ole
 ***** **    ** ** **   PROGRAM PROCESS ID                                159014
  **** **  *******  **  PROGRAM STOPPED IN /home/ole/git/pao_ml_equivar/64H2O_MD
                                           /Frame4400
