 DBCSR| CPU Multiplication driver                                           XSMM
 DBCSR| Multrec recursion limit                                              512
 DBCSR| Multiplication stack size                                           1000
 DBCSR| Maximum elements for images                                    UNLIMITED
 DBCSR| Multiplicative factor virtual images                                   1
 DBCSR| Use multiplication densification                                       T
 DBCSR| Multiplication size stacks                                             3


  **** **** ******  **  PROGRAM STARTED AT               2019-02-14 01:19:50.299
 ***** ** ***  *** **   PROGRAM STARTED ON                                  otto
 **    ****   ******    PROGRAM STARTED BY                                   ole
 ***** **    ** ** **   PROGRAM PROCESS ID                                  6111
  **** **  *******  **  PROGRAM STARTED IN /home/ole/git/pao_ml_equivar/2H2O_MD/
                                           frame_0450

 CP2K| version string:                    CP2K version 7.0 (Development Version)
 CP2K| source code revision number:                                git:8bf305913
 CP2K| cp2kflags: libint fftw3 libxc xsmm libderiv_max_am1=5 libint_max_am=6    
 CP2K| is freely available from                            https://www.cp2k.org/
 CP2K| Program compiled at                           So Jan 13 00:02:37 CET 2019
 CP2K| Program compiled on                                                  otto
 CP2K| Program compiled for                                                local
 CP2K| Data directory path                               /home/ole/git/cp2k/data
 CP2K| Input file name                                            2H2O_pao44.inp

 GLOBAL| Force Environment number                                              1
 GLOBAL| Basis set file name                                        BASIS_MOLOPT
 GLOBAL| Potential file name                                      GTH_POTENTIALS
 GLOBAL| MM Potential file name                                     MM_POTENTIAL
 GLOBAL| Coordinate file name                                         coords.xyz
 GLOBAL| Method name                                                        CP2K
 GLOBAL| Project name                                                 2H2O_pao44
 GLOBAL| Preferred FFT library                                             FFTW3
 GLOBAL| Preferred diagonalization lib.                                       SL
 GLOBAL| Run type                                                         ENERGY
 GLOBAL| All-to-all communication in single precision                          F
 GLOBAL| FFTs using library dependent lengths                                  F
 GLOBAL| Global print level                                                  LOW
 GLOBAL| MPI I/O enabled                                                       T
 GLOBAL| Total number of message passing processes                             1
 GLOBAL| Number of threads for this process                                    1
 GLOBAL| This output is from process                                           0
 GLOBAL| CPU model name :  Intel(R) Core(TM) i5-3320M CPU @ 2.60GHz

 MEMORY| system memory details [Kb]
 MEMORY|                        rank 0           min           max       average
 MEMORY| MemTotal              7860772       7860772       7860772       7860772
 MEMORY| MemFree               2046872       2046872       2046872       2046872
 MEMORY| Buffers                282096        282096        282096        282096
 MEMORY| Cached                1998056       1998056       1998056       1998056
 MEMORY| Slab                   256828        256828        256828        256828
 MEMORY| SReclaimable           134524        134524        134524        134524
 MEMORY| MemLikelyFree         4461548       4461548       4461548       4461548


 GENERATE|  Preliminary Number of Bonds generated:                             0
 GENERATE|  Achieved consistency in connectivity generation.

 *******************************************************************************
 *******************************************************************************
 **                                                                           **
 **     #####                         ##              ##                      **
 **    ##   ##            ##          ##              ##                      **
 **   ##     ##                       ##            ######                    **
 **   ##     ##  ##   ##  ##   #####  ##  ##   ####   ##    #####    #####    **
 **   ##     ##  ##   ##  ##  ##      ## ##   ##      ##   ##   ##  ##   ##   **
 **   ##  ## ##  ##   ##  ##  ##      ####     ###    ##   ######   ######    **
 **    ##  ###   ##   ##  ##  ##      ## ##      ##   ##   ##       ##        **
 **     #######   #####   ##   #####  ##  ##  ####    ##    #####   ##        **
 **           ##                                                    ##        **
 **                                                                           **
 **                                                ... make the atoms dance   **
 **                                                                           **
 **            Copyright (C) by CP2K developers group (2000 - 2018)           **
 **                                                                           **
 *******************************************************************************


 TOTAL NUMBERS AND MAXIMUM NUMBERS

  Total number of            - Atomic kinds:                                   2
                             - Atoms:                                          6
                             - Shell sets:                                     6
                             - Shells:                                        22
                             - Primitive Cartesian functions:                 42
                             - Cartesian basis functions:                     48
                             - Spherical basis functions:                     46

  Maximum angular momentum of- Orbital basis functions:                        2
                             - Local part of the GTH pseudopotential:          2
                             - Non-local part of the GTH pseudopotential:      0

 ------------------------------ Linear scaling SCF -----------------------------
 eps_scf:                                       0.100E-07
 eps_filter:                                    0.100E-07
 mixing_fraction:                               0.450E+00
 max_scf:                                              25
 fixed chemical potential (mu)                          F
 has unit metric:                                       F
 Computing inv(S):                                      T
 Computing sqrt(S):                                     T
 Computing s preconditioner                             F
 sign sqrt order:                                       3
 Extrapolation order:                                   1
 Use single precision matrices                          F
 S preconditioner type                               NONE
 Polarized Atomic Orbitals (PAO)                        T
 Purification method                      Trace resetting 4th order
 Cluster type                                      ATOMIC
 Computing Chebyshev                                FALSE
 Using PAO                                              T
 -------------------------------------------------------------------------------

 
 PAO|                                  EPS_PAO                           0.5E-06
 PAO|                                  MIXING                            0.5E+00
 PAO|                                  MAX_PAO                              1000
 PAO|                                  MAX_CYCLES                           1000
 PAO|                                  PARAMETERIZATION                   DIRECT
 PAO|                                  PRECONDITION                            F
 PAO|                                  REGULARIZATION                    0.0E+00
 PAO|                                  EPS_PGF                           0.1E-09
 PAO|                                  PENALTY_DISTANCE                  0.1E+00
 PAO|                                  PENALTY_STRENGTH                  0.5E-02
 PAO|                                  LINPOT_PRECONDITION_DELTA         0.0E+00
 PAO|                                  LINPOT_INITGUESS_DELT             0.0E+00
 PAO|                                  LINPOT_REGULARIZATION_DELTA       0.0E+00
 PAO|                                  LINPOT_REGULARIZATION_STRENGTH    0.0E+00
 PAO|                                  OPTIMIZER                              CG
 PAO|                                  CG_INIT_STEPS                           2
 PAO|                                  CG_RESET_LIMIT                    0.1E+00
 PAO|                                  CHECK_UNITARY_TOL                -0.1E+01
 PAO|                                  CHECK_GRADIENT_TOL               -0.1E+01
 PAO|                                  NUM_GRADIENT_ORDER                      2
 PAO|                                  NUM_GRADIENT_EPS                  0.1E-07
 PAO|                                  PRINT%RESTART%WRITE_CYCLES            100
 PAO|                                  RESTART_FILE 
 PAO|                                  PREOPT_DM_FILE 2H2O_ref_LS_DM_SPIN_1_RESTART.dm
 PAO|                                  MACHINE_LEARNING%METHOD        GAUSSIAN_P
 PAO|                                  MACHINE_LEARNING%PRIOR               ZERO
 PAO|                                  MACHINE_LEARNING%DESCRIPTOR     POTENTIAL
 PAO|                                  MACHINE_LEARNING%TOLERANCE        0.1E-01
 PAO|                                  MACHINE_LEARNING%GP_NOISE_VAR     0.1E+00
 PAO|                                  MACHINE_LEARNING%GP_SCALE         0.5E-01
 

 Calculating atomic Fock matrix for atomic kind: O

 Electronic structure
    Total number of core electrons                                          2.00
    Total number of valence electrons                                       6.00
    Total number of electrons                                               8.00
    Multiplicity                                                   not specified
    S   [  2.00] 2.00
    P      4.00


 *******************************************************************************
                  Iteration          Convergence                     Energy [au]
 *******************************************************************************
                          1        0.708315                     -15.576645311500
                          2        0.608879                     -15.587933561584
                          3        0.102828E-01                 -15.656849565404
                          4        0.113889E-02                 -15.656866888140
                          5        0.434197E-03                 -15.656867072159
                          6        0.263771E-03                 -15.656867091904
                          7        0.478536E-06                 -15.656867103452

 Energy components [Hartree]           Total Energy ::          -15.656867103452
                                        Band Energy ::           -3.000198112285
                                     Kinetic Energy ::           11.759971203220
                                   Potential Energy ::          -27.416838306672
                                      Virial (-V/T) ::            2.331369510426
                                        Core Energy ::          -26.140716385623
                                          XC Energy ::           -3.154051012914
                                     Coulomb Energy ::           13.637900295084
                       Total Pseudopotential Energy ::          -37.935781716540
                       Local Pseudopotential Energy ::          -39.218907440693
                    Nonlocal Pseudopotential Energy ::            1.283125724153
                                        Confinement ::            0.350941276976

 Orbital energies  State     L     Occupation   Energy[a.u.]          Energy[eV]

                       1     0          2.000      -0.864471          -23.523463

                       1     1          4.000      -0.317814           -8.648154


 Total Electron Density at R=0:                                         0.000068

 Calculating atomic Fock matrix for atomic kind: H

 Electronic structure
    Total number of core electrons                                          0.00
    Total number of valence electrons                                       1.00
    Total number of electrons                                               1.00
    Multiplicity                                                   not specified
    S      1.00


 *******************************************************************************
                  Iteration          Convergence                     Energy [au]
 *******************************************************************************
                          1        0.437545E-02                  -0.424159432110
                          2        0.531356E-03                  -0.424178438213
                          3        0.259176E-06                  -0.424178722480

 Energy components [Hartree]           Total Energy ::           -0.424178722480
                                        Band Energy ::           -0.199015229016
                                     Kinetic Energy ::            0.464007633961
                                   Potential Energy ::           -0.888186356441
                                      Virial (-V/T) ::            1.914163240935
                                        Core Energy ::           -0.479160803564
                                          XC Energy ::           -0.244352904054
                                     Coulomb Energy ::            0.299334985138
                       Total Pseudopotential Energy ::           -0.962295316385
                       Local Pseudopotential Energy ::           -0.962295316385
                    Nonlocal Pseudopotential Energy ::            0.000000000000
                                        Confinement ::            0.191268788606

 Orbital energies  State     L     Occupation   Energy[a.u.]          Energy[eV]

                       1     0          1.000      -0.199015           -5.415480


 Total Electron Density at R=0:                                         0.242907
 PAO| Made initial guess for matrix_X with norm:   4.8989794855663558     

     Lanczos converged:  T threshold:   0.100E-02
     Est. extremal eigenvalues:    0.337E+01   0.116E+00
     Est. condition number :    0.291E+02
     NS sqrt iter    1 1.00000000   0.823E+00       0.002       40.101
     NS sqrt iter    2 1.00000000   0.443E+00       0.001       74.751
     NS sqrt iter    3 1.00000000   0.170E+00       0.001       79.414
     NS sqrt iter    4 1.00000000   0.204E-01       0.001       84.508
     NS sqrt iter    5 1.00000000   0.519E-04       0.001       69.027
     Final NS sqrt iter    5 1.00000000   0.353E-08

 PAO| Read restart DM 2H2O_ref_LS_DM_SPIN_1_RESTART.dm with checksum:    55.952983128200671     
 PAO| Quickstep energy from restart density:  -34.448337832752941     
 PAO| ======================= Iteration:         1 =============================

     Lanczos converged:  T threshold:   0.100E-02
     Est. extremal eigenvalues:    0.337E+01   0.116E+00
     Est. condition number :    0.291E+02
     NS sqrt iter    1 1.00000000   0.823E+00       0.001       50.264
     NS sqrt iter    2 1.00000000   0.443E+00       0.001       92.386
     NS sqrt iter    3 1.00000000   0.170E+00       0.001      105.728
     NS sqrt iter    4 1.00000000   0.204E-01       0.001      110.592
     NS sqrt iter    5 1.00000000   0.519E-04       0.001       89.515
     Final NS sqrt iter    5 1.00000000   0.353E-08

     Est. extremal eigenvalues     -0.91699     1.81915  converged:  T
     TRS4 it   1 1.00000000   0.864E+00       0.001       16.128   0.100E-07
     TRS4 it   2 1.00000000   0.674E+00       0.001       32.256   0.100E-07
     TRS4 it   3 1.00000000   0.491E+00       0.001       32.256   0.100E-07
     TRS4 it   4 1.00000000   0.305E+00       0.001       32.256   0.100E-07
     TRS4 it   5 1.00000000   0.150E+00       0.001       32.256   0.100E-07
     TRS4 it   6 1.00000000   0.458E-01       0.001       32.256   0.100E-07
     TRS4 it   7 1.00000000   0.575E-02       0.001       32.256   0.100E-07
     TRS4 it   8 1.00000000   0.126E-03       0.001       32.256   0.100E-07
     TRS4 it   9 1.00000000   0.693E-07       0.001       32.256   0.100E-07
     Final TRS4 iteration    9 1.00000000   0.693E-07
     Chemical potential (mu):      -0.06328
 
 PAO| energy:  -7.5918777544953278      penalty:   4.2524533172070178E-033
 PAO|CG| warming up with steepest descent
 PAO|CG| beta:    0.0000000000000000     
 PAO| norm of gradient:  0.77811063139242043     
 PAO|LS| adapt:  T F F
 PAO|LS| adapt: scan_steps:    0.0000000000000000        0.0000000000000000        0.0000000000000000     
 PAO|LS| adapt: energies:   -7.5918777544953278        0.0000000000000000        0.0000000000000000     
 PAO| ======================= Iteration:         2 =============================

     Lanczos converged:  T threshold:   0.100E-02
     Est. extremal eigenvalues:    0.328E+01   0.129E+00
     Est. condition number :    0.255E+02
     NS sqrt iter    1 1.00000000   0.807E+00       0.001       47.322
     NS sqrt iter    2 1.00000000   0.428E+00       0.001      104.454
     NS sqrt iter    3 1.00000000   0.152E+00       0.001       91.103
     NS sqrt iter    4 1.00000000   0.140E-01       0.001      110.592
     NS sqrt iter    5 1.00000000   0.159E-04       0.001       82.944
     Final NS sqrt iter    5 1.00000000   0.390E-09

     Est. extremal eigenvalues     -0.92065     1.76810  converged:  T
     TRS4 it   1 1.00000000   0.860E+00       0.000       16.128   0.100E-07
     TRS4 it   2 1.00000000   0.656E+00       0.001       32.256   0.100E-07
     TRS4 it   3 1.00000000   0.473E+00       0.001       32.256   0.100E-07
     TRS4 it   4 1.00000000   0.284E+00       0.001       32.256   0.100E-07
     TRS4 it   5 1.00000000   0.130E+00       0.001       32.256   0.100E-07
     TRS4 it   6 1.00000000   0.346E-01       0.001       32.256   0.100E-07
     TRS4 it   7 1.00000000   0.331E-02       0.001       32.256   0.100E-07
     TRS4 it   8 1.00000000   0.420E-04       0.001       32.256   0.100E-07
     TRS4 it   9 1.00000000   0.775E-08       0.001       32.256   0.100E-07
     Final TRS4 iteration    9 1.00000000   0.775E-08
     Chemical potential (mu):      -0.05143
 
 PAO| energy:  -7.6465738694572147      penalty:   2.1830015839869850E-008
 PAO|LS| adapt:  T T F
 PAO|LS| adapt: scan_steps:    0.0000000000000000       0.10000000000000001        0.0000000000000000     
 PAO|LS| adapt: energies:   -7.5918777544953278       -7.6465738694572147        0.0000000000000000     
 PAO| ======================= Iteration:         3 =============================

     Lanczos converged:  T threshold:   0.100E-02
     Est. extremal eigenvalues:    0.319E+01   0.141E+00
     Est. condition number :    0.227E+02
     NS sqrt iter    1 1.00000000   0.790E+00       0.001       47.429
     NS sqrt iter    2 1.00000000   0.411E+00       0.001      107.797
     NS sqrt iter    3 1.00000000   0.135E+00       0.001      110.592
     NS sqrt iter    4 1.00000000   0.957E-02       0.001      110.592
     NS sqrt iter    5 1.00000000   0.516E-05       0.001       82.944
     Final NS sqrt iter    5 1.00000000   0.419E-10

     Est. extremal eigenvalues     -0.92404     1.72927  converged:  T
     TRS4 it   1 1.00000000   0.858E+00       0.000       16.128   0.100E-07
     TRS4 it   2 1.00000000   0.640E+00       0.001       32.256   0.100E-07
     TRS4 it   3 1.00000000   0.457E+00       0.001       32.256   0.100E-07
     TRS4 it   4 1.00000000   0.263E+00       0.001       32.256   0.100E-07
     TRS4 it   5 1.00000000   0.112E+00       0.001       32.256   0.100E-07
     TRS4 it   6 1.00000000   0.254E-01       0.001       32.256   0.100E-07
     TRS4 it   7 1.00000000   0.178E-02       0.001       32.256   0.100E-07
     TRS4 it   8 1.00000000   0.120E-04       0.001       32.256   0.100E-07
     TRS4 it   9 1.00000000   0.639E-09       0.001       32.256   0.100E-07
     Final TRS4 iteration    9 1.00000000   0.639E-09
     Chemical potential (mu):      -0.03843
 
 PAO| energy:  -7.6889814138953909      penalty:   3.4927848460443077E-007
 PAO|LS| adapt:  T T F
 PAO|LS| adapt: scan_steps:    0.0000000000000000       0.20000000000000001        0.0000000000000000     
 PAO|LS| adapt: energies:   -7.5918777544953278       -7.6889814138953909        0.0000000000000000     
 PAO| ======================= Iteration:         4 =============================

     Lanczos converged:  T threshold:   0.100E-02
     Est. extremal eigenvalues:    0.300E+01   0.158E+00
     Est. condition number :    0.189E+02
     NS sqrt iter    1 1.00000000   0.753E+00       0.001       64.512
     NS sqrt iter    2 1.00000000   0.377E+00       0.001       77.031
     NS sqrt iter    3 1.00000000   0.105E+00       0.002       62.134
     NS sqrt iter    4 1.00000000   0.466E-02       0.002       60.182
     NS sqrt iter    5 1.00000000   0.746E-06       0.001       59.949
     Final NS sqrt iter    5 1.00000000   0.940E-12

     Est. extremal eigenvalues     -0.92923     1.67845  converged:  T
     TRS4 it   1 1.00000000   0.856E+00       0.000       16.128   0.100E-07
     TRS4 it   2 1.00000000   0.616E+00       0.001       32.256   0.100E-07
     TRS4 it   3 1.00000000   0.427E+00       0.001       32.256   0.100E-07
     TRS4 it   4 1.00000000   0.227E+00       0.001       32.256   0.100E-07
     TRS4 it   5 1.00000000   0.810E-01       0.001       32.256   0.100E-07
     TRS4 it   6 1.00000000   0.129E-01       0.001       32.256   0.100E-07
     TRS4 it   7 1.00000000   0.435E-03       0.001       32.256   0.100E-07
     TRS4 it   8 1.00000000   0.694E-06       0.001       32.256   0.100E-07
     TRS4 it   9 1.00000000   0.212E-11       0.001       32.256   0.100E-07
     Final TRS4 iteration    9 1.00000000   0.212E-11
     Chemical potential (mu):      -0.01014
 
 PAO| energy:  -7.7355348159142094      penalty:   5.5884416133753192E-006
 PAO|LS| Need extra step
 PAO|LS| adapt:  T T F
 PAO|LS| adapt: scan_steps:    0.0000000000000000       0.40000000000000002        0.0000000000000000     
 PAO|LS| adapt: energies:   -7.5918777544953278       -7.7355348159142094        0.0000000000000000     
 PAO| ======================= Iteration:         5 =============================

     Lanczos converged:  T threshold:   0.100E-02
     Est. extremal eigenvalues:    0.264E+01   0.184E+00
     Est. condition number :    0.144E+02
     NS sqrt iter    1 1.00000000   0.689E+00       0.001       64.512
     NS sqrt iter    2 1.00000000   0.314E+00       0.001      110.592
     NS sqrt iter    3 1.00000000   0.649E-01       0.001      110.592
     NS sqrt iter    4 1.00000000   0.132E-02       0.001       92.674
     NS sqrt iter    5 1.00000000   0.238E-07       0.001       49.174
     Final NS sqrt iter    5 1.00000000   0.931E-09

     Est. extremal eigenvalues     -0.93007     1.63387  converged:  T
     TRS4 it   1 1.00000000   0.859E+00       0.001       12.243   0.100E-07
     TRS4 it   2 1.00000000   0.587E+00       0.001       32.256   0.100E-07
     TRS4 it   3 1.00000000   0.383E+00       0.001       32.256   0.100E-07
     TRS4 it   4 1.00000000   0.175E+00       0.001       32.256   0.100E-07
     TRS4 it   5 1.00000000   0.447E-01       0.001       32.256   0.100E-07
     TRS4 it   6 1.00000000   0.362E-02       0.001       32.256   0.100E-07
     TRS4 it   7 1.00000000   0.302E-04       0.001       32.256   0.100E-07
     TRS4 it   8 1.00000000   0.285E-08       0.001       32.256   0.100E-07
     Final TRS4 iteration    8 1.00000000   0.285E-08
     Chemical potential (mu):       0.03444
 
 PAO| energy:  -7.6819058515849772      penalty:   8.9414952733125365E-005
 PAO|LS| Need extra step
 PAO|LS| adapt:  T T T
 PAO|LS| adapt: scan_steps:    0.0000000000000000       0.40000000000000002       0.80000000000000004     
 PAO|LS| adapt: energies:   -7.5918777544953278       -7.7355348159142094       -7.6819058515849772     
 PAO|LS| adapt: suggested step_size:   0.49126657273191099     
 PAO|LS| adapt: predicted energy  -7.7406701633335526     
 PAO| ======================= Iteration:         6 =============================

     Lanczos converged:  T threshold:   0.100E-02
     Est. extremal eigenvalues:    0.291E+01   0.165E+00
     Est. condition number :    0.176E+02
     NS sqrt iter    1 1.00000000   0.737E+00       0.002       42.562
     NS sqrt iter    2 1.00000000   0.361E+00       0.001      107.738
     NS sqrt iter    3 1.00000000   0.940E-01       0.001      110.592
     NS sqrt iter    4 1.00000000   0.344E-02       0.001      110.592
     NS sqrt iter    5 1.00000000   0.334E-06       0.001       78.238
     Final NS sqrt iter    5 1.00000000   0.208E-09

     Est. extremal eigenvalues     -0.93064     1.66347  converged:  T
     TRS4 it   1 1.00000000   0.856E+00       0.000       16.128   0.100E-07
     TRS4 it   2 1.00000000   0.608E+00       0.001       32.256   0.100E-07
     TRS4 it   3 1.00000000   0.415E+00       0.001       32.256   0.100E-07
     TRS4 it   4 1.00000000   0.212E+00       0.001       32.256   0.100E-07
     TRS4 it   5 1.00000000   0.700E-01       0.001       32.256   0.100E-07
     TRS4 it   6 1.00000000   0.944E-02       0.001       32.256   0.100E-07
     TRS4 it   7 1.00000000   0.221E-03       0.001       32.256   0.100E-07
     TRS4 it   8 1.00000000   0.172E-06       0.001       32.256   0.100E-07
     TRS4 it   9 1.00000000   0.127E-12       0.001       32.256   0.100E-07
     Final TRS4 iteration    9 1.00000000   0.127E-12
     Chemical potential (mu):       0.00321
 
 PAO| energy:  -7.7399582692195388      penalty:   1.2715089052780760E-005
 PAO|CG| warming up with steepest descent
 PAO|CG| beta:    0.0000000000000000     
 PAO| norm of gradient:  0.41862936633889836     
 PAO| energy improvement: -0.14808051472421102     
 PAO| step      6                   -7.739958269  0.262E-01  0.491E+00     0.094
 PAO|LS| adapt:  T F F
 PAO|LS| adapt: scan_steps:    0.0000000000000000        0.0000000000000000        0.0000000000000000     
 PAO|LS| adapt: energies:   -7.7399582692195388        0.0000000000000000        0.0000000000000000     
 PAO| ======================= Iteration:         7 =============================

     Lanczos converged:  T threshold:   0.100E-02
     Est. extremal eigenvalues:    0.282E+01   0.179E+00
     Est. condition number :    0.158E+02
     NS sqrt iter    1 1.00000000   0.719E+00       0.001       63.210
     NS sqrt iter    2 1.00000000   0.340E+00       0.001      101.771
     NS sqrt iter    3 1.00000000   0.783E-01       0.001      102.764
     NS sqrt iter    4 1.00000000   0.208E-02       0.001      110.592
     NS sqrt iter    5 1.00000000   0.842E-07       0.001       74.624
     Final NS sqrt iter    5 1.00000000   0.981E-09

     Est. extremal eigenvalues     -0.93260     1.66621  converged:  T
     TRS4 it   1 1.00000000   0.861E+00       0.000       16.128   0.100E-07
     TRS4 it   2 1.00000000   0.610E+00       0.001       32.256   0.100E-07
     TRS4 it   3 1.00000000   0.419E+00       0.001       32.256   0.100E-07
     TRS4 it   4 1.00000000   0.216E+00       0.001       32.256   0.100E-07
     TRS4 it   5 1.00000000   0.725E-01       0.001       32.256   0.100E-07
     TRS4 it   6 1.00000000   0.995E-02       0.001       32.256   0.100E-07
     TRS4 it   7 1.00000000   0.237E-03       0.001       32.256   0.100E-07
     TRS4 it   8 1.00000000   0.188E-06       0.001       32.256   0.100E-07
     TRS4 it   9 1.00000000   0.150E-12       0.001       32.256   0.100E-07
     Final TRS4 iteration    9 1.00000000   0.150E-12
     Chemical potential (mu):       0.00378
 
 PAO| energy:  -7.7349734689801268      penalty:   1.9281065029848328E-005
 PAO|LS| adapt:  T F T
 PAO|LS| adapt: scan_steps:    0.0000000000000000        0.0000000000000000       0.49126657273191099     
 PAO|LS| adapt: energies:   -7.7399582692195388        0.0000000000000000       -7.7349734689801268     
 PAO| ======================= Iteration:         8 =============================

     Lanczos converged:  T threshold:   0.100E-02
     Est. extremal eigenvalues:    0.287E+01   0.172E+00
     Est. condition number :    0.167E+02
     NS sqrt iter    1 1.00000000   0.728E+00       0.001       64.512
     NS sqrt iter    2 1.00000000   0.351E+00       0.001      100.407
     NS sqrt iter    3 1.00000000   0.860E-01       0.001       95.785
     NS sqrt iter    4 1.00000000   0.269E-02       0.001      108.985
     NS sqrt iter    5 1.00000000   0.172E-06       0.001       69.366
     Final NS sqrt iter    5 1.00000000   0.106E-08

     Est. extremal eigenvalues     -0.93278     1.66450  converged:  T
     TRS4 it   1 1.00000000   0.858E+00       0.000       16.128   0.100E-07
     TRS4 it   2 1.00000000   0.609E+00       0.001       32.256   0.100E-07
     TRS4 it   3 1.00000000   0.417E+00       0.001       32.256   0.100E-07
     TRS4 it   4 1.00000000   0.214E+00       0.001       32.256   0.100E-07
     TRS4 it   5 1.00000000   0.712E-01       0.001       32.256   0.100E-07
     TRS4 it   6 1.00000000   0.978E-02       0.001       32.256   0.100E-07
     TRS4 it   7 1.00000000   0.237E-03       0.001       32.256   0.100E-07
     TRS4 it   8 1.00000000   0.193E-06       0.001       32.256   0.100E-07
     TRS4 it   9 1.00000000   0.161E-12       0.001       32.256   0.100E-07
     Final TRS4 iteration    9 1.00000000   0.161E-12
     Chemical potential (mu):       0.00285
 
 PAO| energy:  -7.7599654608758826      penalty:   1.3798652807433589E-005
 PAO|LS| adapt:  T T T
 PAO|LS| adapt: scan_steps:    0.0000000000000000       0.24563328636595549       0.49126657273191099     
 PAO|LS| adapt: energies:   -7.7399582692195388       -7.7599654608758826       -7.7349734689801268     
 PAO|LS| adapt: suggested step_size:   0.23202822991790992     
 PAO|LS| adapt: predicted energy  -7.7600344849988367     
 PAO| ======================= Iteration:         9 =============================

     Lanczos converged:  T threshold:   0.100E-02
     Est. extremal eigenvalues:    0.287E+01   0.171E+00
     Est. condition number :    0.168E+02
     NS sqrt iter    1 1.00000000   0.729E+00       0.001       64.512
     NS sqrt iter    2 1.00000000   0.351E+00       0.001       86.528
     NS sqrt iter    3 1.00000000   0.864E-01       0.001      102.291
     NS sqrt iter    4 1.00000000   0.273E-02       0.001       88.210
     NS sqrt iter    5 1.00000000   0.179E-06       0.001       73.268
     Final NS sqrt iter    5 1.00000000   0.110E-08

     Est. extremal eigenvalues     -0.93273     1.66442  converged:  T
     TRS4 it   1 1.00000000   0.858E+00       0.000       16.128   0.100E-07
     TRS4 it   2 1.00000000   0.609E+00       0.001       32.256   0.100E-07
     TRS4 it   3 1.00000000   0.417E+00       0.001       32.256   0.100E-07
     TRS4 it   4 1.00000000   0.214E+00       0.001       32.256   0.100E-07
     TRS4 it   5 1.00000000   0.711E-01       0.001       32.256   0.100E-07
     TRS4 it   6 1.00000000   0.977E-02       0.001       32.256   0.100E-07
     TRS4 it   7 1.00000000   0.236E-03       0.001       32.256   0.100E-07
     TRS4 it   8 1.00000000   0.192E-06       0.001       32.256   0.100E-07
     TRS4 it   9 1.00000000   0.159E-12       0.001       32.256   0.100E-07
     Final TRS4 iteration    9 1.00000000   0.159E-12
     Chemical potential (mu):       0.00283
 
 PAO| energy:  -7.7600563132531111      penalty:   1.3655026109279476E-005
 PAO|CG| trace_G_new    3.8492777404239280E-002
 PAO|CG| trace_G_prev   0.17525054636130755     
 PAO|CG| trace_G_mix   -1.5663426454414187E-003
 PAO|CG| trace_D   0.17525054636130755     
 PAO|CG| trace_D_Gnew   1.5663426454414187E-003
 PAO|CG| beta:   0.22858199806745425     
 PAO| norm of gradient:  0.19619576296199490     
 PAO| energy improvement:  -2.0098044033572293E-002
 PAO| step      9                   -7.760056313  0.123E-01  0.232E+00     0.058
 PAO|LS| adapt:  T F F
 PAO|LS| adapt: scan_steps:    0.0000000000000000        0.0000000000000000        0.0000000000000000     
 PAO|LS| adapt: energies:   -7.7600563132531111        0.0000000000000000        0.0000000000000000     
 PAO| ======================= Iteration:        10 =============================

     Lanczos converged:  T threshold:   0.100E-02
     Est. extremal eigenvalues:    0.283E+01   0.177E+00
     Est. condition number :    0.160E+02
     NS sqrt iter    1 1.00000000   0.720E+00       0.002       41.477
     NS sqrt iter    2 1.00000000   0.342E+00       0.002       66.654
     NS sqrt iter    3 1.00000000   0.806E-01       0.001       82.385
     NS sqrt iter    4 1.00000000   0.224E-02       0.001      110.592
     NS sqrt iter    5 1.00000000   0.101E-06       0.001       75.392
     Final NS sqrt iter    5 1.00000000   0.104E-08

     Est. extremal eigenvalues     -0.93368     1.66895  converged:  T
     TRS4 it   1 1.00000000   0.860E+00       0.000       16.128   0.100E-07
     TRS4 it   2 1.00000000   0.610E+00       0.001       32.256   0.100E-07
     TRS4 it   3 1.00000000   0.417E+00       0.001       32.256   0.100E-07
     TRS4 it   4 1.00000000   0.213E+00       0.001       32.256   0.100E-07
     TRS4 it   5 1.00000000   0.701E-01       0.001       32.256   0.100E-07
     TRS4 it   6 1.00000000   0.943E-02       0.001       32.256   0.100E-07
     TRS4 it   7 1.00000000   0.217E-03       0.001       32.256   0.100E-07
     TRS4 it   8 1.00000000   0.158E-06       0.001       32.256   0.100E-07
     TRS4 it   9 1.00000000   0.106E-12       0.001       32.256   0.100E-07
     Final TRS4 iteration    9 1.00000000   0.106E-12
     Chemical potential (mu):       0.00573
 
 PAO| energy:  -7.7653530544377141      penalty:   1.4249968115471885E-005
 PAO|LS| adapt:  T T F
 PAO|LS| adapt: scan_steps:    0.0000000000000000       0.23202822991790992        0.0000000000000000     
 PAO|LS| adapt: energies:   -7.7600563132531111       -7.7653530544377141        0.0000000000000000     
 PAO| ======================= Iteration:        11 =============================

     Lanczos converged:  T threshold:   0.100E-02
     Est. extremal eigenvalues:    0.279E+01   0.182E+00
     Est. condition number :    0.153E+02
     NS sqrt iter    1 1.00000000   0.712E+00       0.001       64.051
     NS sqrt iter    2 1.00000000   0.333E+00       0.001      102.408
     NS sqrt iter    3 1.00000000   0.751E-01       0.001       97.395
     NS sqrt iter    4 1.00000000   0.183E-02       0.001      109.310
     NS sqrt iter    5 1.00000000   0.563E-07       0.001       65.201
     Final NS sqrt iter    5 1.00000000   0.466E-09

     Est. extremal eigenvalues     -0.93361     1.67455  converged:  T
     TRS4 it   1 1.00000000   0.861E+00       0.000       16.128   0.100E-07
     TRS4 it   2 1.00000000   0.611E+00       0.001       32.256   0.100E-07
     TRS4 it   3 1.00000000   0.417E+00       0.001       32.256   0.100E-07
     TRS4 it   4 1.00000000   0.212E+00       0.001       32.256   0.100E-07
     TRS4 it   5 1.00000000   0.692E-01       0.001       32.256   0.100E-07
     TRS4 it   6 1.00000000   0.912E-02       0.001       32.256   0.100E-07
     TRS4 it   7 1.00000000   0.200E-03       0.001       32.256   0.100E-07
     TRS4 it   8 1.00000000   0.130E-06       0.001       32.256   0.100E-07
     TRS4 it   9 1.00000000   0.699E-13       0.001       30.071   0.100E-07
     Final TRS4 iteration    9 1.00000000   0.699E-13
     Chemical potential (mu):       0.00868
 
 PAO| energy:  -7.7638109644099806      penalty:   1.5587269278111756E-005
 PAO|LS| adapt:  T T T
 PAO|LS| adapt: scan_steps:    0.0000000000000000       0.23202822991790992       0.46405645983581983     
 PAO|LS| adapt: energies:   -7.7600563132531111       -7.7653530544377141       -7.7638109644099806     
 PAO|LS| adapt: suggested step_size:   0.29572223221439647     
 PAO|LS| adapt: predicted energy  -7.7656107264885383     
 PAO| ======================= Iteration:        12 =============================

     Lanczos converged:  T threshold:   0.100E-02
     Est. extremal eigenvalues:    0.282E+01   0.178E+00
     Est. condition number :    0.158E+02
     NS sqrt iter    1 1.00000000   0.718E+00       0.001       63.307
     NS sqrt iter    2 1.00000000   0.340E+00       0.001      110.165
     NS sqrt iter    3 1.00000000   0.791E-01       0.001      100.471
     NS sqrt iter    4 1.00000000   0.212E-02       0.001      107.308
     NS sqrt iter    5 1.00000000   0.862E-07       0.001       74.112
     Final NS sqrt iter    5 1.00000000   0.874E-09

     Est. extremal eigenvalues     -0.93376     1.67039  converged:  T
     TRS4 it   1 1.00000000   0.860E+00       0.000       16.128   0.100E-07
     TRS4 it   2 1.00000000   0.610E+00       0.001       32.256   0.100E-07
     TRS4 it   3 1.00000000   0.417E+00       0.001       32.256   0.100E-07
     TRS4 it   4 1.00000000   0.213E+00       0.001       32.256   0.100E-07
     TRS4 it   5 1.00000000   0.698E-01       0.001       32.256   0.100E-07
     TRS4 it   6 1.00000000   0.934E-02       0.002       21.189   0.100E-07
     TRS4 it   7 1.00000000   0.212E-03       0.001       23.582   0.100E-07
     TRS4 it   8 1.00000000   0.150E-06       0.001       32.256   0.100E-07
     TRS4 it   9 1.00000000   0.944E-13       0.001       32.256   0.100E-07
     Final TRS4 iteration    9 1.00000000   0.944E-13
     Chemical potential (mu):       0.00654
 
 PAO| energy:  -7.7655935559515239      penalty:   1.4534465754615019E-005
 PAO|CG| trace_G_new    1.2968545969983538E-002
 PAO|CG| trace_G_prev    3.8492777404239280E-002
 PAO|CG| trace_G_mix   -5.2557289122875050E-004
 PAO|CG| trace_D    4.6933495642912770E-002
 PAO|CG| trace_D_Gnew   2.2669502719974816E-004
 PAO|CG| beta:   0.35056235925771767     
 PAO| norm of gradient:  0.11387952392762950     
 PAO| energy improvement:  -5.5372426984128253E-003
 PAO| step     12                   -7.765593556  0.712E-02  0.296E+00     0.061
 PAO|LS| adapt:  T F F
 PAO|LS| adapt: scan_steps:    0.0000000000000000        0.0000000000000000        0.0000000000000000     
 PAO|LS| adapt: energies:   -7.7655935559515239        0.0000000000000000        0.0000000000000000     
 PAO| ======================= Iteration:        13 =============================

     Lanczos converged:  T threshold:   0.100E-02
     Est. extremal eigenvalues:    0.278E+01   0.183E+00
     Est. condition number :    0.152E+02
     NS sqrt iter    1 1.00000000   0.710E+00       0.001       64.512
     NS sqrt iter    2 1.00000000   0.332E+00       0.001      110.592
     NS sqrt iter    3 1.00000000   0.744E-01       0.001       94.107
     NS sqrt iter    4 1.00000000   0.177E-02       0.001       91.435
     NS sqrt iter    5 1.00000000   0.511E-07       0.001       69.632
     Final NS sqrt iter    5 1.00000000   0.397E-09

     Est. extremal eigenvalues     -0.93436     1.66406  converged:  T
     TRS4 it   1 1.00000000   0.860E+00       0.000       16.128   0.100E-07
     TRS4 it   2 1.00000000   0.607E+00       0.001       32.256   0.100E-07
     TRS4 it   3 1.00000000   0.413E+00       0.001       32.256   0.100E-07
     TRS4 it   4 1.00000000   0.208E+00       0.001       32.256   0.100E-07
     TRS4 it   5 1.00000000   0.662E-01       0.001       32.256   0.100E-07
     TRS4 it   6 1.00000000   0.834E-02       0.001       32.256   0.100E-07
     TRS4 it   7 1.00000000   0.167E-03       0.001       32.256   0.100E-07
     TRS4 it   8 1.00000000   0.908E-07       0.001       32.256   0.100E-07
     TRS4 it   9 1.00000000   0.335E-13       0.001       32.256   0.100E-07
     Final TRS4 iteration    9 1.00000000   0.335E-13
     Chemical potential (mu):       0.01101
 
 PAO| energy:  -7.7679006082494997      penalty:   1.4947199452012749E-005
 PAO|LS| adapt:  T T F
 PAO|LS| adapt: scan_steps:    0.0000000000000000       0.29572223221439647        0.0000000000000000     
 PAO|LS| adapt: energies:   -7.7655935559515239       -7.7679006082494997        0.0000000000000000     
 PAO| ======================= Iteration:        14 =============================

     Lanczos converged:  T threshold:   0.100E-02
     Est. extremal eigenvalues:    0.274E+01   0.187E+00
     Est. condition number :    0.146E+02
     NS sqrt iter    1 1.00000000   0.702E+00       0.001       58.443
     NS sqrt iter    2 1.00000000   0.325E+00       0.001       90.090
     NS sqrt iter    3 1.00000000   0.700E-01       0.001      110.592
     NS sqrt iter    4 1.00000000   0.148E-02       0.002       66.601
     NS sqrt iter    5 1.00000000   0.300E-07       0.001       50.663
     Final NS sqrt iter    5 1.00000000   0.279E-08

     Est. extremal eigenvalues     -0.93435     1.65801  converged:  T
     TRS4 it   1 1.00000000   0.859E+00       0.000       16.128   0.100E-07
     TRS4 it   2 1.00000000   0.604E+00       0.001       32.256   0.100E-07
     TRS4 it   3 1.00000000   0.408E+00       0.001       32.256   0.100E-07
     TRS4 it   4 1.00000000   0.203E+00       0.001       32.256   0.100E-07
     TRS4 it   5 1.00000000   0.627E-01       0.001       32.256   0.100E-07
     TRS4 it   6 1.00000000   0.745E-02       0.001       32.256   0.100E-07
     TRS4 it   7 1.00000000   0.132E-03       0.001       32.256   0.100E-07
     TRS4 it   8 1.00000000   0.555E-07       0.001       32.256   0.100E-07
     Final TRS4 iteration    8 1.00000000   0.555E-07
     Chemical potential (mu):       0.01227
 
 PAO| energy:  -7.7672535460704575      penalty:   1.5919746703934122E-005
 PAO|LS| adapt:  T T T
 PAO|LS| adapt: scan_steps:    0.0000000000000000       0.29572223221439647       0.59144446442879295     
 PAO|LS| adapt: energies:   -7.7655935559515239       -7.7679006082494997       -7.7672535460704575     
 PAO|LS| adapt: suggested step_size:   0.37880905692005462     
 PAO|LS| adapt: predicted energy  -7.7680172069466922     
 PAO| ======================= Iteration:        15 =============================

     Lanczos converged:  T threshold:   0.100E-02
     Est. extremal eigenvalues:    0.277E+01   0.184E+00
     Est. condition number :    0.150E+02
     NS sqrt iter    1 1.00000000   0.708E+00       0.001       64.512
     NS sqrt iter    2 1.00000000   0.330E+00       0.002       61.922
     NS sqrt iter    3 1.00000000   0.731E-01       0.001       92.503
     NS sqrt iter    4 1.00000000   0.169E-02       0.001      102.431
     NS sqrt iter    5 1.00000000   0.441E-07       0.001       62.188
     Final NS sqrt iter    5 1.00000000   0.386E-09

     Est. extremal eigenvalues     -0.93441     1.66233  converged:  T
     TRS4 it   1 1.00000000   0.859E+00       0.000       16.128   0.100E-07
     TRS4 it   2 1.00000000   0.606E+00       0.001       32.256   0.100E-07
     TRS4 it   3 1.00000000   0.411E+00       0.001       32.256   0.100E-07
     TRS4 it   4 1.00000000   0.206E+00       0.001       32.256   0.100E-07
     TRS4 it   5 1.00000000   0.652E-01       0.001       32.256   0.100E-07
     TRS4 it   6 1.00000000   0.808E-02       0.001       32.256   0.100E-07
     TRS4 it   7 1.00000000   0.156E-03       0.001       32.256   0.100E-07
     TRS4 it   8 1.00000000   0.790E-07       0.001       32.256   0.100E-07
     Final TRS4 iteration    8 1.00000000   0.790E-07
     Chemical potential (mu):       0.00949
 
 PAO| energy:  -7.7680135188332038      penalty:   1.5159776266115393E-005
 PAO|CG| trace_G_new    2.7632605933666128E-003
 PAO|CG| trace_G_prev    1.2968545969983538E-002
 PAO|CG| trace_G_mix    8.2647064201468967E-005
 PAO|CG| trace_D    1.8577447981767442E-002
 PAO|CG| trace_D_Gnew   3.5694035191214384E-005
 PAO|CG| beta:   0.20670116259521934     
 PAO| norm of gradient:   5.2566725153528567E-002
 PAO| energy improvement:  -2.4199628816798935E-003
 PAO| step     15                   -7.768013519  0.329E-02  0.379E+00     0.058
 PAO|LS| adapt:  T F F
 PAO|LS| adapt: scan_steps:    0.0000000000000000        0.0000000000000000        0.0000000000000000     
 PAO|LS| adapt: energies:   -7.7680135188332038        0.0000000000000000        0.0000000000000000     
 PAO| ======================= Iteration:        16 =============================

     Lanczos converged:  T threshold:   0.100E-02
     Est. extremal eigenvalues:    0.276E+01   0.185E+00
     Est. condition number :    0.149E+02
     NS sqrt iter    1 1.00000000   0.706E+00       0.001       63.168
     NS sqrt iter    2 1.00000000   0.329E+00       0.001      102.698
     NS sqrt iter    3 1.00000000   0.725E-01       0.001      100.490
     NS sqrt iter    4 1.00000000   0.163E-02       0.001      110.592
     NS sqrt iter    5 1.00000000   0.395E-07       0.001       63.773
     Final NS sqrt iter    5 1.00000000   0.476E-08

     Est. extremal eigenvalues     -0.93445     1.66143  converged:  T
     TRS4 it   1 1.00000000   0.859E+00       0.001       16.128   0.100E-07
     TRS4 it   2 1.00000000   0.605E+00       0.001       32.256   0.100E-07
     TRS4 it   3 1.00000000   0.410E+00       0.001       32.256   0.100E-07
     TRS4 it   4 1.00000000   0.204E+00       0.001       32.256   0.100E-07
     TRS4 it   5 1.00000000   0.640E-01       0.001       32.256   0.100E-07
     TRS4 it   6 1.00000000   0.781E-02       0.001       32.256   0.100E-07
     TRS4 it   7 1.00000000   0.147E-03       0.001       32.256   0.100E-07
     TRS4 it   8 1.00000000   0.699E-07       0.001       32.256   0.100E-07
     Final TRS4 iteration    8 1.00000000   0.699E-07
     Chemical potential (mu):       0.01049
 
 PAO| energy:  -7.7681174157438102      penalty:   1.4978918949639385E-005
 PAO|LS| adapt:  T T F
 PAO|LS| adapt: scan_steps:    0.0000000000000000       0.37880905692005462        0.0000000000000000     
 PAO|LS| adapt: energies:   -7.7680135188332038       -7.7681174157438102        0.0000000000000000     
 PAO| ======================= Iteration:        17 =============================

     Lanczos converged:  T threshold:   0.100E-02
     Est. extremal eigenvalues:    0.275E+01   0.186E+00
     Est. condition number :    0.148E+02
     NS sqrt iter    1 1.00000000   0.704E+00       0.001       59.598
     NS sqrt iter    2 1.00000000   0.328E+00       0.001      110.592
     NS sqrt iter    3 1.00000000   0.718E-01       0.001       95.887
     NS sqrt iter    4 1.00000000   0.158E-02       0.001      104.656
     NS sqrt iter    5 1.00000000   0.356E-07       0.001       64.000
     Final NS sqrt iter    5 1.00000000   0.439E-08

     Est. extremal eigenvalues     -0.93437     1.66061  converged:  T
     TRS4 it   1 1.00000000   0.860E+00       0.000       16.128   0.100E-07
     TRS4 it   2 1.00000000   0.604E+00       0.001       32.256   0.100E-07
     TRS4 it   3 1.00000000   0.408E+00       0.001       32.256   0.100E-07
     TRS4 it   4 1.00000000   0.203E+00       0.001       31.486   0.100E-07
     TRS4 it   5 1.00000000   0.629E-01       0.001       32.256   0.100E-07
     TRS4 it   6 1.00000000   0.754E-02       0.001       32.256   0.100E-07
     TRS4 it   7 1.00000000   0.137E-03       0.001       32.256   0.100E-07
     TRS4 it   8 1.00000000   0.620E-07       0.001       32.256   0.100E-07
     Final TRS4 iteration    8 1.00000000   0.620E-07
     Chemical potential (mu):       0.01149
 
 PAO| energy:  -7.7663333408563284      penalty:   1.4933495334399248E-005
 PAO|LS| adapt:  T T T
 PAO|LS| adapt: scan_steps:    0.0000000000000000       0.37880905692005462       0.75761811384010924     
 PAO|LS| adapt: energies:   -7.7680135188332038       -7.7681174157438102       -7.7663333408563284     
 PAO|LS| adapt: suggested step_size:   0.21025075654647307     
 PAO|LS| adapt: predicted energy  -7.7683043225369115     
 PAO| ======================= Iteration:        18 =============================

     Lanczos converged:  T threshold:   0.100E-02
     Est. extremal eigenvalues:    0.276E+01   0.185E+00
     Est. condition number :    0.150E+02
     NS sqrt iter    1 1.00000000   0.707E+00       0.001       63.035
     NS sqrt iter    2 1.00000000   0.329E+00       0.001      108.028
     NS sqrt iter    3 1.00000000   0.728E-01       0.001      110.592
     NS sqrt iter    4 1.00000000   0.166E-02       0.001      110.592
     NS sqrt iter    5 1.00000000   0.415E-07       0.001       55.200
     Final NS sqrt iter    5 1.00000000   0.328E-08

     Est. extremal eigenvalues     -0.93445     1.66182  converged:  T
     TRS4 it   1 1.00000000   0.859E+00       0.000       16.128   0.100E-07
     TRS4 it   2 1.00000000   0.605E+00       0.001       32.256   0.100E-07
     TRS4 it   3 1.00000000   0.411E+00       0.001       32.256   0.100E-07
     TRS4 it   4 1.00000000   0.205E+00       0.001       32.256   0.100E-07
     TRS4 it   5 1.00000000   0.645E-01       0.001       32.256   0.100E-07
     TRS4 it   6 1.00000000   0.793E-02       0.001       32.256   0.100E-07
     TRS4 it   7 1.00000000   0.151E-03       0.001       29.039   0.100E-07
     TRS4 it   8 1.00000000   0.738E-07       0.001       31.636   0.100E-07
     Final TRS4 iteration    8 1.00000000   0.738E-07
     Chemical potential (mu):       0.01005
 
 PAO| energy:  -7.7683036530200278      penalty:   1.5042997143849608E-005
 PAO|CG| trace_G_new    7.6385778112298460E-004
 PAO|CG| trace_G_prev    2.7632605933666128E-003
 PAO|CG| trace_G_mix    2.3480308048162032E-006
 PAO|CG| trace_D    3.5422329463847650E-003
 PAO|CG| trace_D_Gnew  -2.1240230902157851E-006
 PAO|CG| beta:   0.27558376222142139     
 PAO| norm of gradient:   2.7637977153239426E-002
 PAO| energy improvement:  -2.9013418682399816E-004
 PAO| step     18                   -7.768303653  0.173E-02  0.210E+00     0.058
 PAO|LS| adapt:  T F F
 PAO|LS| adapt: scan_steps:    0.0000000000000000        0.0000000000000000        0.0000000000000000     
 PAO|LS| adapt: energies:   -7.7683036530200278        0.0000000000000000        0.0000000000000000     
 PAO| ======================= Iteration:        19 =============================

     Lanczos converged:  T threshold:   0.100E-02
     Est. extremal eigenvalues:    0.276E+01   0.184E+00
     Est. condition number :    0.150E+02
     NS sqrt iter    1 1.00000000   0.707E+00       0.001       62.537
     NS sqrt iter    2 1.00000000   0.330E+00       0.001      108.714
     NS sqrt iter    3 1.00000000   0.730E-01       0.001       95.069
     NS sqrt iter    4 1.00000000   0.166E-02       0.002       62.975
     NS sqrt iter    5 1.00000000   0.420E-07       0.001       64.730
     Final NS sqrt iter    5 1.00000000   0.378E-09

     Est. extremal eigenvalues     -0.93445     1.66196  converged:  T
     TRS4 it   1 1.00000000   0.859E+00       0.000       16.128   0.100E-07
     TRS4 it   2 1.00000000   0.605E+00       0.001       32.256   0.100E-07
     TRS4 it   3 1.00000000   0.410E+00       0.001       32.256   0.100E-07
     TRS4 it   4 1.00000000   0.205E+00       0.001       32.256   0.100E-07
     TRS4 it   5 1.00000000   0.644E-01       0.001       32.256   0.100E-07
     TRS4 it   6 1.00000000   0.792E-02       0.001       32.256   0.100E-07
     TRS4 it   7 1.00000000   0.151E-03       0.001       32.256   0.100E-07
     TRS4 it   8 1.00000000   0.744E-07       0.001       32.256   0.100E-07
     Final TRS4 iteration    8 1.00000000   0.744E-07
     Chemical potential (mu):       0.00997
 
 PAO| energy:  -7.7684270612233570      penalty:   1.4764422113946393E-005
 PAO|LS| adapt:  T T F
 PAO|LS| adapt: scan_steps:    0.0000000000000000       0.21025075654647307        0.0000000000000000     
 PAO|LS| adapt: energies:   -7.7683036530200278       -7.7684270612233570        0.0000000000000000     
 PAO| ======================= Iteration:        20 =============================

     Lanczos converged:  T threshold:   0.100E-02
     Est. extremal eigenvalues:    0.276E+01   0.184E+00
     Est. condition number :    0.150E+02
     NS sqrt iter    1 1.00000000   0.707E+00       0.001       64.512
     NS sqrt iter    2 1.00000000   0.330E+00       0.001      103.777
     NS sqrt iter    3 1.00000000   0.732E-01       0.001      107.306
     NS sqrt iter    4 1.00000000   0.167E-02       0.001       74.238
     NS sqrt iter    5 1.00000000   0.424E-07       0.003       23.881
     Final NS sqrt iter    5 1.00000000   0.384E-09

     Est. extremal eigenvalues     -0.93445     1.66210  converged:  T
     TRS4 it   1 1.00000000   0.859E+00       0.000       16.128   0.100E-07
     TRS4 it   2 1.00000000   0.605E+00       0.001       32.256   0.100E-07
     TRS4 it   3 1.00000000   0.410E+00       0.001       32.256   0.100E-07
     TRS4 it   4 1.00000000   0.205E+00       0.001       32.256   0.100E-07
     TRS4 it   5 1.00000000   0.643E-01       0.001       32.256   0.100E-07
     TRS4 it   6 1.00000000   0.791E-02       0.001       32.256   0.100E-07
     TRS4 it   7 1.00000000   0.151E-03       0.001       32.256   0.100E-07
     TRS4 it   8 1.00000000   0.751E-07       0.001       32.256   0.100E-07
     Final TRS4 iteration    8 1.00000000   0.751E-07
     Chemical potential (mu):       0.00988
 
 PAO| energy:  -7.7684753996157108      penalty:   1.4497775429479559E-005
 PAO|LS| adapt:  T T F
 PAO|LS| adapt: scan_steps:    0.0000000000000000       0.42050151309294614        0.0000000000000000     
 PAO|LS| adapt: energies:   -7.7683036530200278       -7.7684753996157108        0.0000000000000000     
 PAO| ======================= Iteration:        21 =============================

     Lanczos converged:  T threshold:   0.100E-02
     Est. extremal eigenvalues:    0.276E+01   0.184E+00
     Est. condition number :    0.150E+02
     NS sqrt iter    1 1.00000000   0.707E+00       0.001       43.411
     NS sqrt iter    2 1.00000000   0.331E+00       0.001      110.047
     NS sqrt iter    3 1.00000000   0.737E-01       0.001      103.650
     NS sqrt iter    4 1.00000000   0.170E-02       0.001      110.592
     NS sqrt iter    5 1.00000000   0.434E-07       0.001       67.003
     Final NS sqrt iter    5 1.00000000   0.396E-09

     Est. extremal eigenvalues     -0.93444     1.66238  converged:  T
     TRS4 it   1 1.00000000   0.859E+00       0.000       16.128   0.100E-07
     TRS4 it   2 1.00000000   0.605E+00       0.001       32.256   0.100E-07
     TRS4 it   3 1.00000000   0.410E+00       0.001       32.256   0.100E-07
     TRS4 it   4 1.00000000   0.204E+00       0.001       32.256   0.100E-07
     TRS4 it   5 1.00000000   0.642E-01       0.001       32.256   0.100E-07
     TRS4 it   6 1.00000000   0.789E-02       0.001       32.256   0.100E-07
     TRS4 it   7 1.00000000   0.152E-03       0.001       32.256   0.100E-07
     TRS4 it   8 1.00000000   0.764E-07       0.001       32.256   0.100E-07
     Final TRS4 iteration    8 1.00000000   0.764E-07
     Chemical potential (mu):       0.00968
 
 PAO| energy:  -7.7683441946263923      penalty:   1.3999813659910567E-005
 PAO|LS| Need extra step
 PAO|LS| adapt:  T T T
 PAO|LS| adapt: scan_steps:    0.0000000000000000       0.42050151309294614       0.84100302618589229     
 PAO|LS| adapt: energies:   -7.7683036530200278       -7.7684753996157108       -7.7683441946263923     
 PAO|LS| adapt: suggested step_size:   0.44863770326899682     
 PAO|LS| adapt: predicted energy  -7.7684760777858921     
 PAO| ======================= Iteration:        22 =============================

     Lanczos converged:  T threshold:   0.100E-02
     Est. extremal eigenvalues:    0.276E+01   0.184E+00
     Est. condition number :    0.150E+02
     NS sqrt iter    1 1.00000000   0.707E+00       0.001       56.894
     NS sqrt iter    2 1.00000000   0.330E+00       0.001       82.299
     NS sqrt iter    3 1.00000000   0.733E-01       0.001       76.314
     NS sqrt iter    4 1.00000000   0.168E-02       0.001      102.472
     NS sqrt iter    5 1.00000000   0.425E-07       0.001       68.224
     Final NS sqrt iter    5 1.00000000   0.385E-09

     Est. extremal eigenvalues     -0.93445     1.66211  converged:  T
     TRS4 it   1 1.00000000   0.859E+00       0.000       16.128   0.100E-07
     TRS4 it   2 1.00000000   0.605E+00       0.001       32.256   0.100E-07
     TRS4 it   3 1.00000000   0.410E+00       0.001       32.256   0.100E-07
     TRS4 it   4 1.00000000   0.205E+00       0.001       32.256   0.100E-07
     TRS4 it   5 1.00000000   0.643E-01       0.001       32.256   0.100E-07
     TRS4 it   6 1.00000000   0.791E-02       0.001       32.256   0.100E-07
     TRS4 it   7 1.00000000   0.151E-03       0.001       32.256   0.100E-07
     TRS4 it   8 1.00000000   0.751E-07       0.001       32.256   0.100E-07
     Final TRS4 iteration    8 1.00000000   0.751E-07
     Chemical potential (mu):       0.00986
 
 PAO| energy:  -7.7684761371098636      penalty:   1.4462989155209689E-005
 PAO|CG| trace_G_new    2.3588395481889731E-004
 PAO|CG| trace_G_prev    7.6385778112298460E-004
 PAO|CG| trace_G_mix    3.6755975627885672E-006
 PAO|CG| trace_D    1.0340483493335236E-003
 PAO|CG| trace_D_Gnew  -2.0956250661577048E-006
 PAO|CG| beta:   0.30399422902353351     
 PAO| norm of gradient:   1.5358514082387573E-002
 PAO| energy improvement:  -1.7248408983583374E-004
 PAO| step     22                   -7.768476137  0.960E-03  0.449E+00     0.077
 PAO|LS| adapt:  T F F
 PAO|LS| adapt: scan_steps:    0.0000000000000000        0.0000000000000000        0.0000000000000000     
 PAO|LS| adapt: energies:   -7.7684761371098636        0.0000000000000000        0.0000000000000000     
 PAO| ======================= Iteration:        23 =============================

     Lanczos converged:  T threshold:   0.100E-02
     Est. extremal eigenvalues:    0.276E+01   0.184E+00
     Est. condition number :    0.150E+02
     NS sqrt iter    1 1.00000000   0.707E+00       0.001       54.987
     NS sqrt iter    2 1.00000000   0.330E+00       0.001      108.738
     NS sqrt iter    3 1.00000000   0.733E-01       0.001       97.781
     NS sqrt iter    4 1.00000000   0.168E-02       0.001      103.658
     NS sqrt iter    5 1.00000000   0.427E-07       0.001       67.113
     Final NS sqrt iter    5 1.00000000   0.388E-09

     Est. extremal eigenvalues     -0.93445     1.66237  converged:  T
     TRS4 it   1 1.00000000   0.860E+00       0.000       16.128   0.100E-07
     TRS4 it   2 1.00000000   0.605E+00       0.001       32.256   0.100E-07
     TRS4 it   3 1.00000000   0.410E+00       0.001       32.256   0.100E-07
     TRS4 it   4 1.00000000   0.205E+00       0.001       32.256   0.100E-07
     TRS4 it   5 1.00000000   0.645E-01       0.001       32.256   0.100E-07
     TRS4 it   6 1.00000000   0.796E-02       0.001       32.256   0.100E-07
     TRS4 it   7 1.00000000   0.153E-03       0.001       32.256   0.100E-07
     TRS4 it   8 1.00000000   0.773E-07       0.001       32.256   0.100E-07
     Final TRS4 iteration    8 1.00000000   0.773E-07
     Chemical potential (mu):       0.00961
 
 PAO| energy:  -7.7685201056298689      penalty:   1.3780020475065110E-005
 PAO|LS| adapt:  T T F
 PAO|LS| adapt: scan_steps:    0.0000000000000000       0.44863770326899682        0.0000000000000000     
 PAO|LS| adapt: energies:   -7.7684761371098636       -7.7685201056298689        0.0000000000000000     
 PAO| ======================= Iteration:        24 =============================

     Lanczos converged:  T threshold:   0.100E-02
     Est. extremal eigenvalues:    0.276E+01   0.184E+00
     Est. condition number :    0.150E+02
     NS sqrt iter    1 1.00000000   0.707E+00       0.001       56.834
     NS sqrt iter    2 1.00000000   0.330E+00       0.001      110.213
     NS sqrt iter    3 1.00000000   0.733E-01       0.001      110.592
     NS sqrt iter    4 1.00000000   0.168E-02       0.002       72.943
     NS sqrt iter    5 1.00000000   0.429E-07       0.001       64.487
     Final NS sqrt iter    5 1.00000000   0.391E-09

     Est. extremal eigenvalues     -0.93444     1.66263  converged:  T
     TRS4 it   1 1.00000000   0.860E+00       0.000       16.128   0.100E-07
     TRS4 it   2 1.00000000   0.606E+00       0.001       32.256   0.100E-07
     TRS4 it   3 1.00000000   0.411E+00       0.001       32.256   0.100E-07
     TRS4 it   4 1.00000000   0.205E+00       0.001       32.256   0.100E-07
     TRS4 it   5 1.00000000   0.647E-01       0.001       22.611   0.100E-07
     TRS4 it   6 1.00000000   0.801E-02       0.001       23.986   0.100E-07
     TRS4 it   7 1.00000000   0.156E-03       0.001       23.925   0.100E-07
     TRS4 it   8 1.00000000   0.796E-07       0.001       32.256   0.100E-07
     Final TRS4 iteration    8 1.00000000   0.796E-07
     Chemical potential (mu):       0.00936
 
 PAO| energy:  -7.7684390912682222      penalty:   1.3125370753273438E-005
 PAO|LS| adapt:  T T T
 PAO|LS| adapt: scan_steps:    0.0000000000000000       0.44863770326899682       0.89727540653799365     
 PAO|LS| adapt: energies:   -7.7684761371098636       -7.7685201056298689       -7.7684390912682222     
 PAO|LS| adapt: suggested step_size:   0.38214795247277489     
 PAO|LS| adapt: predicted energy  -7.7685214782122216     
 PAO| ======================= Iteration:        25 =============================

     Lanczos converged:  T threshold:   0.100E-02
     Est. extremal eigenvalues:    0.276E+01   0.184E+00
     Est. condition number :    0.150E+02
     NS sqrt iter    1 1.00000000   0.707E+00       0.001       64.512
     NS sqrt iter    2 1.00000000   0.330E+00       0.001       93.416
     NS sqrt iter    3 1.00000000   0.733E-01       0.001      110.592
     NS sqrt iter    4 1.00000000   0.168E-02       0.001      110.592
     NS sqrt iter    5 1.00000000   0.426E-07       0.001       68.224
     Final NS sqrt iter    5 1.00000000   0.388E-09

     Est. extremal eigenvalues     -0.93445     1.66234  converged:  T
     TRS4 it   1 1.00000000   0.860E+00       0.001       16.128   0.100E-07
     TRS4 it   2 1.00000000   0.605E+00       0.001       32.256   0.100E-07
     TRS4 it   3 1.00000000   0.410E+00       0.001       32.256   0.100E-07
     TRS4 it   4 1.00000000   0.205E+00       0.001       32.256   0.100E-07
     TRS4 it   5 1.00000000   0.645E-01       0.001       32.256   0.100E-07
     TRS4 it   6 1.00000000   0.795E-02       0.001       32.256   0.100E-07
     TRS4 it   7 1.00000000   0.153E-03       0.001       32.256   0.100E-07
     TRS4 it   8 1.00000000   0.770E-07       0.001       32.256   0.100E-07
     Final TRS4 iteration    8 1.00000000   0.770E-07
     Chemical potential (mu):       0.00965
 
 PAO| energy:  -7.7685214519173602      penalty:   1.3879437551949763E-005
 PAO|CG| trace_G_new    7.9669104165714397E-005
 PAO|CG| trace_G_prev    2.3588395481889731E-004
 PAO|CG| trace_G_mix    5.3310640556463076E-007
 PAO|CG| trace_D    3.3271705473699738E-004
 PAO|CG| trace_D_Gnew  -3.6934438343671808E-007
 PAO|CG| beta:   0.33548698901927160     
 PAO| norm of gradient:   8.9257551033912180E-003
 PAO| energy improvement:  -4.5314807496588116E-005
 PAO| step     25                   -7.768521452  0.558E-03  0.382E+00     0.058
 PAO|LS| adapt:  T F F
 PAO|LS| adapt: scan_steps:    0.0000000000000000        0.0000000000000000        0.0000000000000000     
 PAO|LS| adapt: energies:   -7.7685214519173602        0.0000000000000000        0.0000000000000000     
 PAO| ======================= Iteration:        26 =============================

     Lanczos converged:  T threshold:   0.100E-02
     Est. extremal eigenvalues:    0.276E+01   0.184E+00
     Est. condition number :    0.150E+02
     NS sqrt iter    1 1.00000000   0.706E+00       0.001       64.512
     NS sqrt iter    2 1.00000000   0.330E+00       0.001       89.089
     NS sqrt iter    3 1.00000000   0.732E-01       0.001      100.013
     NS sqrt iter    4 1.00000000   0.167E-02       0.002       68.968
     NS sqrt iter    5 1.00000000   0.425E-07       0.001       51.986
     Final NS sqrt iter    5 1.00000000   0.386E-09

     Est. extremal eigenvalues     -0.93445     1.66231  converged:  T
     TRS4 it   1 1.00000000   0.860E+00       0.001       16.128   0.100E-07
     TRS4 it   2 1.00000000   0.605E+00       0.001       32.256   0.100E-07
     TRS4 it   3 1.00000000   0.410E+00       0.001       32.256   0.100E-07
     TRS4 it   4 1.00000000   0.205E+00       0.001       32.256   0.100E-07
     TRS4 it   5 1.00000000   0.645E-01       0.001       32.256   0.100E-07
     TRS4 it   6 1.00000000   0.795E-02       0.001       32.256   0.100E-07
     TRS4 it   7 1.00000000   0.153E-03       0.001       32.256   0.100E-07
     TRS4 it   8 1.00000000   0.768E-07       0.001       32.256   0.100E-07
     Final TRS4 iteration    8 1.00000000   0.768E-07
     Chemical potential (mu):       0.00965
 
 PAO| energy:  -7.7685303032894497      penalty:   1.3263109106710703E-005
 PAO|LS| adapt:  T T F
 PAO|LS| adapt: scan_steps:    0.0000000000000000       0.38214795247277489        0.0000000000000000     
 PAO|LS| adapt: energies:   -7.7685214519173602       -7.7685303032894497        0.0000000000000000     
 PAO| ======================= Iteration:        27 =============================

     Lanczos converged:  T threshold:   0.100E-02
     Est. extremal eigenvalues:    0.276E+01   0.184E+00
     Est. condition number :    0.150E+02
     NS sqrt iter    1 1.00000000   0.706E+00       0.001       64.512
     NS sqrt iter    2 1.00000000   0.330E+00       0.001       85.436
     NS sqrt iter    3 1.00000000   0.731E-01       0.001      109.749
     NS sqrt iter    4 1.00000000   0.167E-02       0.001       81.135
     NS sqrt iter    5 1.00000000   0.423E-07       0.001       68.103
     Final NS sqrt iter    5 1.00000000   0.384E-09

     Est. extremal eigenvalues     -0.93445     1.66228  converged:  T
     TRS4 it   1 1.00000000   0.860E+00       0.000       16.128   0.100E-07
     TRS4 it   2 1.00000000   0.605E+00       0.001       32.256   0.100E-07
     TRS4 it   3 1.00000000   0.410E+00       0.001       32.256   0.100E-07
     TRS4 it   4 1.00000000   0.205E+00       0.001       32.256   0.100E-07
     TRS4 it   5 1.00000000   0.645E-01       0.001       32.256   0.100E-07
     TRS4 it   6 1.00000000   0.796E-02       0.001       32.256   0.100E-07
     TRS4 it   7 1.00000000   0.153E-03       0.001       32.256   0.100E-07
     TRS4 it   8 1.00000000   0.767E-07       0.001       32.256   0.100E-07
     Final TRS4 iteration    8 1.00000000   0.767E-07
     Chemical potential (mu):       0.00967
 
 PAO| energy:  -7.7684958003121078      penalty:   1.2663522597606454E-005
 PAO|LS| adapt:  T T T
 PAO|LS| adapt: scan_steps:    0.0000000000000000       0.38214795247277489       0.76429590494554978     
 PAO|LS| adapt: energies:   -7.7685214519173602       -7.7685303032894497       -7.7684958003121078     
 PAO|LS| adapt: suggested step_size:   0.26909460772879756     
 PAO|LS| adapt: predicted energy  -7.7685322004602648     
 PAO| ======================= Iteration:        28 =============================

     Lanczos converged:  T threshold:   0.100E-02
     Est. extremal eigenvalues:    0.276E+01   0.184E+00
     Est. condition number :    0.150E+02
     NS sqrt iter    1 1.00000000   0.707E+00       0.001       60.842
     NS sqrt iter    2 1.00000000   0.330E+00       0.001       77.543
     NS sqrt iter    3 1.00000000   0.732E-01       0.001      110.592
     NS sqrt iter    4 1.00000000   0.168E-02       0.001      110.592
     NS sqrt iter    5 1.00000000   0.425E-07       0.001       68.224
     Final NS sqrt iter    5 1.00000000   0.386E-09

     Est. extremal eigenvalues     -0.93445     1.66232  converged:  T
     TRS4 it   1 1.00000000   0.860E+00       0.000       16.128   0.100E-07
     TRS4 it   2 1.00000000   0.605E+00       0.001       32.256   0.100E-07
     TRS4 it   3 1.00000000   0.410E+00       0.001       32.256   0.100E-07
     TRS4 it   4 1.00000000   0.205E+00       0.001       32.256   0.100E-07
     TRS4 it   5 1.00000000   0.645E-01       0.001       32.256   0.100E-07
     TRS4 it   6 1.00000000   0.795E-02       0.001       32.256   0.100E-07
     TRS4 it   7 1.00000000   0.153E-03       0.001       32.256   0.100E-07
     TRS4 it   8 1.00000000   0.769E-07       0.001       32.256   0.100E-07
     Final TRS4 iteration    8 1.00000000   0.769E-07
     Chemical potential (mu):       0.00965
 
 PAO| energy:  -7.7685321956447657      penalty:   1.3443690071900760E-005
 PAO|CG| trace_G_new    2.5678976257868071E-005
 PAO|CG| trace_G_prev    7.9669104165714397E-005
 PAO|CG| trace_G_mix    7.7895068342220824E-008
 PAO|CG| trace_D    1.1736473481036884E-004
 PAO|CG| trace_D_Gnew  -3.4308103005643034E-008
 PAO|CG| beta:   0.32134265167931031     
 PAO| norm of gradient:   5.0674427730234969E-003
 PAO| energy improvement:  -1.0743727405504444E-005
 PAO| step     28                   -7.768532196  0.317E-03  0.269E+00     0.055
 PAO|LS| adapt:  T F F
 PAO|LS| adapt: scan_steps:    0.0000000000000000        0.0000000000000000        0.0000000000000000     
 PAO|LS| adapt: energies:   -7.7685321956447657        0.0000000000000000        0.0000000000000000     
 PAO| ======================= Iteration:        29 =============================

     Lanczos converged:  T threshold:   0.100E-02
     Est. extremal eigenvalues:    0.276E+01   0.184E+00
     Est. condition number :    0.150E+02
     NS sqrt iter    1 1.00000000   0.706E+00       0.001       44.582
     NS sqrt iter    2 1.00000000   0.330E+00       0.002       55.141
     NS sqrt iter    3 1.00000000   0.732E-01       0.001      101.231
     NS sqrt iter    4 1.00000000   0.167E-02       0.001      101.785
     NS sqrt iter    5 1.00000000   0.426E-07       0.001       68.352
     Final NS sqrt iter    5 1.00000000   0.385E-09

     Est. extremal eigenvalues     -0.93445     1.66244  converged:  T
     TRS4 it   1 1.00000000   0.860E+00       0.000       16.128   0.100E-07
     TRS4 it   2 1.00000000   0.605E+00       0.001       32.256   0.100E-07
     TRS4 it   3 1.00000000   0.410E+00       0.001       32.256   0.100E-07
     TRS4 it   4 1.00000000   0.205E+00       0.001       32.256   0.100E-07
     TRS4 it   5 1.00000000   0.644E-01       0.001       32.256   0.100E-07
     TRS4 it   6 1.00000000   0.794E-02       0.001       32.256   0.100E-07
     TRS4 it   7 1.00000000   0.153E-03       0.001       32.256   0.100E-07
     TRS4 it   8 1.00000000   0.764E-07       0.001       32.256   0.100E-07
     Final TRS4 iteration    8 1.00000000   0.764E-07
     Chemical potential (mu):       0.00971
 
 PAO| energy:  -7.7685382588799623      penalty:   1.3013978415683058E-005
 PAO|LS| adapt:  T T F
 PAO|LS| adapt: scan_steps:    0.0000000000000000       0.26909460772879756        0.0000000000000000     
 PAO|LS| adapt: energies:   -7.7685321956447657       -7.7685382588799623        0.0000000000000000     
 PAO| ======================= Iteration:        30 =============================

     Lanczos converged:  T threshold:   0.100E-02
     Est. extremal eigenvalues:    0.276E+01   0.184E+00
     Est. condition number :    0.150E+02
     NS sqrt iter    1 1.00000000   0.706E+00       0.001       64.512
     NS sqrt iter    2 1.00000000   0.330E+00       0.001      110.592
     NS sqrt iter    3 1.00000000   0.731E-01       0.001      110.592
     NS sqrt iter    4 1.00000000   0.167E-02       0.001      110.592
     NS sqrt iter    5 1.00000000   0.426E-07       0.001       68.352
     Final NS sqrt iter    5 1.00000000   0.385E-09

     Est. extremal eigenvalues     -0.93445     1.66256  converged:  T
     TRS4 it   1 1.00000000   0.860E+00       0.000       16.128   0.100E-07
     TRS4 it   2 1.00000000   0.605E+00       0.001       32.256   0.100E-07
     TRS4 it   3 1.00000000   0.410E+00       0.001       32.256   0.100E-07
     TRS4 it   4 1.00000000   0.205E+00       0.001       32.256   0.100E-07
     TRS4 it   5 1.00000000   0.644E-01       0.001       32.256   0.100E-07
     TRS4 it   6 1.00000000   0.794E-02       0.001       32.256   0.100E-07
     TRS4 it   7 1.00000000   0.152E-03       0.001       32.256   0.100E-07
     TRS4 it   8 1.00000000   0.760E-07       0.001       32.256   0.100E-07
     Final TRS4 iteration    8 1.00000000   0.760E-07
     Chemical potential (mu):       0.00978
 
 PAO| energy:  -7.7685426187440845      penalty:   1.2591932795235605E-005
 PAO|LS| adapt:  T T F
 PAO|LS| adapt: scan_steps:    0.0000000000000000       0.53818921545759513        0.0000000000000000     
 PAO|LS| adapt: energies:   -7.7685321956447657       -7.7685426187440845        0.0000000000000000     
 PAO| ======================= Iteration:        31 =============================

     Lanczos converged:  T threshold:   0.100E-02
     Est. extremal eigenvalues:    0.276E+01   0.184E+00
     Est. condition number :    0.150E+02
     NS sqrt iter    1 1.00000000   0.706E+00       0.003       23.252
     NS sqrt iter    2 1.00000000   0.329E+00       0.001      110.592
     NS sqrt iter    3 1.00000000   0.730E-01       0.001      110.592
     NS sqrt iter    4 1.00000000   0.167E-02       0.001      110.592
     NS sqrt iter    5 1.00000000   0.426E-07       0.001       66.560
     Final NS sqrt iter    5 1.00000000   0.330E-08

     Est. extremal eigenvalues     -0.93445     1.66281  converged:  T
     TRS4 it   1 1.00000000   0.860E+00       0.000       16.128   0.100E-07
     TRS4 it   2 1.00000000   0.606E+00       0.001       32.256   0.100E-07
     TRS4 it   3 1.00000000   0.410E+00       0.001       32.256   0.100E-07
     TRS4 it   4 1.00000000   0.205E+00       0.001       32.256   0.100E-07
     TRS4 it   5 1.00000000   0.643E-01       0.001       27.387   0.100E-07
     TRS4 it   6 1.00000000   0.792E-02       0.001       32.256   0.100E-07
     TRS4 it   7 1.00000000   0.152E-03       0.001       32.256   0.100E-07
     TRS4 it   8 1.00000000   0.751E-07       0.001       32.256   0.100E-07
     Final TRS4 iteration    8 1.00000000   0.751E-07
     Chemical potential (mu):       0.00989
 
 PAO| energy:  -7.7685462344822076      penalty:   1.1770704752845474E-005
 PAO|LS| Need extra step
 PAO|LS| adapt:  T T F
 PAO|LS| adapt: scan_steps:    0.0000000000000000        1.0763784309151903        0.0000000000000000     
 PAO|LS| adapt: energies:   -7.7685321956447657       -7.7685462344822076        0.0000000000000000     
 PAO| ======================= Iteration:        32 =============================

     Lanczos converged:  T threshold:   0.100E-02
     Est. extremal eigenvalues:    0.276E+01   0.184E+00
     Est. condition number :    0.150E+02
     NS sqrt iter    1 1.00000000   0.705E+00       0.001       64.512
     NS sqrt iter    2 1.00000000   0.329E+00       0.001      110.592
     NS sqrt iter    3 1.00000000   0.727E-01       0.001       94.397
     NS sqrt iter    4 1.00000000   0.167E-02       0.001      108.608
     NS sqrt iter    5 1.00000000   0.427E-07       0.001       60.570
     Final NS sqrt iter    5 1.00000000   0.474E-08

     Est. extremal eigenvalues     -0.93446     1.66329  converged:  T
     TRS4 it   1 1.00000000   0.860E+00       0.000       16.128   0.100E-07
     TRS4 it   2 1.00000000   0.606E+00       0.001       32.256   0.100E-07
     TRS4 it   3 1.00000000   0.410E+00       0.001       32.256   0.100E-07
     TRS4 it   4 1.00000000   0.205E+00       0.001       32.256   0.100E-07
     TRS4 it   5 1.00000000   0.642E-01       0.001       32.256   0.100E-07
     TRS4 it   6 1.00000000   0.788E-02       0.001       32.256   0.100E-07
     TRS4 it   7 1.00000000   0.150E-03       0.001       32.256   0.100E-07
     TRS4 it   8 1.00000000   0.734E-07       0.001       32.256   0.100E-07
     Final TRS4 iteration    8 1.00000000   0.734E-07
     Chemical potential (mu):       0.01013
 
 PAO| energy:  -7.7685330533584320      penalty:   1.0218764637590440E-005
 PAO|LS| Need extra step
 PAO|LS| adapt:  T T T
 PAO|LS| adapt: scan_steps:    0.0000000000000000        1.0763784309151903        2.1527568618303805     
 PAO|LS| adapt: energies:   -7.7685321956447657       -7.7685462344822076       -7.7685330533584320     
 PAO|LS| adapt: suggested step_size:    1.0933370239665421     
 PAO|LS| adapt: predicted energy  -7.7685462378605772     
 PAO| ======================= Iteration:        33 =============================

     Lanczos converged:  T threshold:   0.100E-02
     Est. extremal eigenvalues:    0.276E+01   0.184E+00
     Est. condition number :    0.150E+02
     NS sqrt iter    1 1.00000000   0.706E+00       0.001       62.853
     NS sqrt iter    2 1.00000000   0.329E+00       0.001      110.592
     NS sqrt iter    3 1.00000000   0.730E-01       0.001      110.592
     NS sqrt iter    4 1.00000000   0.167E-02       0.001      110.592
     NS sqrt iter    5 1.00000000   0.426E-07       0.001       66.560
     Final NS sqrt iter    5 1.00000000   0.329E-08

     Est. extremal eigenvalues     -0.93445     1.66282  converged:  T
     TRS4 it   1 1.00000000   0.860E+00       0.000       16.128   0.100E-07
     TRS4 it   2 1.00000000   0.606E+00       0.001       32.256   0.100E-07
     TRS4 it   3 1.00000000   0.410E+00       0.001       32.256   0.100E-07
     TRS4 it   4 1.00000000   0.205E+00       0.001       32.256   0.100E-07
     TRS4 it   5 1.00000000   0.643E-01       0.001       32.256   0.100E-07
     TRS4 it   6 1.00000000   0.792E-02       0.001       32.256   0.100E-07
     TRS4 it   7 1.00000000   0.152E-03       0.001       32.256   0.100E-07
     TRS4 it   8 1.00000000   0.751E-07       0.001       32.256   0.100E-07
     Final TRS4 iteration    8 1.00000000   0.751E-07
     Chemical potential (mu):       0.00990
 
 PAO| energy:  -7.7685462377865555      penalty:   1.1745320665694400E-005
 PAO|CG| trace_G_new    7.4901122214833353E-005
 PAO|CG| trace_G_prev    2.5678976257868071E-005
 PAO|CG| trace_G_mix    4.6030555621213590E-008
 PAO|CG| trace_D    3.7820237164335670E-005
 PAO|CG| trace_D_Gnew   5.8946725106138694E-009
 PAO|CG| beta:    2.9150341083506568     
 PAO| norm of gradient:   8.6545434434655965E-003
 PAO| energy improvement:  -1.4042141789794016E-005
 PAO| step     33                   -7.768546238  0.541E-03  0.109E+01     0.089
 PAO|LS| adapt:  T F F
 PAO|LS| adapt: scan_steps:    0.0000000000000000        0.0000000000000000        0.0000000000000000     
 PAO|LS| adapt: energies:   -7.7685462377865555        0.0000000000000000        0.0000000000000000     
 PAO| ======================= Iteration:        34 =============================

     Lanczos converged:  T threshold:   0.100E-02
     Est. extremal eigenvalues:    0.276E+01   0.183E+00
     Est. condition number :    0.150E+02
     NS sqrt iter    1 1.00000000   0.704E+00       0.001       64.512
     NS sqrt iter    2 1.00000000   0.328E+00       0.001      110.592
     NS sqrt iter    3 1.00000000   0.724E-01       0.001      110.592
     NS sqrt iter    4 1.00000000   0.167E-02       0.001      110.592
     NS sqrt iter    5 1.00000000   0.445E-07       0.001       64.768
     Final NS sqrt iter    5 1.00000000   0.441E-08

     Est. extremal eigenvalues     -0.93447     1.66419  converged:  T
     TRS4 it   1 1.00000000   0.861E+00       0.001       16.128   0.100E-07
     TRS4 it   2 1.00000000   0.606E+00       0.001       32.256   0.100E-07
     TRS4 it   3 1.00000000   0.410E+00       0.001       32.256   0.100E-07
[...]
 PAO| ======================= Iteration:       966 =============================

     Lanczos converged:  T threshold:   0.100E-02
     Est. extremal eigenvalues:    0.251E+01   0.185E+00
     Est. condition number :    0.135E+02
     NS sqrt iter    1 1.00000000   0.636E+00       0.001       64.512
     NS sqrt iter    2 1.00000000   0.277E+00       0.001      110.592
     NS sqrt iter    3 1.00000000   0.498E-01       0.001       82.807
     NS sqrt iter    4 1.00000000   0.894E-03       0.001       75.764
     NS sqrt iter    5 1.00000000   0.959E-08       0.001       30.006
     Final NS sqrt iter    5 1.00000000   0.477E-09

     Est. extremal eigenvalues     -0.93431     1.61780  converged:  T
     TRS4 it   1 1.00000000   0.872E+00       0.000       16.128   0.100E-07
     TRS4 it   2 1.00000000   0.627E+00       0.001       32.256   0.100E-07
     TRS4 it   3 1.00000000   0.449E+00       0.001       32.256   0.100E-07
     TRS4 it   4 1.00000000   0.272E+00       0.001       32.256   0.100E-07
     TRS4 it   5 1.00000000   0.134E+00       0.001       32.256   0.100E-07
     TRS4 it   6 1.00000000   0.408E-01       0.001       32.256   0.100E-07
     TRS4 it   7 1.00000000   0.496E-02       0.001       32.256   0.100E-07
     TRS4 it   8 1.00000000   0.983E-04       0.001       32.256   0.100E-07
     TRS4 it   9 1.00000000   0.429E-07       0.001       32.256   0.100E-07
     Final TRS4 iteration    9 1.00000000   0.429E-07
     Chemical potential (mu):      -0.07150
 
 PAO| energy:  -7.7685021869493482      penalty:   3.4567188994106643E-010
 PAO|LS| Need extra step
 PAO|LS| adapt:  T T T
 PAO|LS| adapt: scan_steps:    0.0000000000000000       0.20000000000000001       0.40000000000000002     
 PAO|LS| adapt: energies:   -7.7685021869430990       -7.7685021869497817       -7.7685021869493482     
 PAO|LS| adapt: suggested step_size:   0.28781827259111331     
 PAO|LS| adapt: predicted energy  -7.7685021869504665     
 PAO| ======================= Iteration:       967 =============================

     Lanczos converged:  T threshold:   0.100E-02
     Est. extremal eigenvalues:    0.251E+01   0.185E+00
     Est. condition number :    0.135E+02
     NS sqrt iter    1 1.00000000   0.636E+00       0.001       64.512
     NS sqrt iter    2 1.00000000   0.277E+00       0.001       88.322
     NS sqrt iter    3 1.00000000   0.498E-01       0.001       94.616
     NS sqrt iter    4 1.00000000   0.894E-03       0.001      106.016
     NS sqrt iter    5 1.00000000   0.959E-08       0.001       38.784
     Final NS sqrt iter    5 1.00000000   0.477E-09

     Est. extremal eigenvalues     -0.93431     1.61780  converged:  T
     TRS4 it   1 1.00000000   0.872E+00       0.000       16.128   0.100E-07
     TRS4 it   2 1.00000000   0.627E+00       0.001       32.256   0.100E-07
     TRS4 it   3 1.00000000   0.449E+00       0.001       32.256   0.100E-07
     TRS4 it   4 1.00000000   0.272E+00       0.001       32.256   0.100E-07
     TRS4 it   5 1.00000000   0.134E+00       0.001       32.256   0.100E-07
     TRS4 it   6 1.00000000   0.408E-01       0.001       32.256   0.100E-07
     TRS4 it   7 1.00000000   0.496E-02       0.001       32.256   0.100E-07
     TRS4 it   8 1.00000000   0.983E-04       0.001       32.256   0.100E-07
     TRS4 it   9 1.00000000   0.429E-07       0.001       32.256   0.100E-07
     Final TRS4 iteration    9 1.00000000   0.429E-07
     Chemical potential (mu):      -0.07150
 
 PAO| energy:  -7.7685021869504665      penalty:   3.4566346099363746E-010
 PAO|CG| warming up with steepest descent
 PAO|CG| beta:    0.0000000000000000     
 PAO| norm of gradient:   7.0879012355169924E-006
 PAO| energy improvement:  -7.3674399914125388E-012
 PAO| step    967                   -7.768502187  0.443E-06  0.288E+00     0.073
 PAO| converged after          967  steps :-)
 PAO| Recalculating energy after mixing.

     Lanczos converged:  T threshold:   0.100E-02
     Est. extremal eigenvalues:    0.251E+01   0.185E+00
     Est. condition number :    0.135E+02
     NS sqrt iter    1 1.00000000   0.636E+00       0.001       64.512
     NS sqrt iter    2 1.00000000   0.277E+00       0.001      108.897
     NS sqrt iter    3 1.00000000   0.498E-01       0.001      110.592
     NS sqrt iter    4 1.00000000   0.894E-03       0.001      110.592
     NS sqrt iter    5 1.00000000   0.959E-08       0.001       38.784
     Final NS sqrt iter    5 1.00000000   0.477E-09

     Est. extremal eigenvalues     -0.93431     1.61780  converged:  T
     TRS4 it   1 1.00000000   0.872E+00       0.000       16.128   0.100E-07
     TRS4 it   2 1.00000000   0.627E+00       0.001       32.256   0.100E-07
     TRS4 it   3 1.00000000   0.449E+00       0.001       32.256   0.100E-07
     TRS4 it   4 1.00000000   0.272E+00       0.001       32.256   0.100E-07
     TRS4 it   5 1.00000000   0.134E+00       0.001       32.256   0.100E-07
     TRS4 it   6 1.00000000   0.408E-01       0.001       32.256   0.100E-07
     TRS4 it   7 1.00000000   0.496E-02       0.001       32.256   0.100E-07
     TRS4 it   8 1.00000000   0.983E-04       0.001       32.256   0.100E-07
     TRS4 it   9 1.00000000   0.429E-07       0.001       32.256   0.100E-07
     Final TRS4 iteration    9 1.00000000   0.429E-07
     Chemical potential (mu):      -0.07150
 
 PAO| energy:  -7.7685021869486262      penalty:   3.4565265496163550E-010
 PAO| Writing restart file.
     Est. extremal eigenvalues     -0.93431     1.61780  converged:  T
     TRS4 it   1 1.00000000   0.872E+00       0.000       16.128   0.100E-07
     TRS4 it   2 1.00000000   0.627E+00       0.001       32.256   0.100E-07
     TRS4 it   3 1.00000000   0.449E+00       0.001       32.256   0.100E-07
     TRS4 it   4 1.00000000   0.272E+00       0.001       32.256   0.100E-07
     TRS4 it   5 1.00000000   0.134E+00       0.001       32.256   0.100E-07
     TRS4 it   6 1.00000000   0.408E-01       0.001       32.256   0.100E-07
     TRS4 it   7 1.00000000   0.496E-02       0.001       32.256   0.100E-07
     TRS4 it   8 1.00000000   0.983E-04       0.001       32.256   0.100E-07
     TRS4 it   9 1.00000000   0.429E-07       0.001       32.256   0.100E-07
     Final TRS4 iteration    9 1.00000000   0.429E-07
     Chemical potential (mu):      -0.07150

 SCF     1       -34.447787345       -34.447787345    2.285921

*********************************************************
 Using MIXING_FRACTION=0.450 to mix KS matrix:  iscf=  2
 KS_nw=0.450*KS + 0.550*KS_old
*********************************************************
     Est. extremal eigenvalues     -0.93431     1.61780  converged:  T
     TRS4 it   1 1.00000000   0.872E+00       0.000       16.128   0.100E-07
     TRS4 it   2 1.00000000   0.627E+00       0.001       32.256   0.100E-07
     TRS4 it   3 1.00000000   0.449E+00       0.001       32.256   0.100E-07
     TRS4 it   4 1.00000000   0.272E+00       0.001       32.256   0.100E-07
     TRS4 it   5 1.00000000   0.134E+00       0.001       32.256   0.100E-07
     TRS4 it   6 1.00000000   0.408E-01       0.001       32.256   0.100E-07
     TRS4 it   7 1.00000000   0.496E-02       0.001       32.256   0.100E-07
     TRS4 it   8 1.00000000   0.983E-04       0.001       32.256   0.100E-07
     TRS4 it   9 1.00000000   0.429E-07       0.001       32.256   0.100E-07
     Final TRS4 iteration    9 1.00000000   0.429E-07
     Chemical potential (mu):      -0.07150

 SCF     2       -34.447787345         0.000000000    2.292833

 PAO| Storing density matrix for ASPC guess in slot:           1

 ENERGY| Total FORCE_EVAL ( QS ) energy (a.u.):              -34.447787344834175


 -------------------------------------------------------------------------------
 -                                                                             -
 -                                DBCSR STATISTICS                             -
 -                                                                             -
 -------------------------------------------------------------------------------
 COUNTER                                    TOTAL       BLAS       SMM       ACC
 flops     5 x     5 x     4                36000       0.0%    100.0%      0.0%
 flops    13 x     5 x     4                37440       0.0%    100.0%      0.0%
 flops     5 x    13 x     4                37440       0.0%    100.0%      0.0%
 flops    13 x    13 x     4                73008       0.0%    100.0%      0.0%
 flops     4 x     4 x     5              7576320       0.0%    100.0%      0.0%
 flops     5 x     4 x     5              9251200       0.0%    100.0%      0.0%
 flops     4 x     4 x    13              9849216       0.0%    100.0%      0.0%
 flops    13 x     4 x     5             12026560       0.0%    100.0%      0.0%
 flops     5 x     4 x    13             12026560       0.0%    100.0%      0.0%
 flops     5 x     4 x     4             15455040       0.0%    100.0%      0.0%
 flops    13 x     4 x    13             15634528       0.0%    100.0%      0.0%
 flops    13 x     4 x     4             20876544       0.0%    100.0%      0.0%
 flops     4 x     4 x     4            962095104       0.0%    100.0%      0.0%
 flops inhomo. stacks                           0       0.0%      0.0%      0.0%
 flops total                         1.064975E+09       0.0%    100.0%      0.0%
 flops max/rank                      1.064975E+09       0.0%    100.0%      0.0%
 matmuls inhomo. stacks                         0       0.0%      0.0%      0.0%
 matmuls total                            7838628       0.0%    100.0%      0.0%
 number of processed stacks                 62765       0.0%    100.0%      0.0%
 average stack size                                     0.0     124.9       0.0
 marketing flops                     1.730480E+09
 -------------------------------------------------------------------------------
 # multiplications                          52143
 max memory usage/rank             321.265664E+06
 # max total images/rank                        1
 # max 3D layers                                1
 # MPI messages exchanged                       0
 MPI messages size (bytes):
  total size                         0.000000E+00
  min size                           0.000000E+00
  max size                           0.000000E+00
  average size                       0.000000E+00
 MPI breakdown and total messages size (bytes):
             size <=      128                   0                        0
       128 < size <=     8192                   0                        0
      8192 < size <=    32768                   0                        0
     32768 < size <=   131072                   0                        0
    131072 < size <=  4194304                   0                        0
   4194304 < size <= 16777216                   0                        0
  16777216 < size                               0                        0
 -------------------------------------------------------------------------------

 MEMORY| Estimated peak process memory [MiB]                                 307

 -------------------------------------------------------------------------------
 -                                                                             -
 -                           R E F E R E N C E S                               -
 -                                                                             -
 -------------------------------------------------------------------------------
 
 CP2K version 7.0 (Development Version), the CP2K developers group (2018).
 CP2K is freely available from https://www.cp2k.org/ .

 Schuett, O; VandeVondele, J. 
 Journal of Chemical Theory and Computation, 14, (2018). 
 Machine Learning Adaptive Basis Sets for Efficient Large Scale Density Functional Theory Simulation.
 https://dx.doi.org/10.1021/acs.jctc.8b00378


 Schuett, Ole; Messmer, Peter; Hutter, Juerg; VandeVondele, Joost. 
 Electronic Structure Calculations on Graphics Processing Units, John Wiley & Sons, Ltd, 173-190 (2016). 
 GPU-Accelerated Sparse Matrix-Matrix Multiplication for Linear Scaling Density Functional Theory.
 https://dx.doi.org/10.1002/9781118670712.ch8


 Borstnik, U; VandeVondele, J; Weber, V; Hutter, J. 
 PARALLEL COMPUTING, 40 (5-6), 47-58 (2014). 
 Sparse matrix multiplication: The distributed block-compressed sparse
 row library.
 https://dx.doi.org/10.1016/j.parco.2014.03.012


 Hutter, J; Iannuzzi, M; Schiffmann, F; VandeVondele, J. 
 WILEY INTERDISCIPLINARY REVIEWS-COMPUTATIONAL MOLECULAR SCIENCE, 4 (1), 15-25 (2014). 
 CP2K: atomistic simulations of condensed matter systems.
 https://dx.doi.org/10.1002/wcms.1159


 VandeVondele, J; Borstnik, U; Hutter, J. 
 JOURNAL OF CHEMICAL THEORY AND COMPUTATION, 8 (10), 3565-3573 (2012). 
 Linear Scaling Self-Consistent Field Calculations with Millions of Atoms
 in the Condensed Phase.
 https://dx.doi.org/10.1021/ct200897x


 VandeVondele, J; Hutter, J. 
 JOURNAL OF CHEMICAL PHYSICS, 127 (11), 114105 (2007). 
 Gaussian basis sets for accurate calculations on molecular systems in
 gas and condensed phases.
 https://dx.doi.org/10.1063/1.2770708


 Krack, M. 
 THEORETICAL CHEMISTRY ACCOUNTS, 114 (1-3), 145-152 (2005). 
 Pseudopotentials for H to Kr optimized for gradient-corrected
 exchange-correlation functionals.
 https://dx.doi.org/10.1007/s00214-005-0655-y


 VandeVondele, J; Krack, M; Mohamed, F; Parrinello, M; Chassaing, T;
 Hutter, J. COMPUTER PHYSICS COMMUNICATIONS, 167 (2), 103-128 (2005). 
 QUICKSTEP: Fast and accurate density functional calculations using a
 mixed Gaussian and plane waves approach.
 https://dx.doi.org/10.1016/j.cpc.2004.12.014


 Frigo, M; Johnson, SG. 
 PROCEEDINGS OF THE IEEE, 93 (2), 216-231 (2005). 
 The design and implementation of FFTW3.
 https://dx.doi.org/10.1109/JPROC.2004.840301


 Niklasson, AMN; Tymczak, CJ; Challacombe, M. 
 JOURNAL OF CHEMICAL PHYSICS, 118 (19), 8611-8620 (2003). 
 Trace resetting density matrix purification in O(N)
 self-consistent-field theory.
 https://dx.doi.org/10.1063/1.1559913


 Hartwigsen, C; Goedecker, S; Hutter, J. 
 PHYSICAL REVIEW B, 58 (7), 3641-3662 (1998). 
 Relativistic separable dual-space Gaussian pseudopotentials from H to Rn.
 https://dx.doi.org/10.1103/PhysRevB.58.3641


 Lippert, G; Hutter, J; Parrinello, M. 
 MOLECULAR PHYSICS, 92 (3), 477-487 (1997). 
 A hybrid Gaussian and plane wave density functional scheme.
 https://dx.doi.org/10.1080/002689797170220


 Perdew, JP; Burke, K; Ernzerhof, M. 
 PHYSICAL REVIEW LETTERS, 77 (18), 3865-3868 (1996). 
 Generalized gradient approximation made simple.
 https://dx.doi.org/10.1103/PhysRevLett.77.3865


 Goedecker, S; Teter, M; Hutter, J. 
 PHYSICAL REVIEW B, 54 (3), 1703-1710 (1996). 
 Separable dual-space Gaussian pseudopotentials.
 https://dx.doi.org/10.1103/PhysRevB.54.1703


 -------------------------------------------------------------------------------
 -                                                                             -
 -                                T I M I N G                                  -
 -                                                                             -
 -------------------------------------------------------------------------------
 SUBROUTINE                       CALLS  ASD         SELF TIME        TOTAL TIME
                                MAXIMUM       AVERAGE  MAXIMUM  AVERAGE  MAXIMUM
 CP2K                                 1  1.0    0.028    0.028   60.370   60.370
 qs_energies                          1  2.0    0.000    0.000   59.940   59.940
 ls_scf                               1  3.0    0.000    0.000   59.813   59.813
 ls_scf_main                          8  4.0    0.001    0.001   39.059   39.059
 ls_scf_dm_to_ks                     17  5.0    0.000    0.000   38.903   38.903
 qs_ks_update_qs_env                 18  6.0    0.000    0.000   29.629   29.629
 rebuild_ks_matrix                   18  7.0    0.000    0.000   29.628   29.628
 qs_ks_build_kohn_sham_matrix        18  8.0    0.003    0.003   29.628   29.628
 pao_update                           8  4.0    0.028    0.028   18.319   18.319
 qs_vxc_create                       18  9.0    0.000    0.000   17.134   17.134
 xc_vxc_pw_create                    18 10.0    0.337    0.337   17.134   17.134
 pao_calc_energy                    974  5.0    0.011    0.011   16.565   16.565
 dbcsr_multiply_generic           52143  8.4    1.027    1.027   13.267   13.267
 xc_rho_set_and_dset_create          18 11.0    0.130    0.130   11.961   11.961
 qs_rho_update_rho                   18  6.0    0.000    0.000   11.607   11.607
 calculate_rho_elec                  18  7.0    9.063    9.063   11.607   11.607
 pw_transfer                        343 10.6    0.033    0.033   11.430   11.430
 fft_wrap_pw1pw2                    307 11.7    0.004    0.004   11.124   11.124
 fft_wrap_pw1pw2_200                199 12.8    1.107    1.107   10.630   10.630
 sum_up_and_integrate                18  9.0    0.061    0.061   10.322   10.322
 integrate_v_rspace                  18 10.0    8.866    8.866   10.261   10.261
 pao_dm_trs4                        974  6.0    0.011    0.011    8.543    8.543
 density_matrix_trs4                991  7.0    0.514    0.514    8.159    8.159
 ls_scf_init_matrix_S               982  7.0    0.010    0.010    7.970    7.970
 pao_rebuild_S                      974  6.0    0.008    0.008    7.913    7.913
 xc_functional_eval                  18 12.0    0.000    0.000    7.592    7.592
 pbe_lda_eval                        18 13.0    7.592    7.592    7.592    7.592
 matrix_sqrt_Newton_Schulz          982  8.0    0.360    0.360    7.146    7.146
 fft3d_s                            308 13.7    5.753    5.753    5.766    5.766
 multiply_cannon                  52143  9.4    2.406    2.406    5.210    5.210
 make_m2s                        104286  9.4    0.340    0.340    4.788    4.788
 make_images                     104286 10.4    1.247    1.247    4.250    4.250
 density_rs2pw                       18  8.0    0.001    0.001    2.494    2.494
 pao_guess_initial_P                  1  4.0    0.000    0.000    2.344    2.344
 pao_read_preopt_dm                   1  5.0    0.000    0.000    2.344    2.344
 arnoldi_extremal                  1973  8.5    0.012    0.012    2.226    2.226
 arnoldi_normal_ev                 1973  9.5    0.032    0.032    2.214    2.214
 pw_scatter_s                       162 14.2    2.213    2.213    2.213    2.213
 pw_gather_s                        145 13.1    1.984    1.984    1.984    1.984
 pao_calc_AB                       1281  5.8    0.003    0.003    1.712    1.712
 pao_calc_AB_direct                1281  6.8    0.066    0.066    1.709    1.709
 build_subspace                    1973 10.5    0.131    0.131    1.597    1.597
 pao_calc_grad_lnv_wrt_AB           306  7.0    0.019    0.019    1.567    1.567
 pw_derive                          108 11.5    1.483    1.483    1.483    1.483
 dbcsr_matrix_vector_mult         47341 11.5    0.251    0.251    1.423    1.423
 dbcsr_create_new                398848 10.7    0.780    0.780    1.397    1.397
 potential_pw2rs                     18 11.0    0.008    0.008    1.391    1.391
 dbcsr_finalize                  123136  9.6    0.255    0.255    1.375    1.375
 -------------------------------------------------------------------------------

 The number of warnings for this run is : 0
 
 -------------------------------------------------------------------------------
  **** **** ******  **  PROGRAM ENDED AT                 2019-02-14 01:20:50.734
 ***** ** ***  *** **   PROGRAM RAN ON                                      otto
 **    ****   ******    PROGRAM RAN BY                                       ole
 ***** **    ** ** **   PROGRAM PROCESS ID                                  6111
  **** **  *******  **  PROGRAM STOPPED IN /home/ole/git/pao_ml_equivar/2H2O_MD/
                                           frame_0450
