 DBCSR| CPU Multiplication driver                                           XSMM (U)
 DBCSR| Multrec recursion limit                                              512 (U)
 DBCSR| Multiplication stack size                                           1000 (D)
 DBCSR| Maximum elements for images                                    UNLIMITED (U)
 DBCSR| Multiplicative factor virtual images                                   1 (U)
 DBCSR| Use multiplication densification                                       T (D)
 DBCSR| Multiplication size stacks                                             3 (U)
 DBCSR| Use memory pool for CPU allocation                                     F (U)
 DBCSR| Number of 3D layers                                               SINGLE (U)
 DBCSR| Use MPI memory allocation                                              F (U)
 DBCSR| Use RMA algorithm                                                      F (U)
 DBCSR| Use Communication thread                                               T (U)
 DBCSR| Communication thread load                                             87 (D)
 DBCSR| MPI: My process id                                                     0
 DBCSR| MPI: Number of processes                                              32
 DBCSR| OMP: Current number of threads                                         1
 DBCSR| OMP: Max number of threads                                             1
 DBCSR| Split modifier for TAS multiplication algorithm                  1.0E+00 (U)


  **** **** ******  **  PROGRAM STARTED AT               2024-09-24 04:58:13.001
 ***** ** ***  *** **   PROGRAM STARTED ON                                moritz
 **    ****   ******    PROGRAM STARTED BY                                   ole
 ***** **    ** ** **   PROGRAM PROCESS ID                                169041
  **** **  *******  **  PROGRAM STARTED IN /home/ole/git/pao_ml_equivar/64H2O_MD
                                           /Frame5400

 CP2K| version string:                 CP2K version 2024.3 (Development Version)
 CP2K| source code revision number:                                  git:3f890bb
 CP2K| cp2kflags: omp libint fftw3 libxc libgrpp pexsi elpa parallel scalapack c
 CP2K|            osma quip deepmd xsmm plumed2 spglib libdftd4 sirius libvori l
 CP2K|            libbqb libvdwxc hdf5
 CP2K| is freely available from                            https://www.cp2k.org/
 CP2K| Program compiled at                          Mo 23 Sep 2024 17:17:04 CEST
 CP2K| Program compiled on                                                moritz
 CP2K| Program compiled for                                                local
 CP2K| Data directory path                               /home/ole/git/cp2k/data
 CP2K| Input file name                                           64H2O_pao44.inp

 GLOBAL| Force Environment number                                              1
 GLOBAL| Basis set file name                                        BASIS_MOLOPT
 GLOBAL| Potential file name                                      GTH_POTENTIALS
 GLOBAL| MM Potential file name                                     MM_POTENTIAL
 GLOBAL| Coordinate file name                                         coords.xyz
 GLOBAL| Method name                                                        CP2K
 GLOBAL| Project name                                                64H2O_pao44
 GLOBAL| Run type                                                         ENERGY
 GLOBAL| FFT library                                                       FFTW3
 GLOBAL| Diagonalization library                                            ELPA
 GLOBAL| DGEMM library                                                      BLAS
 GLOBAL| Minimum number of eigenvectors for ELPA usage                        16
 GLOBAL| Orthonormality check for eigenvectors                          DISABLED
 GLOBAL| Matrix multiplication library                                     COSMA
 GLOBAL| All-to-all communication in single precision                          F
 GLOBAL| FFTs using library dependent lengths                                  F
 GLOBAL| Grid backend                                                       AUTO
 GLOBAL| Global print level                                                  LOW
 GLOBAL| MPI I/O enabled                                                       T
 GLOBAL| Total number of message passing processes                            32
 GLOBAL| Number of threads for this process                                    1
 GLOBAL| This output is from process                                           0
 GLOBAL| Stack size for threads created by OpenMP (OMP_STACKSIZE)        default
 GLOBAL| CPU model name           AMD Ryzen Threadripper 3970X 32-Core Processor
 GLOBAL| CPUID                                                              1002

 MEMORY| system memory details [Kb]
 MEMORY|                        rank 0           min           max       average
 MEMORY| MemTotal            131752136     131752136     131752136     131752136
 MEMORY| MemFree             114289904     114289904     114289904     114289904
 MEMORY| Buffers               2021588       2021588       2021588       2021588
 MEMORY| Cached                8697740       8697740       8697740       8697740
 MEMORY| Slab                  1639544       1639544       1639544       1639544
 MEMORY| SReclaimable          1145664       1145664       1145664       1145664
 MEMORY| MemLikelyFree       126154896     126154896     126154896     126154896


 GENERATE|  Preliminary Number of Bonds generated:                             0
 GENERATE|  Achieved consistency in connectivity generation.

 *******************************************************************************
 *******************************************************************************
 **                                                                           **
 **     #####                         ##              ##                      **
 **    ##   ##            ##          ##              ##                      **
 **   ##     ##                       ##            ######                    **
 **   ##     ##  ##   ##  ##   #####  ##  ##   ####   ##    #####    #####    **
 **   ##     ##  ##   ##  ##  ##      ## ##   ##      ##   ##   ##  ##   ##   **
 **   ##  ## ##  ##   ##  ##  ##      ####     ###    ##   ######   ######    **
 **    ##  ###   ##   ##  ##  ##      ## ##      ##   ##   ##       ##        **
 **     #######   #####   ##   #####  ##  ##  ####    ##    #####   ##        **
 **           ##                                                    ##        **
 **                                                                           **
 **                                                ... make the atoms dance   **
 **                                                                           **
 **            Copyright (C) by CP2K developers group (2000-2024)             **
 **                      J. Chem. Phys. 152, 194103 (2020)                    **
 **                                                                           **
 *******************************************************************************


 TOTAL NUMBERS AND MAXIMUM NUMBERS

  Total number of            - Atomic kinds:                                   2
                             - Atoms:                                        192
                             - Shell sets:                                   192
                             - Shells:                                       704
                             - Primitive Cartesian functions:               1344
                             - Cartesian basis functions:                   1536
                             - Spherical basis functions:                   1472

  Maximum angular momentum of- Orbital basis functions:                        2
                             - Local part of the GTH pseudopotential:          2
                             - Non-local part of the GTH pseudopotential:      0

 ------------------------------ Linear scaling SCF -----------------------------
 eps_scf:                                                              0.100E-07
 eps_filter:                                                           0.100E-11
 mixing_fraction:                                                      0.450E+00
 max_scf:                                                                     25
 fixed chemical potential (mu)                                                 F
 has unit metric:                                                              F
 Computing inv(S):                                                             T
 Computing sqrt(S):                                                            T
 Computing S preconditioner                                                    F
 S sqrt method:                                                     NEWTONSCHULZ
 S sqrt order:                                                                 3
 Extrapolation order:                                                          1
 S preconditioner type                                                      NONE
 Polarized Atomic Orbitals (PAO)                                               T
 Purification method                                   Trace resetting 4th order
 Cluster type                                                             ATOMIC
 Computing Chebyshev                                                       FALSE
 Using PAO                                                                     T
 -------------------------------------------------------------------------------

 
 PAO|                                  EPS_PAO                           0.5E-06
 PAO|                                  MIXING                            0.5E+00
 PAO|                                  MAX_PAO                              1500
 PAO|                                  MAX_CYCLES                           1000
 PAO|                                  PARAMETERIZATION              EQUIVARIANT
 PAO|                                  PRECONDITION                            F
 PAO|                                  REGULARIZATION                    0.0E+00
 PAO|                                  EPS_PGF                           0.1E-09
 PAO|                                  PENALTY_DISTANCE                  0.1E+00
 PAO|                                  PENALTY_STRENGTH                  0.5E-02
 PAO|                                  LINPOT_PRECONDITION_DELTA         0.0E+00
 PAO|                                  LINPOT_INITGUESS_DELT             0.0E+00
 PAO|                                  LINPOT_REGULARIZATION_DELTA       0.0E+00
 PAO|                                  LINPOT_REGULARIZATION_STRENGTH    0.0E+00
 PAO|                                  OPTIMIZER                              CG
 PAO|                                  CG_INIT_STEPS                           2
 PAO|                                  CG_RESET_LIMIT                    0.1E+00
 PAO|                                  CHECK_UNITARY_TOL                -0.1E+01
 PAO|                                  CHECK_GRADIENT_TOL               -0.1E+01
 PAO|                                  NUM_GRADIENT_ORDER                      2
 PAO|                                  NUM_GRADIENT_EPS                  0.1E-07
 PAO|                                  PRINT%RESTART%WRITE_CYCLES            100
 PAO|                                  RESTART_FILE 
 PAO|                                  PREOPT_DM_FILE 64H2O_ref_LS_DM_SPIN_1_RESTART.dm
 PAO|                                  MACHINE_LEARNING%METHOD       GAUSSIAN_PR
 PAO|                                  MACHINE_LEARNING%PRIOR               ZERO
 PAO|                                  MACHINE_LEARNING%DESCRIPTOR     POTENTIAL
 PAO|                                  MACHINE_LEARNING%TOLERANCE        0.1E-01
 PAO|                                  MACHINE_LEARNING%GP_NOISE_VAR     0.1E+00
 PAO|                                  MACHINE_LEARNING%GP_SCALE         0.5E-01
 

 Calculating atomic Fock matrix for atomic kind: O

 Electronic structure
    Total number of core electrons                                          2.00
    Total number of valence electrons                                       6.00
    Total number of electrons                                               8.00
    Multiplicity                                                   not specified
    S   [  2.00] 2.00
    P      4.00


 *******************************************************************************
                  Iteration          Convergence                     Energy [au]
 *******************************************************************************
                          1        0.708315                     -15.576645311500
                          2        0.608879                     -15.587933561584
                          3        0.102828E-01                 -15.656849565404
                          4        0.113889E-02                 -15.656866888140
                          5        0.434197E-03                 -15.656867072159
                          6        0.263771E-03                 -15.656867091904
                          7        0.478536E-06                 -15.656867103452

 Energy components [Hartree]           Total Energy ::          -15.656867103452
                                        Band Energy ::           -3.000198112285
                                     Kinetic Energy ::           11.759971203220
                                   Potential Energy ::          -27.416838306672
                                      Virial (-V/T) ::            2.331369510426
                                        Core Energy ::          -26.140716385623
                                          XC Energy ::           -3.154051012914
                                     Coulomb Energy ::           13.637900295084
                       Total Pseudopotential Energy ::          -37.935781716540
                       Local Pseudopotential Energy ::          -39.218907440693
                    Nonlocal Pseudopotential Energy ::            1.283125724153
                                        Confinement ::            0.350941276976

 Orbital energies  State     L     Occupation   Energy[a.u.]          Energy[eV]

                       1     0          2.000      -0.864471          -23.523463

                       1     1          4.000      -0.317814           -8.648154


 Total Electron Density at R=0:                                         0.000068

 Calculating atomic Fock matrix for atomic kind: H

 Electronic structure
    Total number of core electrons                                          0.00
    Total number of valence electrons                                       1.00
    Total number of electrons                                               1.00
    Multiplicity                                                   not specified
    S      1.00


 *******************************************************************************
                  Iteration          Convergence                     Energy [au]
 *******************************************************************************
                          1        0.437545E-02                  -0.424159432110
                          2        0.531356E-03                  -0.424178438213
                          3        0.259176E-06                  -0.424178722480

 Energy components [Hartree]           Total Energy ::           -0.424178722480
                                        Band Energy ::           -0.199015229016
                                     Kinetic Energy ::            0.464007633961
                                   Potential Energy ::           -0.888186356441
                                      Virial (-V/T) ::            1.914163240935
                                        Core Energy ::           -0.479160803564
                                          XC Energy ::           -0.244352904054
                                     Coulomb Energy ::            0.299334985138
                       Total Pseudopotential Energy ::           -0.962295316385
                       Local Pseudopotential Energy ::           -0.962295316385
                    Nonlocal Pseudopotential Energy ::            0.000000000000
                                        Confinement ::            0.191268788606

 Orbital energies  State     L     Occupation   Energy[a.u.]          Energy[eV]

                       1     0          1.000      -0.199015           -5.415480


 Total Electron Density at R=0:                                         0.242907
 PAO| Made initial guess for matrix_X with norm:   27.712812921102035     

     Lanczos converged:  F threshold:   0.100E-02
     Est. extremal eigenvalues:    0.612E+01   0.942E-01
     Est. condition number :    0.650E+02

 Order=           3
     NS sqrt iter    1 1.00000000   0.149E+01       0.021     2691.227
     NS sqrt iter    2 1.00000000   0.814E+00       0.034     3350.542
     NS sqrt iter    3 1.00000000   0.326E+00       0.033     3387.267
     NS sqrt iter    4 1.00000000   0.897E-01       0.034     3371.154
     NS sqrt iter    5 1.00000000   0.307E-02       0.034     3366.873
     NS sqrt iter    6 1.00000000   0.228E-06       0.029     2941.730
     Symmetrizing Results
     Final NS sqrt iter    6 1.00000000   0.111E-12

 PAO| Read restart DM 64H2O_ref_LS_DM_SPIN_1_RESTART.dm with checksum:    6092.1800405907525     
 PAO| Quickstep energy from restart density:  -1103.1430747748032     
 PAO| ======================= Iteration:         1 =============================

     Lanczos converged:  F threshold:   0.100E-02
     Est. extremal eigenvalues:    0.612E+01   0.942E-01
     Est. condition number :    0.650E+02

 Order=           3
     NS sqrt iter    1 1.00000000   0.149E+01       0.021     2717.224
     NS sqrt iter    2 1.00000000   0.814E+00       0.034     3370.036
     NS sqrt iter    3 1.00000000   0.326E+00       0.034     3372.633
     NS sqrt iter    4 1.00000000   0.897E-01       0.034     3373.595
     NS sqrt iter    5 1.00000000   0.307E-02       0.033     3393.326
     NS sqrt iter    6 1.00000000   0.228E-06       0.029     2952.700
     Symmetrizing Results
     Final NS sqrt iter    6 1.00000000   0.111E-12

     Est. extremal eigenvalues     -0.81483     2.59011  converged:  T
     TRS4 it   1 1.00000000   0.272E+02       0.007     2118.939   0.100E-11
     TRS4 it   2 1.00000000   0.234E+02       0.013     2201.902   0.100E-11
     TRS4 it   3 1.00000000   0.160E+02       0.013     2204.342   0.100E-11
     TRS4 it   4 1.00000000   0.997E+01       0.013     2190.994   0.100E-11
     TRS4 it   5 1.00000000   0.481E+01       0.013     2225.319   0.100E-11
     TRS4 it   6 1.00000000   0.160E+01       0.013     2202.754   0.100E-11
     TRS4 it   7 1.00000000   0.316E+00       0.013     2204.699   0.100E-11
     TRS4 it   8 1.00000000   0.223E-01       0.013     2199.916   0.100E-11
     TRS4 it   9 1.00000000   0.195E-03       0.013     2186.333   0.100E-11
     TRS4 it  10 1.00000000   0.145E-07       0.013     2196.095   0.100E-11
     TRS4 it  11 1.00000000   0.142E-13       0.013     2215.098   0.100E-11
     Final TRS4 iteration   11 1.00000000   0.142E-13
     Chemical potential (mu):       0.00873
 
 PAO| energy:  -186.04064253349341      penalty:   1.5499884192428473E-031
 PAO|CG| warming up with steepest descent
 PAO|CG| beta:    0.0000000000000000     
 PAO| norm of gradient:   3.9766483024070434     
 PAO|LS| adapt:  T F F
 PAO|LS| adapt: scan_steps:    0.0000000000000000        0.0000000000000000        0.0000000000000000     
 PAO|LS| adapt: energies:   -186.04064253349341        0.0000000000000000        0.0000000000000000     
 PAO| ======================= Iteration:         2 =============================

     Lanczos converged:  F threshold:   0.100E-02
     Est. extremal eigenvalues:    0.590E+01   0.100E+00
     Est. condition number :    0.588E+02

 Order=           3
     NS sqrt iter    1 1.00000000   0.145E+01       0.021     2670.138
     NS sqrt iter    2 1.00000000   0.784E+00       0.033     3382.542
     NS sqrt iter    3 1.00000000   0.305E+00       0.034     3371.064
     NS sqrt iter    4 1.00000000   0.751E-01       0.034     3364.511
     NS sqrt iter    5 1.00000000   0.189E-02       0.033     3386.247
     NS sqrt iter    6 1.00000000   0.620E-07       0.029     2923.443
     Symmetrizing Results
     Final NS sqrt iter    6 1.00000000   0.980E-14

     Est. extremal eigenvalues     -0.81817     2.58780  converged:  T
     TRS4 it   1 1.00000000   0.274E+02       0.007     2119.927   0.100E-11
     TRS4 it   2 1.00000000   0.234E+02       0.013     2220.760   0.100E-11
     TRS4 it   3 1.00000000   0.159E+02       0.013     2212.393   0.100E-11
     TRS4 it   4 1.00000000   0.977E+01       0.013     2208.900   0.100E-11
     TRS4 it   5 1.00000000   0.460E+01       0.013     2220.651   0.100E-11
     TRS4 it   6 1.00000000   0.147E+01       0.013     2217.848   0.100E-11
     TRS4 it   7 1.00000000   0.271E+00       0.013     2214.360   0.100E-11
     TRS4 it   8 1.00000000   0.160E-01       0.013     2226.952   0.100E-11
     TRS4 it   9 1.00000000   0.915E-04       0.013     2221.523   0.100E-11
     TRS4 it  10 1.00000000   0.364E-08       0.013     2239.347   0.100E-11
     TRS4 it  11 1.00000000   0.711E-14       0.013     2219.314   0.100E-11
     Final TRS4 iteration   11 1.00000000   0.711E-14
     Chemical potential (mu):       0.01434
 
 PAO| energy:  -187.49259936868015      penalty:   4.7025235840495755E-007
 PAO|LS| adapt:  T T F
 PAO|LS| adapt: scan_steps:    0.0000000000000000       0.10000000000000001        0.0000000000000000     
 PAO|LS| adapt: energies:   -186.04064253349341       -187.49259936868015        0.0000000000000000     
 PAO| ======================= Iteration:         3 =============================

     Lanczos converged:  F threshold:   0.100E-02
     Est. extremal eigenvalues:    0.569E+01   0.106E+00
     Est. condition number :    0.535E+02

 Order=           3
     NS sqrt iter    1 1.00000000   0.141E+01       0.021     2704.478
     NS sqrt iter    2 1.00000000   0.754E+00       0.034     3356.439
     NS sqrt iter    3 1.00000000   0.285E+00       0.033     3397.769
     NS sqrt iter    4 1.00000000   0.627E-01       0.034     3377.636
     NS sqrt iter    5 1.00000000   0.118E-02       0.033     3384.990
     NS sqrt iter    6 1.00000000   0.180E-07       0.029     2911.848
     Symmetrizing Results
     Final NS sqrt iter    6 1.00000000   0.341E-14

     Est. extremal eigenvalues     -0.82124     2.58872  converged:  T
     TRS4 it   1 1.00000000   0.276E+02       0.007     2123.534   0.100E-11
     TRS4 it   2 1.00000000   0.234E+02       0.013     2224.936   0.100E-11
     TRS4 it   3 1.00000000   0.158E+02       0.013     2204.981   0.100E-11
     TRS4 it   4 1.00000000   0.958E+01       0.013     2227.743   0.100E-11
     TRS4 it   5 1.00000000   0.439E+01       0.013     2220.901   0.100E-11
     TRS4 it   6 1.00000000   0.135E+01       0.013     2208.748   0.100E-11
     TRS4 it   7 1.00000000   0.230E+00       0.013     2238.597   0.100E-11
     TRS4 it   8 1.00000000   0.112E-01       0.013     2213.310   0.100E-11
     TRS4 it   9 1.00000000   0.400E-04       0.013     2205.282   0.100E-11
     TRS4 it  10 1.00000000   0.800E-09       0.013     2225.533   0.100E-11
     TRS4 it  11 1.00000000   0.178E-14       0.013     2223.516   0.100E-11
     Final TRS4 iteration   11 1.00000000   0.178E-14
     Chemical potential (mu):       0.02067
 
 PAO| energy:  -188.66950782980379      penalty:   7.5240377344791642E-006
 PAO|LS| adapt:  T T F
 PAO|LS| adapt: scan_steps:    0.0000000000000000       0.20000000000000001        0.0000000000000000     
 PAO|LS| adapt: energies:   -186.04064253349341       -188.66950782980379        0.0000000000000000     
 PAO| ======================= Iteration:         4 =============================

     Lanczos converged:  F threshold:   0.100E-02
     Est. extremal eigenvalues:    0.527E+01   0.116E+00
     Est. condition number :    0.456E+02

 Order=           3
     NS sqrt iter    1 1.00000000   0.132E+01       0.021     2707.725
     NS sqrt iter    2 1.00000000   0.698E+00       0.034     3378.126
     NS sqrt iter    3 1.00000000   0.248E+00       0.033     3381.431
     NS sqrt iter    4 1.00000000   0.437E-01       0.033     3385.026
     NS sqrt iter    5 1.00000000   0.476E-03       0.033     3385.934
     NS sqrt iter    6 1.00000000   0.158E-08       0.029     2855.860
     Symmetrizing Results
     Final NS sqrt iter    6 1.00000000   0.184E-13

     Est. extremal eigenvalues     -0.82606     2.59591  converged:  T
     TRS4 it   1 1.00000000   0.281E+02       0.007     2097.124   0.100E-11
     TRS4 it   2 1.00000000   0.235E+02       0.013     2212.575   0.100E-11
     TRS4 it   3 1.00000000   0.156E+02       0.013     2217.708   0.100E-11
     TRS4 it   4 1.00000000   0.925E+01       0.013     2212.778   0.100E-11
     TRS4 it   5 1.00000000   0.403E+01       0.013     2227.459   0.100E-11
     TRS4 it   6 1.00000000   0.113E+01       0.013     2215.410   0.100E-11
     TRS4 it   7 1.00000000   0.163E+00       0.013     2226.457   0.100E-11
     TRS4 it   8 1.00000000   0.526E-02       0.013     2203.588   0.100E-11
     TRS4 it   9 1.00000000   0.725E-05       0.013     2223.153   0.100E-11
     TRS4 it  10 1.00000000   0.301E-10       0.013     2228.472   0.100E-11
     Final TRS4 iteration   10 1.00000000   0.301E-10
     Chemical potential (mu):       0.03975
 
 PAO| energy:  -190.15669492296854      penalty:   1.2038460375166957E-004
 PAO|LS| Need extra step
 PAO|LS| adapt:  T T F
 PAO|LS| adapt: scan_steps:    0.0000000000000000       0.40000000000000002        0.0000000000000000     
 PAO|LS| adapt: energies:   -186.04064253349341       -190.15669492296854        0.0000000000000000     
 PAO| ======================= Iteration:         5 =============================

     Lanczos converged:  T threshold:   0.100E-02
     Est. extremal eigenvalues:    0.461E+01   0.131E+00
     Est. condition number :    0.352E+02

 Order=           3
     NS sqrt iter    1 1.00000000   0.120E+01       0.021     2683.435
     NS sqrt iter    2 1.00000000   0.607E+00       0.034     3365.285
     NS sqrt iter    3 1.00000000   0.190E+00       0.034     3367.170
     NS sqrt iter    4 1.00000000   0.226E-01       0.033     3389.792
     NS sqrt iter    5 1.00000000   0.876E-04       0.034     3377.551
     NS sqrt iter    6 1.00000000   0.141E-10       0.016     2164.365
     Symmetrizing Results
     Final NS sqrt iter    6 1.00000000   0.190E-11

     Est. extremal eigenvalues     -0.82862     2.59935  converged:  T
     TRS4 it   1 1.00000000   0.287E+02       0.007     2114.418   0.100E-11
     TRS4 it   2 1.00000000   0.235E+02       0.013     2223.613   0.100E-11
     TRS4 it   3 1.00000000   0.153E+02       0.013     2208.770   0.100E-11
     TRS4 it   4 1.00000000   0.875E+01       0.013     2227.072   0.100E-11
     TRS4 it   5 1.00000000   0.351E+01       0.013     2230.299   0.100E-11
     TRS4 it   6 1.00000000   0.839E+00       0.013     2207.262   0.100E-11
     TRS4 it   7 1.00000000   0.894E-01       0.013     2215.715   0.100E-11
     TRS4 it   8 1.00000000   0.147E-02       0.013     2198.913   0.100E-11
     TRS4 it   9 1.00000000   0.530E-06       0.013     2217.490   0.100E-11
     TRS4 it  10 1.00000000   0.174E-12       0.013     2207.030   0.100E-11
     Final TRS4 iteration   10 1.00000000   0.174E-12
     Chemical potential (mu):       0.06122
 
 PAO| energy:  -189.79377235970369      penalty:   1.9261536600267254E-003
 PAO|LS| Need extra step
 PAO|LS| adapt:  T T T
 PAO|LS| adapt: scan_steps:    0.0000000000000000       0.40000000000000002       0.80000000000000004     
 PAO|LS| adapt: energies:   -186.04064253349341       -190.15669492296854       -189.79377235970369     
 PAO|LS| adapt: suggested step_size:   0.56758878385396383     
 PAO|LS| adapt: predicted energy  -190.54980896248142     
 PAO| ======================= Iteration:         6 =============================

     Lanczos converged:  F threshold:   0.100E-02
     Est. extremal eigenvalues:    0.497E+01   0.123E+00
     Est. condition number :    0.405E+02

 Order=           3
     NS sqrt iter    1 1.00000000   0.126E+01       0.021     2694.397
     NS sqrt iter    2 1.00000000   0.656E+00       0.033     3387.996
     NS sqrt iter    3 1.00000000   0.220E+00       0.034     3380.303
     NS sqrt iter    4 1.00000000   0.327E-01       0.034     3369.726
     NS sqrt iter    5 1.00000000   0.228E-03       0.033     3381.097
     NS sqrt iter    6 1.00000000   0.209E-09       0.028     2613.910
     Symmetrizing Results
     Final NS sqrt iter    6 1.00000000   0.810E-12

     Est. extremal eigenvalues     -0.82838     2.59971  converged:  T
     TRS4 it   1 1.00000000   0.283E+02       0.007     2141.001   0.100E-11
     TRS4 it   2 1.00000000   0.235E+02       0.013     2207.348   0.100E-11
     TRS4 it   3 1.00000000   0.155E+02       0.013     2197.327   0.100E-11
     TRS4 it   4 1.00000000   0.901E+01       0.013     2217.352   0.100E-11
     TRS4 it   5 1.00000000   0.378E+01       0.013     2214.371   0.100E-11
     TRS4 it   6 1.00000000   0.987E+00       0.013     2215.067   0.100E-11
     TRS4 it   7 1.00000000   0.124E+00       0.013     2235.579   0.100E-11
     TRS4 it   8 1.00000000   0.290E-02       0.013     2224.103   0.100E-11
     TRS4 it   9 1.00000000   0.206E-05       0.013     2202.210   0.100E-11
     TRS4 it  10 1.00000000   0.237E-11       0.013     2218.278   0.100E-11
     Final TRS4 iteration   10 1.00000000   0.237E-11
     Chemical potential (mu):       0.04994
 
 PAO| energy:  -190.52292264491723      penalty:   4.8805211745010584E-004
 PAO|CG| warming up with steepest descent
 PAO|CG| beta:    0.0000000000000000     
 PAO| norm of gradient:   2.0784935806721410     
 PAO| energy improvement:  -4.4822801114238189     
 PAO| step      6                 -190.522922645  0.406E-02  0.568E+00     2.484
 PAO|LS| adapt:  T F F
 PAO|LS| adapt: scan_steps:    0.0000000000000000        0.0000000000000000        0.0000000000000000     
 PAO|LS| adapt: energies:   -190.52292264491723        0.0000000000000000        0.0000000000000000     
 PAO| ======================= Iteration:         7 =============================

     Lanczos converged:  F threshold:   0.100E-02
     Est. extremal eigenvalues:    0.481E+01   0.130E+00
     Est. condition number :    0.370E+02

 Order=           3
     NS sqrt iter    1 1.00000000   0.123E+01       0.021     2683.645
     NS sqrt iter    2 1.00000000   0.631E+00       0.034     3368.220
     NS sqrt iter    3 1.00000000   0.203E+00       0.034     3357.215
     NS sqrt iter    4 1.00000000   0.263E-01       0.034     3378.483
     NS sqrt iter    5 1.00000000   0.126E-03       0.033     3389.531
     NS sqrt iter    6 1.00000000   0.377E-10       0.021     2288.517
     Symmetrizing Results
     Final NS sqrt iter    6 1.00000000   0.226E-11

     Est. extremal eigenvalues     -0.82882     2.59240  converged:  T
     TRS4 it   1 1.00000000   0.285E+02       0.007     2165.729   0.100E-11
     TRS4 it   2 1.00000000   0.236E+02       0.013     2215.836   0.100E-11
     TRS4 it   3 1.00000000   0.156E+02       0.013     2235.658   0.100E-11
     TRS4 it   4 1.00000000   0.914E+01       0.013     2214.469   0.100E-11
     TRS4 it   5 1.00000000   0.388E+01       0.013     2240.641   0.100E-11
     TRS4 it   6 1.00000000   0.101E+01       0.013     2208.396   0.100E-11
     TRS4 it   7 1.00000000   0.126E+00       0.013     2215.483   0.100E-11
     TRS4 it   8 1.00000000   0.293E-02       0.013     2220.792   0.100E-11
     TRS4 it   9 1.00000000   0.210E-05       0.013     2208.199   0.100E-11
     TRS4 it  10 1.00000000   0.248E-11       0.013     2227.238   0.100E-11
     Final TRS4 iteration   10 1.00000000   0.248E-11
     Chemical potential (mu):       0.05161
 
 PAO| energy:  -189.60653390803304      penalty:   6.7893929635052576E-004
 PAO|LS| adapt:  T F T
 PAO|LS| adapt: scan_steps:    0.0000000000000000        0.0000000000000000       0.56758878385396383     
 PAO|LS| adapt: energies:   -190.52292264491723        0.0000000000000000       -189.60653390803304     
 PAO| ======================= Iteration:         8 =============================

     Lanczos converged:  F threshold:   0.100E-02
     Est. extremal eigenvalues:    0.489E+01   0.126E+00
     Est. condition number :    0.387E+02

 Order=           3
     NS sqrt iter    1 1.00000000   0.125E+01       0.021     2711.788
     NS sqrt iter    2 1.00000000   0.643E+00       0.034     3369.676
     NS sqrt iter    3 1.00000000   0.212E+00       0.033     3383.937
     NS sqrt iter    4 1.00000000   0.293E-01       0.034     3360.173
     NS sqrt iter    5 1.00000000   0.170E-03       0.033     3400.475
     NS sqrt iter    6 1.00000000   0.903E-10       0.025     2456.066
     Symmetrizing Results
     Final NS sqrt iter    6 1.00000000   0.178E-11

     Est. extremal eigenvalues     -0.83010     2.59667  converged:  T
     TRS4 it   1 1.00000000   0.284E+02       0.006     2189.280   0.100E-11
     TRS4 it   2 1.00000000   0.235E+02       0.013     2184.802   0.100E-11
     TRS4 it   3 1.00000000   0.155E+02       0.013     2223.102   0.100E-11
     TRS4 it   4 1.00000000   0.905E+01       0.013     2221.537   0.100E-11
     TRS4 it   5 1.00000000   0.381E+01       0.013     2225.127   0.100E-11
     TRS4 it   6 1.00000000   0.993E+00       0.013     2236.134   0.100E-11
     TRS4 it   7 1.00000000   0.124E+00       0.013     2233.670   0.100E-11
     TRS4 it   8 1.00000000   0.293E-02       0.013     2230.911   0.100E-11
     TRS4 it   9 1.00000000   0.213E-05       0.013     2221.034   0.100E-11
     TRS4 it  10 1.00000000   0.251E-11       0.013     2213.873   0.100E-11
     Final TRS4 iteration   10 1.00000000   0.251E-11
     Chemical potential (mu):       0.04983
 
 PAO| energy:  -190.89332606018192      penalty:   5.1640443360181411E-004
 PAO|LS| adapt:  T T T
 PAO|LS| adapt: scan_steps:    0.0000000000000000       0.28379439192698191       0.56758878385396383     
 PAO|LS| adapt: energies:   -190.52292264491723       -190.89332606018192       -189.60653390803304     
 PAO|LS| adapt: suggested step_size:   0.20532870282346968     
 PAO|LS| adapt: predicted energy  -190.95666863826995     
 PAO| ======================= Iteration:         9 =============================

     Lanczos converged:  F threshold:   0.100E-02
     Est. extremal eigenvalues:    0.491E+01   0.125E+00
     Est. condition number :    0.392E+02

 Order=           3
     NS sqrt iter    1 1.00000000   0.125E+01       0.021     2707.185
     NS sqrt iter    2 1.00000000   0.647E+00       0.033     3387.399
     NS sqrt iter    3 1.00000000   0.214E+00       0.033     3382.006
     NS sqrt iter    4 1.00000000   0.302E-01       0.033     3389.340
     NS sqrt iter    5 1.00000000   0.185E-03       0.033     3414.222
     NS sqrt iter    6 1.00000000   0.114E-09       0.026     2531.323
     Symmetrizing Results
     Final NS sqrt iter    6 1.00000000   0.154E-11

     Est. extremal eigenvalues     -0.82994     2.59766  converged:  T
     TRS4 it   1 1.00000000   0.284E+02       0.007     2162.389   0.100E-11
     TRS4 it   2 1.00000000   0.235E+02       0.013     2217.283   0.100E-11
     TRS4 it   3 1.00000000   0.155E+02       0.013     2214.715   0.100E-11
     TRS4 it   4 1.00000000   0.904E+01       0.013     2218.092   0.100E-11
     TRS4 it   5 1.00000000   0.380E+01       0.013     2214.431   0.100E-11
     TRS4 it   6 1.00000000   0.990E+00       0.013     2218.263   0.100E-11
     TRS4 it   7 1.00000000   0.124E+00       0.013     2213.587   0.100E-11
     TRS4 it   8 1.00000000   0.292E-02       0.013     2214.784   0.100E-11
     TRS4 it   9 1.00000000   0.212E-05       0.013     2193.441   0.100E-11
     TRS4 it  10 1.00000000   0.251E-11       0.013     2223.780   0.100E-11
     Final TRS4 iteration   10 1.00000000   0.251E-11
     Chemical potential (mu):       0.04967
 
 PAO| energy:  -190.96098466054792      penalty:   4.9951262443573318E-004
 PAO|CG| trace_G_new   0.72200575002796996     
 PAO|CG| trace_G_prev    4.3201355648952982     
 PAO|CG| trace_G_mix   -4.1845900915767294E-002
 PAO|CG| trace_D    4.3201355648952982     
 PAO|CG| trace_D_Gnew   4.1845900915767294E-002
 PAO|CG| beta:   0.17681196329825122     
 PAO| norm of gradient:  0.84970921498355545     
 PAO| energy improvement: -0.43806201563069180     
 PAO| step      9                 -190.960984661  0.166E-02  0.205E+00     1.534
 PAO|LS| adapt:  T F F
 PAO|LS| adapt: scan_steps:    0.0000000000000000        0.0000000000000000        0.0000000000000000     
 PAO|LS| adapt: energies:   -190.96098466054792        0.0000000000000000        0.0000000000000000     
 PAO| ======================= Iteration:        10 =============================

     Lanczos converged:  F threshold:   0.100E-02
     Est. extremal eigenvalues:    0.486E+01   0.129E+00
     Est. condition number :    0.378E+02

 Order=           3
     NS sqrt iter    1 1.00000000   0.124E+01       0.021     2667.777
     NS sqrt iter    2 1.00000000   0.638E+00       0.034     3355.616
     NS sqrt iter    3 1.00000000   0.209E+00       0.034     3362.489
     NS sqrt iter    4 1.00000000   0.281E-01       0.034     3356.813
     NS sqrt iter    5 1.00000000   0.148E-03       0.034     3371.615
     NS sqrt iter    6 1.00000000   0.584E-10       0.023     2375.816
     Symmetrizing Results
     Final NS sqrt iter    6 1.00000000   0.208E-11

     Est. extremal eigenvalues     -0.83059     2.58402  converged:  T
     TRS4 it   1 1.00000000   0.284E+02       0.007     2162.721   0.100E-11
     TRS4 it   2 1.00000000   0.234E+02       0.013     2211.329   0.100E-11
     TRS4 it   3 1.00000000   0.155E+02       0.013     2222.923   0.100E-11
     TRS4 it   4 1.00000000   0.902E+01       0.013     2225.350   0.100E-11
     TRS4 it   5 1.00000000   0.378E+01       0.013     2209.790   0.100E-11
     TRS4 it   6 1.00000000   0.978E+00       0.013     2205.759   0.100E-11
     TRS4 it   7 1.00000000   0.121E+00       0.013     2216.488   0.100E-11
     TRS4 it   8 1.00000000   0.278E-02       0.013     2206.407   0.100E-11
     TRS4 it   9 1.00000000   0.191E-05       0.013     2220.144   0.100E-11
     TRS4 it  10 1.00000000   0.200E-11       0.013     2213.468   0.100E-11
     Final TRS4 iteration   10 1.00000000   0.200E-11
     Chemical potential (mu):       0.05045
 
 PAO| energy:  -191.06015078245767      penalty:   5.0158264256600408E-004
 PAO|LS| adapt:  T T F
 PAO|LS| adapt: scan_steps:    0.0000000000000000       0.20532870282346968        0.0000000000000000     
 PAO|LS| adapt: energies:   -190.96098466054792       -191.06015078245767        0.0000000000000000     
 PAO| ======================= Iteration:        11 =============================

     Lanczos converged:  F threshold:   0.100E-02
     Est. extremal eigenvalues:    0.481E+01   0.132E+00
     Est. condition number :    0.365E+02

 Order=           3
     NS sqrt iter    1 1.00000000   0.123E+01       0.021     2691.761
     NS sqrt iter    2 1.00000000   0.630E+00       0.034     3358.978
     NS sqrt iter    3 1.00000000   0.203E+00       0.034     3366.946
     NS sqrt iter    4 1.00000000   0.260E-01       0.034     3369.099
     NS sqrt iter    5 1.00000000   0.118E-03       0.034     3365.921
     NS sqrt iter    6 1.00000000   0.294E-10       0.019     2234.370
     Symmetrizing Results
     Final NS sqrt iter    6 1.00000000   0.225E-11

     Est. extremal eigenvalues     -0.83063     2.57000  converged:  T
     TRS4 it   1 1.00000000   0.283E+02       0.007     2122.372   0.100E-11
     TRS4 it   2 1.00000000   0.234E+02       0.013     2203.718   0.100E-11
     TRS4 it   3 1.00000000   0.155E+02       0.013     2209.283   0.100E-11
     TRS4 it   4 1.00000000   0.899E+01       0.013     2222.070   0.100E-11
     TRS4 it   5 1.00000000   0.375E+01       0.013     2230.607   0.100E-11
     TRS4 it   6 1.00000000   0.963E+00       0.013     2224.444   0.100E-11
     TRS4 it   7 1.00000000   0.117E+00       0.013     2227.100   0.100E-11
     TRS4 it   8 1.00000000   0.261E-02       0.013     2219.083   0.100E-11
     TRS4 it   9 1.00000000   0.169E-05       0.013     2204.243   0.100E-11
     TRS4 it  10 1.00000000   0.157E-11       0.013     2219.477   0.100E-11
     Final TRS4 iteration   10 1.00000000   0.157E-11
     Chemical potential (mu):       0.05131
 
 PAO| energy:  -191.06678994747131      penalty:   5.1330697561449072E-004
 PAO|LS| adapt:  T T F
 PAO|LS| adapt: scan_steps:    0.0000000000000000       0.41065740564693937        0.0000000000000000     
 PAO|LS| adapt: energies:   -190.96098466054792       -191.06678994747131        0.0000000000000000     
 PAO| ======================= Iteration:        12 =============================

     Lanczos converged:  F threshold:   0.100E-02
     Est. extremal eigenvalues:    0.471E+01   0.139E+00
     Est. condition number :    0.339E+02

 Order=           3
     NS sqrt iter    1 1.00000000   0.121E+01       0.021     2694.274
     NS sqrt iter    2 1.00000000   0.614E+00       0.033     3384.362
     NS sqrt iter    3 1.00000000   0.193E+00       0.033     3397.668
     NS sqrt iter    4 1.00000000   0.224E-01       0.034     3378.108
     NS sqrt iter    5 1.00000000   0.746E-04       0.034     3364.893
     NS sqrt iter    6 1.00000000   0.703E-11       0.014     2145.650
     Symmetrizing Results
     Final NS sqrt iter    6 1.00000000   0.137E-11

     Est. extremal eigenvalues     -0.82912     2.54186  converged:  T
     TRS4 it   1 1.00000000   0.283E+02       0.007     2137.248   0.100E-11
     TRS4 it   2 1.00000000   0.232E+02       0.013     2206.073   0.100E-11
     TRS4 it   3 1.00000000   0.154E+02       0.013     2202.534   0.100E-11
     TRS4 it   4 1.00000000   0.892E+01       0.013     2235.453   0.100E-11
     TRS4 it   5 1.00000000   0.368E+01       0.013     2213.134   0.100E-11
     TRS4 it   6 1.00000000   0.927E+00       0.013     2216.891   0.100E-11
     TRS4 it   7 1.00000000   0.109E+00       0.013     2224.244   0.100E-11
     TRS4 it   8 1.00000000   0.223E-02       0.013     2226.943   0.100E-11
     TRS4 it   9 1.00000000   0.126E-05       0.013     2218.204   0.100E-11
     TRS4 it  10 1.00000000   0.870E-12       0.013     2221.069   0.100E-11
     Final TRS4 iteration   10 1.00000000   0.870E-12
     Chemical potential (mu):       0.05322
 
 PAO| energy:  -190.81884568823332      penalty:   5.7251669801075154E-004
 PAO|LS| Need extra step
 PAO|LS| adapt:  T T T
 PAO|LS| adapt: scan_steps:    0.0000000000000000       0.41065740564693937       0.82131481129387873     
 PAO|LS| adapt: energies:   -190.96098466054792       -191.06678994747131       -190.81884568823332     
 PAO|LS| adapt: suggested step_size:   0.32815493709902432     
 PAO|LS| adapt: predicted energy  -191.07392899813226     
 PAO| ======================= Iteration:        13 =============================

     Lanczos converged:  F threshold:   0.100E-02
     Est. extremal eigenvalues:    0.483E+01   0.131E+00
     Est. condition number :    0.370E+02

 Order=           3
     NS sqrt iter    1 1.00000000   0.124E+01       0.021     2695.349
     NS sqrt iter    2 1.00000000   0.633E+00       0.034     3377.978
     NS sqrt iter    3 1.00000000   0.205E+00       0.033     3386.452
     NS sqrt iter    4 1.00000000   0.268E-01       0.033     3389.540
     NS sqrt iter    5 1.00000000   0.129E-03       0.034     3379.525
     NS sqrt iter    6 1.00000000   0.388E-10       0.021     2285.150
     Symmetrizing Results
     Final NS sqrt iter    6 1.00000000   0.226E-11

     Est. extremal eigenvalues     -0.83068     2.57566  converged:  T
     TRS4 it   1 1.00000000   0.284E+02       0.007     2080.092   0.100E-11
     TRS4 it   2 1.00000000   0.234E+02       0.013     2218.685   0.100E-11
     TRS4 it   3 1.00000000   0.155E+02       0.013     2209.560   0.100E-11
     TRS4 it   4 1.00000000   0.900E+01       0.013     2216.896   0.100E-11
     TRS4 it   5 1.00000000   0.376E+01       0.013     2233.656   0.100E-11
     TRS4 it   6 1.00000000   0.970E+00       0.013     2204.855   0.100E-11
     TRS4 it   7 1.00000000   0.119E+00       0.013     2216.088   0.100E-11
     TRS4 it   8 1.00000000   0.268E-02       0.013     2216.754   0.100E-11
     TRS4 it   9 1.00000000   0.178E-05       0.013     2223.566   0.100E-11
     TRS4 it  10 1.00000000   0.177E-11       0.013     2210.003   0.100E-11
     Final TRS4 iteration   10 1.00000000   0.177E-11
     Chemical potential (mu):       0.05096
 
 PAO| energy:  -191.07498645995855      penalty:   5.0735770687377734E-004
 PAO|CG| trace_G_new   0.26898662277369773     
 PAO|CG| trace_G_prev   0.72200575002796996     
 PAO|CG| trace_G_mix   -1.1513813032638825E-002
 PAO|CG| trace_D   0.84226614830614077     
 PAO|CG| trace_D_Gnew   1.1691976535885381E-002
 PAO|CG| beta:   0.38850166469653485     
 PAO| norm of gradient:  0.51863920288934751     
 PAO| energy improvement: -0.11400179941063016     
 PAO| step     13                 -191.074986460  0.101E-02  0.328E+00     1.964
 PAO|LS| adapt:  T F F
 PAO|LS| adapt: scan_steps:    0.0000000000000000        0.0000000000000000        0.0000000000000000     
 PAO|LS| adapt: energies:   -191.07498645995855        0.0000000000000000        0.0000000000000000     
 PAO| ======================= Iteration:        14 =============================

     Lanczos converged:  F threshold:   0.100E-02
     Est. extremal eigenvalues:    0.476E+01   0.133E+00
     Est. condition number :    0.358E+02

 Order=           3
     NS sqrt iter    1 1.00000000   0.122E+01       0.021     2692.232
     NS sqrt iter    2 1.00000000   0.623E+00       0.034     3373.951
     NS sqrt iter    3 1.00000000   0.199E+00       0.034     3373.409
     NS sqrt iter    4 1.00000000   0.248E-01       0.034     3369.691
     NS sqrt iter    5 1.00000000   0.104E-03       0.034     3378.466
     NS sqrt iter    6 1.00000000   0.205E-10       0.017     2175.302
     Symmetrizing Results
     Final NS sqrt iter    6 1.00000000   0.209E-11

     Est. extremal eigenvalues     -0.83130     2.57098  converged:  T
     TRS4 it   1 1.00000000   0.284E+02       0.007     2149.312   0.100E-11
     TRS4 it   2 1.00000000   0.234E+02       0.013     2214.586   0.100E-11
     TRS4 it   3 1.00000000   0.154E+02       0.013     2215.814   0.100E-11
     TRS4 it   4 1.00000000   0.895E+01       0.013     2211.485   0.100E-11
     TRS4 it   5 1.00000000   0.371E+01       0.013     2220.307   0.100E-11
     TRS4 it   6 1.00000000   0.942E+00       0.013     2244.366   0.100E-11
     TRS4 it   7 1.00000000   0.112E+00       0.013     2225.225   0.100E-11
     TRS4 it   8 1.00000000   0.238E-02       0.013     2223.269   0.100E-11
     TRS4 it   9 1.00000000   0.141E-05       0.013     2203.912   0.100E-11
     TRS4 it  10 1.00000000   0.106E-11       0.013     2225.282   0.100E-11
     Final TRS4 iteration   10 1.00000000   0.106E-11
     Chemical potential (mu):       0.05276
 
 PAO| energy:  -191.12563118008273      penalty:   5.0839646962286429E-004
 PAO|LS| adapt:  T T F
 PAO|LS| adapt: scan_steps:    0.0000000000000000       0.32815493709902432        0.0000000000000000     
 PAO|LS| adapt: energies:   -191.07498645995855       -191.12563118008273        0.0000000000000000     
 PAO| ======================= Iteration:        15 =============================

     Lanczos converged:  F threshold:   0.100E-02
     Est. extremal eigenvalues:    0.470E+01   0.135E+00
     Est. condition number :    0.347E+02

 Order=           3
     NS sqrt iter    1 1.00000000   0.121E+01       0.021     2702.632
     NS sqrt iter    2 1.00000000   0.613E+00       0.033     3393.921
     NS sqrt iter    3 1.00000000   0.193E+00       0.033     3397.956
     NS sqrt iter    4 1.00000000   0.230E-01       0.033     3397.179
     NS sqrt iter    5 1.00000000   0.839E-04       0.034     3374.816
     NS sqrt iter    6 1.00000000   0.109E-10       0.015     2164.560
     Symmetrizing Results
     Final NS sqrt iter    6 1.00000000   0.170E-11

     Est. extremal eigenvalues     -0.83135     2.56620  converged:  T
     TRS4 it   1 1.00000000   0.284E+02       0.007     2132.808   0.100E-11
     TRS4 it   2 1.00000000   0.233E+02       0.013     2210.036   0.100E-11
     TRS4 it   3 1.00000000   0.154E+02       0.013     2200.819   0.100E-11
     TRS4 it   4 1.00000000   0.889E+01       0.013     2225.331   0.100E-11
     TRS4 it   5 1.00000000   0.365E+01       0.013     2224.583   0.100E-11
     TRS4 it   6 1.00000000   0.914E+00       0.013     2224.289   0.100E-11
     TRS4 it   7 1.00000000   0.106E+00       0.013     2227.457   0.100E-11
     TRS4 it   8 1.00000000   0.212E-02       0.013     2203.875   0.100E-11
     TRS4 it   9 1.00000000   0.112E-05       0.013     2238.292   0.100E-11
     TRS4 it  10 1.00000000   0.675E-12       0.013     2238.592   0.100E-11
     Final TRS4 iteration   10 1.00000000   0.675E-12
     Chemical potential (mu):       0.05445
 
 PAO| energy:  -191.10513567539243      penalty:   5.2370271135341055E-004
 PAO|LS| adapt:  T T T
 PAO|LS| adapt: scan_steps:    0.0000000000000000       0.32815493709902432       0.65630987419804865     
 PAO|LS| adapt: energies:   -191.07498645995855       -191.12563118008273       -191.10513567539243     
 PAO|LS| adapt: suggested step_size:   0.39769094095682667     
 PAO|LS| adapt: predicted energy  -191.12722833414298     
 PAO| ======================= Iteration:        16 =============================

     Lanczos converged:  F threshold:   0.100E-02
     Est. extremal eigenvalues:    0.475E+01   0.133E+00
     Est. condition number :    0.356E+02

 Order=           3
     NS sqrt iter    1 1.00000000   0.122E+01       0.021     2717.805
     NS sqrt iter    2 1.00000000   0.621E+00       0.033     3396.460
     NS sqrt iter    3 1.00000000   0.198E+00       0.033     3401.414
     NS sqrt iter    4 1.00000000   0.244E-01       0.033     3407.438
     NS sqrt iter    5 1.00000000   0.992E-04       0.033     3395.359
     NS sqrt iter    6 1.00000000   0.179E-10       0.017     2182.610
     Symmetrizing Results
     Final NS sqrt iter    6 1.00000000   0.202E-11

     Est. extremal eigenvalues     -0.83135     2.56997  converged:  T
     TRS4 it   1 1.00000000   0.284E+02       0.007     2134.856   0.100E-11
     TRS4 it   2 1.00000000   0.234E+02       0.013     2221.570   0.100E-11
     TRS4 it   3 1.00000000   0.154E+02       0.013     2229.375   0.100E-11
     TRS4 it   4 1.00000000   0.894E+01       0.013     2229.303   0.100E-11
     TRS4 it   5 1.00000000   0.370E+01       0.013     2211.021   0.100E-11
     TRS4 it   6 1.00000000   0.936E+00       0.013     2216.100   0.100E-11
     TRS4 it   7 1.00000000   0.111E+00       0.013     2201.042   0.100E-11
     TRS4 it   8 1.00000000   0.232E-02       0.013     2220.535   0.100E-11
     TRS4 it   9 1.00000000   0.134E-05       0.013     2221.794   0.100E-11
     TRS4 it  10 1.00000000   0.952E-12       0.013     2222.174   0.100E-11
     Final TRS4 iteration   10 1.00000000   0.952E-12
     Chemical potential (mu):       0.05313
 
 PAO| energy:  -191.12717047459304      penalty:   5.1040330973172138E-004
 PAO|CG| trace_G_new   0.10261828199176297     
 PAO|CG| trace_G_prev   0.26898662277369773     
 PAO|CG| trace_G_mix    4.2507705024665198E-003
 PAO|CG| trace_D   0.38702813238847023     
 PAO|CG| trace_D_Gnew   7.5582177937744436E-004
 PAO|CG| beta:   0.36569666727276040     
 PAO| norm of gradient:  0.32034088404660899     
 PAO| energy improvement:  -5.2184014634491405E-002
 PAO| step     16                 -191.127170475  0.626E-03  0.398E+00     1.502
 PAO|LS| adapt:  T F F
 PAO|LS| adapt: scan_steps:    0.0000000000000000        0.0000000000000000        0.0000000000000000     
 PAO|LS| adapt: energies:   -191.12717047459304        0.0000000000000000        0.0000000000000000     
 PAO| ======================= Iteration:        17 =============================

     Lanczos converged:  F threshold:   0.100E-02
     Est. extremal eigenvalues:    0.471E+01   0.134E+00
     Est. condition number :    0.351E+02

 Order=           3
     NS sqrt iter    1 1.00000000   0.121E+01       0.021     2707.417
     NS sqrt iter    2 1.00000000   0.616E+00       0.034     3375.951
     NS sqrt iter    3 1.00000000   0.195E+00       0.034     3369.049
     NS sqrt iter    4 1.00000000   0.236E-01       0.034     3349.219
     NS sqrt iter    5 1.00000000   0.905E-04       0.034     3372.167
     NS sqrt iter    6 1.00000000   0.136E-10       0.016     2160.671
     Symmetrizing Results
     Final NS sqrt iter    6 1.00000000   0.183E-11

     Est. extremal eigenvalues     -0.83144     2.56833  converged:  T
     TRS4 it   1 1.00000000   0.284E+02       0.007     2139.942   0.100E-11
     TRS4 it   2 1.00000000   0.233E+02       0.013     2232.898   0.100E-11
     TRS4 it   3 1.00000000   0.154E+02       0.013     2207.250   0.100E-11
     TRS4 it   4 1.00000000   0.889E+01       0.013     2215.233   0.100E-11
     TRS4 it   5 1.00000000   0.365E+01       0.013     2216.390   0.100E-11
     TRS4 it   6 1.00000000   0.916E+00       0.013     2200.423   0.100E-11
     TRS4 it   7 1.00000000   0.107E+00       0.013     2201.398   0.100E-11
     TRS4 it   8 1.00000000   0.214E-02       0.013     2211.221   0.100E-11
     TRS4 it   9 1.00000000   0.114E-05       0.013     2233.148   0.100E-11
     TRS4 it  10 1.00000000   0.707E-12       0.013     2216.739   0.100E-11
     Final TRS4 iteration   10 1.00000000   0.707E-12
     Chemical potential (mu):       0.05426
 
 PAO| energy:  -191.13132398635742      penalty:   5.0238360936825791E-004
 PAO|LS| adapt:  T T F
 PAO|LS| adapt: scan_steps:    0.0000000000000000       0.39769094095682667        0.0000000000000000     
 PAO|LS| adapt: energies:   -191.12717047459304       -191.13132398635742        0.0000000000000000     
 PAO| ======================= Iteration:        18 =============================

     Lanczos converged:  F threshold:   0.100E-02
     Est. extremal eigenvalues:    0.467E+01   0.135E+00
     Est. condition number :    0.346E+02

 Order=           3
     NS sqrt iter    1 1.00000000   0.120E+01       0.021     2723.725
     NS sqrt iter    2 1.00000000   0.611E+00       0.033     3389.514
     NS sqrt iter    3 1.00000000   0.193E+00       0.033     3398.190
     NS sqrt iter    4 1.00000000   0.229E-01       0.033     3384.287
     NS sqrt iter    5 1.00000000   0.827E-04       0.033     3381.443
     NS sqrt iter    6 1.00000000   0.104E-10       0.015     2151.449
     Symmetrizing Results
     Final NS sqrt iter    6 1.00000000   0.168E-11

     Est. extremal eigenvalues     -0.83133     2.56658  converged:  T
     TRS4 it   1 1.00000000   0.285E+02       0.007     2142.087   0.100E-11
     TRS4 it   2 1.00000000   0.233E+02       0.013     2219.913   0.100E-11
     TRS4 it   3 1.00000000   0.154E+02       0.013     2213.191   0.100E-11
     TRS4 it   4 1.00000000   0.885E+01       0.013     2237.511   0.100E-11
     TRS4 it   5 1.00000000   0.361E+01       0.013     2234.018   0.100E-11
     TRS4 it   6 1.00000000   0.897E+00       0.013     2234.309   0.100E-11
     TRS4 it   7 1.00000000   0.103E+00       0.013     2215.452   0.100E-11
     TRS4 it   8 1.00000000   0.198E-02       0.013     2211.769   0.100E-11
     TRS4 it   9 1.00000000   0.971E-06       0.013     2210.134   0.100E-11
     TRS4 it  10 1.00000000   0.529E-12       0.013     2217.644   0.100E-11
     Final TRS4 iteration   10 1.00000000   0.529E-12
     Chemical potential (mu):       0.05543
 
 PAO| energy:  -191.06219867114672      penalty:   5.0188491885931510E-004
 PAO|LS| adapt:  T T T
 PAO|LS| adapt: scan_steps:    0.0000000000000000       0.39769094095682667       0.79538188191365333     
 PAO|LS| adapt: energies:   -191.12717047459304       -191.13132398635742       -191.06219867114672     
 PAO|LS| adapt: suggested step_size:   0.22138696124777632     
 PAO|LS| adapt: predicted energy  -191.13852479629347     
 PAO| ======================= Iteration:        19 =============================

     Lanczos converged:  F threshold:   0.100E-02
     Est. extremal eigenvalues:    0.473E+01   0.134E+00
     Est. condition number :    0.353E+02

 Order=           3
     NS sqrt iter    1 1.00000000   0.121E+01       0.021     2694.705
     NS sqrt iter    2 1.00000000   0.618E+00       0.033     3387.477
     NS sqrt iter    3 1.00000000   0.196E+00       0.034     3343.210
     NS sqrt iter    4 1.00000000   0.240E-01       0.034     3362.150
     NS sqrt iter    5 1.00000000   0.942E-04       0.034     3372.025
     NS sqrt iter    6 1.00000000   0.154E-10       0.016     2162.813
     Symmetrizing Results
     Final NS sqrt iter    6 1.00000000   0.190E-11

     Est. extremal eigenvalues     -0.83142     2.56907  converged:  T
     TRS4 it   1 1.00000000   0.284E+02       0.007     2139.613   0.100E-11
     TRS4 it   2 1.00000000   0.234E+02       0.013     2239.985   0.100E-11
     TRS4 it   3 1.00000000   0.154E+02       0.013     2202.642   0.100E-11
     TRS4 it   4 1.00000000   0.891E+01       0.013     2216.413   0.100E-11
     TRS4 it   5 1.00000000   0.367E+01       0.013     2222.276   0.100E-11
     TRS4 it   6 1.00000000   0.925E+00       0.013     2216.342   0.100E-11
     TRS4 it   7 1.00000000   0.108E+00       0.013     2226.396   0.100E-11
     TRS4 it   8 1.00000000   0.222E-02       0.013     2196.630   0.100E-11
     TRS4 it   9 1.00000000   0.123E-05       0.013     2205.287   0.100E-11
     TRS4 it  10 1.00000000   0.840E-12       0.013     2229.190   0.100E-11
     Final TRS4 iteration   10 1.00000000   0.840E-12
     Chemical potential (mu):       0.05376
 
 PAO| energy:  -191.13850973154763      penalty:   5.0502436113962642E-004
 PAO|CG| trace_G_new    2.1656418580503906E-002
 PAO|CG| trace_G_prev   0.10261828199176297     
 PAO|CG| trace_G_mix   -3.3729521868603932E-004
 PAO|CG| trace_D   0.15382431953839165     
 PAO|CG| trace_D_Gnew  -5.0016803784282734E-005
 PAO|CG| beta:   0.21432549222520944     
 PAO| norm of gradient:  0.14716119930370200     
 PAO| energy improvement:  -1.1339256954585153E-002
 PAO| step     19                 -191.138509732  0.287E-03  0.221E+00     1.491
 PAO|LS| adapt:  T F F
 PAO|LS| adapt: scan_steps:    0.0000000000000000        0.0000000000000000        0.0000000000000000     
 PAO|LS| adapt: energies:   -191.13850973154763        0.0000000000000000        0.0000000000000000     
 PAO| ======================= Iteration:        20 =============================

     Lanczos converged:  F threshold:   0.100E-02
     Est. extremal eigenvalues:    0.472E+01   0.134E+00
     Est. condition number :    0.353E+02

 Order=           3
     NS sqrt iter    1 1.00000000   0.121E+01       0.021     2681.570
     NS sqrt iter    2 1.00000000   0.617E+00       0.033     3384.652
     NS sqrt iter    3 1.00000000   0.196E+00       0.033     3389.118
     NS sqrt iter    4 1.00000000   0.239E-01       0.033     3392.811
     NS sqrt iter    5 1.00000000   0.938E-04       0.034     3370.058
     NS sqrt iter    6 1.00000000   0.151E-10       0.016     2162.210
     Symmetrizing Results
     Final NS sqrt iter    6 1.00000000   0.190E-11

     Est. extremal eigenvalues     -0.83143     2.56807  converged:  T
     TRS4 it   1 1.00000000   0.284E+02       0.007     2134.066   0.100E-11
     TRS4 it   2 1.00000000   0.233E+02       0.013     2212.998   0.100E-11
     TRS4 it   3 1.00000000   0.154E+02       0.013     2239.522   0.100E-11
     TRS4 it   4 1.00000000   0.890E+01       0.013     2230.671   0.100E-11
     TRS4 it   5 1.00000000   0.366E+01       0.013     2228.572   0.100E-11
     TRS4 it   6 1.00000000   0.920E+00       0.013     2223.714   0.100E-11
     TRS4 it   7 1.00000000   0.108E+00       0.013     2209.710   0.100E-11
     TRS4 it   8 1.00000000   0.218E-02       0.013     2239.717   0.100E-11
     TRS4 it   9 1.00000000   0.119E-05       0.013     2206.205   0.100E-11
     TRS4 it  10 1.00000000   0.785E-12       0.013     2238.777   0.100E-11
     Final TRS4 iteration   10 1.00000000   0.785E-12
     Chemical potential (mu):       0.05396
 
 PAO| energy:  -191.14237862742959      penalty:   4.9520707024694433E-004
 PAO|LS| adapt:  T T F
 PAO|LS| adapt: scan_steps:    0.0000000000000000       0.22138696124777632        0.0000000000000000     
 PAO|LS| adapt: energies:   -191.13850973154763       -191.14237862742959        0.0000000000000000     
 PAO| ======================= Iteration:        21 =============================

     Lanczos converged:  F threshold:   0.100E-02
     Est. extremal eigenvalues:    0.472E+01   0.134E+00
     Est. condition number :    0.352E+02

 Order=           3
     NS sqrt iter    1 1.00000000   0.121E+01       0.021     2705.044
     NS sqrt iter    2 1.00000000   0.617E+00       0.034     3375.686
     NS sqrt iter    3 1.00000000   0.196E+00       0.033     3384.597
     NS sqrt iter    4 1.00000000   0.239E-01       0.034     3367.445
     NS sqrt iter    5 1.00000000   0.934E-04       0.034     3348.921
     NS sqrt iter    6 1.00000000   0.148E-10       0.016     2163.470
     Symmetrizing Results
     Final NS sqrt iter    6 1.00000000   0.188E-11

     Est. extremal eigenvalues     -0.83144     2.56705  converged:  T
     TRS4 it   1 1.00000000   0.284E+02       0.007     2112.281   0.100E-11
     TRS4 it   2 1.00000000   0.233E+02       0.013     2193.571   0.100E-11
     TRS4 it   3 1.00000000   0.154E+02       0.013     2236.224   0.100E-11
     TRS4 it   4 1.00000000   0.889E+01       0.013     2215.964   0.100E-11
     TRS4 it   5 1.00000000   0.365E+01       0.013     2232.651   0.100E-11
     TRS4 it   6 1.00000000   0.916E+00       0.013     2217.817   0.100E-11
     TRS4 it   7 1.00000000   0.107E+00       0.013     2213.446   0.100E-11
     TRS4 it   8 1.00000000   0.215E-02       0.013     2233.073   0.100E-11
     TRS4 it   9 1.00000000   0.115E-05       0.013     2199.591   0.100E-11
     TRS4 it  10 1.00000000   0.700E-12       0.013     2214.422   0.100E-11
     Final TRS4 iteration   10 1.00000000   0.700E-12
     Chemical potential (mu):       0.05417
 
 PAO| energy:  -191.14437845634561      penalty:   4.8583551648518535E-004
 PAO|LS| adapt:  T T F
 PAO|LS| adapt: scan_steps:    0.0000000000000000       0.44277392249555264        0.0000000000000000     
 PAO|LS| adapt: energies:   -191.13850973154763       -191.14437845634561        0.0000000000000000     
 PAO| ======================= Iteration:        22 =============================

     Lanczos converged:  F threshold:   0.100E-02
     Est. extremal eigenvalues:    0.470E+01   0.134E+00
     Est. condition number :    0.352E+02

 Order=           3
     NS sqrt iter    1 1.00000000   0.121E+01       0.021     2708.863
     NS sqrt iter    2 1.00000000   0.616E+00       0.033     3384.751
     NS sqrt iter    3 1.00000000   0.196E+00       0.033     3390.664
     NS sqrt iter    4 1.00000000   0.239E-01       0.033     3389.285
     NS sqrt iter    5 1.00000000   0.927E-04       0.034     3377.682
     NS sqrt iter    6 1.00000000   0.144E-10       0.016     2156.122
     Symmetrizing Results
     Final NS sqrt iter    6 1.00000000   0.186E-11

     Est. extremal eigenvalues     -0.83143     2.56501  converged:  T
     TRS4 it   1 1.00000000   0.284E+02       0.007     2123.071   0.100E-11
     TRS4 it   2 1.00000000   0.233E+02       0.013     2203.058   0.100E-11
     TRS4 it   3 1.00000000   0.154E+02       0.013     2213.325   0.100E-11
     TRS4 it   4 1.00000000   0.886E+01       0.013     2215.089   0.100E-11
     TRS4 it   5 1.00000000   0.363E+01       0.013     2196.923   0.100E-11
     TRS4 it   6 1.00000000   0.908E+00       0.013     2185.427   0.100E-11
     TRS4 it   7 1.00000000   0.105E+00       0.013     2221.421   0.100E-11
     TRS4 it   8 1.00000000   0.208E-02       0.013     2199.057   0.100E-11
     TRS4 it   9 1.00000000   0.108E-05       0.013     2187.007   0.100E-11
     TRS4 it  10 1.00000000   0.654E-12       0.013     2204.360   0.100E-11
     Final TRS4 iteration   10 1.00000000   0.654E-12
     Chemical potential (mu):       0.05459
 
 PAO| energy:  -191.14269091727584      penalty:   4.6840027134768439E-004
 PAO|LS| Need extra step
 PAO|LS| adapt:  T T T
 PAO|LS| adapt: scan_steps:    0.0000000000000000       0.44277392249555264       0.88554784499110528     
 PAO|LS| adapt: energies:   -191.13850973154763       -191.14437845634561       -191.14269091727584     
 PAO|LS| adapt: suggested step_size:   0.56527626214169535     
 PAO|LS| adapt: predicted energy  -191.14466765869483     
 PAO| ======================= Iteration:        23 =============================

     Lanczos converged:  F threshold:   0.100E-02
     Est. extremal eigenvalues:    0.471E+01   0.134E+00
     Est. condition number :    0.352E+02

 Order=           3
     NS sqrt iter    1 1.00000000   0.121E+01       0.021     2684.555
     NS sqrt iter    2 1.00000000   0.617E+00       0.034     3375.123
     NS sqrt iter    3 1.00000000   0.196E+00       0.034     3377.915
     NS sqrt iter    4 1.00000000   0.239E-01       0.034     3359.178
     NS sqrt iter    5 1.00000000   0.932E-04       0.033     3389.290
     NS sqrt iter    6 1.00000000   0.147E-10       0.016     2170.388
     Symmetrizing Results
     Final NS sqrt iter    6 1.00000000   0.188E-11

     Est. extremal eigenvalues     -0.83144     2.56649  converged:  T
     TRS4 it   1 1.00000000   0.284E+02       0.007     2176.668   0.100E-11
     TRS4 it   2 1.00000000   0.233E+02       0.013     2205.537   0.100E-11
     TRS4 it   3 1.00000000   0.154E+02       0.013     2213.644   0.100E-11
     TRS4 it   4 1.00000000   0.888E+01       0.013     2237.615   0.100E-11
     TRS4 it   5 1.00000000   0.365E+01       0.013     2217.601   0.100E-11
     TRS4 it   6 1.00000000   0.914E+00       0.013     2213.124   0.100E-11
     TRS4 it   7 1.00000000   0.106E+00       0.013     2234.700   0.100E-11
     TRS4 it   8 1.00000000   0.213E-02       0.013     2215.840   0.100E-11
     TRS4 it   9 1.00000000   0.113E-05       0.013     2187.632   0.100E-11
     TRS4 it  10 1.00000000   0.709E-12       0.013     2220.268   0.100E-11
     Final TRS4 iteration   10 1.00000000   0.709E-12
     Chemical potential (mu):       0.05428
 
 PAO| energy:  -191.14467449425462      penalty:   4.8083853140654310E-004
 PAO|CG| trace_G_new    1.7052732720800684E-002
 PAO|CG| trace_G_prev    2.1656418580503906E-002
 PAO|CG| trace_G_mix    1.0585227831052513E-004
 PAO|CG| trace_D    2.8743842536596616E-002
 PAO|CG| trace_D_Gnew  -4.6614002547469842E-005
 PAO|CG| beta:   0.78253384231068168     
 PAO| norm of gradient:  0.13058611228151593     
 PAO| energy improvement:  -6.1647627069874034E-003
 PAO| step     23                 -191.144674494  0.255E-03  0.565E+00     1.950
 PAO|LS| adapt:  T F F
 PAO|LS| adapt: scan_steps:    0.0000000000000000        0.0000000000000000        0.0000000000000000     
 PAO|LS| adapt: energies:   -191.14467449425462        0.0000000000000000        0.0000000000000000     
 PAO| ======================= Iteration:        24 =============================

     Lanczos converged:  F threshold:   0.100E-02
     Est. extremal eigenvalues:    0.470E+01   0.134E+00
     Est. condition number :    0.351E+02

 Order=           3
     NS sqrt iter    1 1.00000000   0.121E+01       0.021     2702.926
     NS sqrt iter    2 1.00000000   0.615E+00       0.034     3332.891
     NS sqrt iter    3 1.00000000   0.196E+00       0.034     3358.329
     NS sqrt iter    4 1.00000000   0.238E-01       0.034     3340.890
     NS sqrt iter    5 1.00000000   0.927E-04       0.034     3374.739
     NS sqrt iter    6 1.00000000   0.144E-10       0.016     2155.268
     Symmetrizing Results
     Final NS sqrt iter    6 1.00000000   0.186E-11

     Est. extremal eigenvalues     -0.83144     2.56354  converged:  T
     TRS4 it   1 1.00000000   0.284E+02       0.007     2129.438   0.100E-11
     TRS4 it   2 1.00000000   0.233E+02       0.013     2184.749   0.100E-11
     TRS4 it   3 1.00000000   0.154E+02       0.013     2234.949   0.100E-11
     TRS4 it   4 1.00000000   0.886E+01       0.013     2233.798   0.100E-11
     TRS4 it   5 1.00000000   0.363E+01       0.013     2217.031   0.100E-11
     TRS4 it   6 1.00000000   0.904E+00       0.013     2234.528   0.100E-11
     TRS4 it   7 1.00000000   0.104E+00       0.013     2220.944   0.100E-11
     TRS4 it   8 1.00000000   0.206E-02       0.013     2201.432   0.100E-11
     TRS4 it   9 1.00000000   0.105E-05       0.013     2226.797   0.100E-11
     TRS4 it  10 1.00000000   0.600E-12       0.013     2219.138   0.100E-11
     Final TRS4 iteration   10 1.00000000   0.600E-12
     Chemical potential (mu):       0.05470
 
 PAO| energy:  -191.14816690172916      penalty:   4.4300894348230774E-004
 PAO|LS| adapt:  T T F
 PAO|LS| adapt: scan_steps:    0.0000000000000000       0.56527626214169535        0.0000000000000000     
 PAO|LS| adapt: energies:   -191.14467449425462       -191.14816690172916        0.0000000000000000     
 PAO| ======================= Iteration:        25 =============================

     Lanczos converged:  F threshold:   0.100E-02
     Est. extremal eigenvalues:    0.468E+01   0.133E+00
     Est. condition number :    0.351E+02

 Order=           3
     NS sqrt iter    1 1.00000000   0.120E+01       0.021     2693.631
     NS sqrt iter    2 1.00000000   0.614E+00       0.034     3374.765
     NS sqrt iter    3 1.00000000   0.195E+00       0.034     3351.498
     NS sqrt iter    4 1.00000000   0.238E-01       0.034     3350.887
     NS sqrt iter    5 1.00000000   0.924E-04       0.033     3386.941
     NS sqrt iter    6 1.00000000   0.142E-10       0.016     2155.134
     Symmetrizing Results
     Final NS sqrt iter    6 1.00000000   0.187E-11

     Est. extremal eigenvalues     -0.83135     2.56044  converged:  T
     TRS4 it   1 1.00000000   0.284E+02       0.007     2135.375   0.100E-11
     TRS4 it   2 1.00000000   0.233E+02       0.013     2238.991   0.100E-11
     TRS4 it   3 1.00000000   0.153E+02       0.013     2215.886   0.100E-11
     TRS4 it   4 1.00000000   0.883E+01       0.013     2224.117   0.100E-11
     TRS4 it   5 1.00000000   0.360E+01       0.013     2222.380   0.100E-11
     TRS4 it   6 1.00000000   0.895E+00       0.013     2224.790   0.100E-11
     TRS4 it   7 1.00000000   0.103E+00       0.013     2222.746   0.100E-11
     TRS4 it   8 1.00000000   0.199E-02       0.013     2213.062   0.100E-11
     TRS4 it   9 1.00000000   0.979E-06       0.013     2215.191   0.100E-11
     TRS4 it  10 1.00000000   0.531E-12       0.013     2227.564   0.100E-11
     Final TRS4 iteration   10 1.00000000   0.531E-12
     Chemical potential (mu):       0.05512
 
 PAO| energy:  -191.13910623027169      penalty:   4.0937329092646644E-004
 PAO|LS| adapt:  T T T
 PAO|LS| adapt: scan_steps:    0.0000000000000000       0.56527626214169535        1.1305525242833907     
 PAO|LS| adapt: energies:   -191.14467449425462       -191.14816690172916       -191.13910623027169     
 PAO|LS| adapt: suggested step_size:   0.43990433275547819     
 PAO|LS| adapt: predicted energy  -191.14847564634024     
 PAO| ======================= Iteration:        26 =============================

     Lanczos converged:  F threshold:   0.100E-02
     Est. extremal eigenvalues:    0.470E+01   0.134E+00
     Est. condition number :    0.352E+02

 Order=           3
     NS sqrt iter    1 1.00000000   0.121E+01       0.021     2700.236
     NS sqrt iter    2 1.00000000   0.616E+00       0.033     3402.554
     NS sqrt iter    3 1.00000000   0.196E+00       0.034     3363.179
     NS sqrt iter    4 1.00000000   0.239E-01       0.034     3375.512
     NS sqrt iter    5 1.00000000   0.928E-04       0.034     3360.497
     NS sqrt iter    6 1.00000000   0.145E-10       0.016     2144.121
     Symmetrizing Results
     Final NS sqrt iter    6 1.00000000   0.187E-11

     Est. extremal eigenvalues     -0.83145     2.56421  converged:  T
     TRS4 it   1 1.00000000   0.284E+02       0.007     2149.403   0.100E-11
     TRS4 it   2 1.00000000   0.233E+02       0.013     2223.314   0.100E-11
     TRS4 it   3 1.00000000   0.154E+02       0.013     2200.683   0.100E-11
     TRS4 it   4 1.00000000   0.886E+01       0.013     2236.363   0.100E-11
     TRS4 it   5 1.00000000   0.363E+01       0.013     2212.011   0.100E-11
     TRS4 it   6 1.00000000   0.906E+00       0.013     2215.807   0.100E-11
     TRS4 it   7 1.00000000   0.105E+00       0.013     2204.617   0.100E-11
     TRS4 it   8 1.00000000   0.207E-02       0.013     2205.080   0.100E-11
     TRS4 it   9 1.00000000   0.107E-05       0.013     2204.341   0.100E-11
     TRS4 it  10 1.00000000   0.611E-12       0.013     2206.489   0.100E-11
     Final TRS4 iteration   10 1.00000000   0.611E-12
     Chemical potential (mu):       0.05461
 
 PAO| energy:  -191.14846406710288      penalty:   4.5103012119237747E-004
 PAO|CG| trace_G_new    1.3756127639396036E-002
 PAO|CG| trace_G_prev    1.7052732720800684E-002
 PAO|CG| trace_G_mix    2.6841946923369519E-004
 PAO|CG| trace_D    3.4727243623280092E-002
 PAO|CG| trace_D_Gnew  -8.2567374087336978E-005
 PAO|CG| beta:   0.79094115828779887     
 PAO| norm of gradient:  0.11728651942740920     
 PAO| energy improvement:  -3.7895728482624236E-003
 PAO| step     26                 -191.148464067  0.229E-03  0.440E+00     1.505
 PAO|LS| adapt:  T F F
 PAO|LS| adapt: scan_steps:    0.0000000000000000        0.0000000000000000        0.0000000000000000     
 PAO|LS| adapt: energies:   -191.14846406710288        0.0000000000000000        0.0000000000000000     
 PAO| ======================= Iteration:        27 =============================

     Lanczos converged:  F threshold:   0.100E-02
     Est. extremal eigenvalues:    0.469E+01   0.133E+00
     Est. condition number :    0.351E+02

 Order=           3
     NS sqrt iter    1 1.00000000   0.120E+01       0.021     2691.818
     NS sqrt iter    2 1.00000000   0.614E+00       0.033     3391.037
     NS sqrt iter    3 1.00000000   0.195E+00       0.034     3379.921
     NS sqrt iter    4 1.00000000   0.237E-01       0.034     3380.246
     NS sqrt iter    5 1.00000000   0.926E-04       0.033     3392.495
     NS sqrt iter    6 1.00000000   0.144E-10       0.016     2180.393
     Symmetrizing Results
     Final NS sqrt iter    6 1.00000000   0.186E-11

     Est. extremal eigenvalues     -0.83146     2.56231  converged:  T
     TRS4 it   1 1.00000000   0.285E+02       0.007     2139.028   0.100E-11
     TRS4 it   2 1.00000000   0.233E+02       0.013     2207.584   0.100E-11
     TRS4 it   3 1.00000000   0.154E+02       0.013     2212.209   0.100E-11
     TRS4 it   4 1.00000000   0.884E+01       0.013     2214.591   0.100E-11
     TRS4 it   5 1.00000000   0.361E+01       0.013     2226.595   0.100E-11
     TRS4 it   6 1.00000000   0.898E+00       0.013     2212.668   0.100E-11
     TRS4 it   7 1.00000000   0.103E+00       0.013     2233.104   0.100E-11
     TRS4 it   8 1.00000000   0.201E-02       0.013     2203.812   0.100E-11
     TRS4 it   9 1.00000000   0.100E-05       0.013     2212.248   0.100E-11
     TRS4 it  10 1.00000000   0.515E-12       0.013     2228.523   0.100E-11
     Final TRS4 iteration   10 1.00000000   0.515E-12
     Chemical potential (mu):       0.05500
 
 PAO| energy:  -191.15113012785056      penalty:   4.1403907428563152E-004
 PAO|LS| adapt:  T T F
 PAO|LS| adapt: scan_steps:    0.0000000000000000       0.43990433275547819        0.0000000000000000     
 PAO|LS| adapt: energies:   -191.14846406710288       -191.15113012785056        0.0000000000000000     
 PAO| ======================= Iteration:        28 =============================

     Lanczos converged:  F threshold:   0.100E-02
     Est. extremal eigenvalues:    0.467E+01   0.133E+00
     Est. condition number :    0.351E+02

 Order=           3
     NS sqrt iter    1 1.00000000   0.120E+01       0.021     2682.727
     NS sqrt iter    2 1.00000000   0.612E+00       0.034     3369.190
     NS sqrt iter    3 1.00000000   0.195E+00       0.034     3374.709
     NS sqrt iter    4 1.00000000   0.237E-01       0.034     3370.293
     NS sqrt iter    5 1.00000000   0.925E-04       0.034     3348.711
     NS sqrt iter    6 1.00000000   0.145E-10       0.016     2149.540
     Symmetrizing Results
     Final NS sqrt iter    6 1.00000000   0.188E-11

     Est. extremal eigenvalues     -0.83146     2.56030  converged:  T
     TRS4 it   1 1.00000000   0.285E+02       0.007     2172.902   0.100E-11
     TRS4 it   2 1.00000000   0.233E+02       0.013     2208.792   0.100E-11
     TRS4 it   3 1.00000000   0.153E+02       0.013     2205.263   0.100E-11
     TRS4 it   4 1.00000000   0.882E+01       0.013     2230.182   0.100E-11
     TRS4 it   5 1.00000000   0.359E+01       0.013     2218.747   0.100E-11
     TRS4 it   6 1.00000000   0.890E+00       0.013     2229.378   0.100E-11
     TRS4 it   7 1.00000000   0.101E+00       0.013     2230.476   0.100E-11
     TRS4 it   8 1.00000000   0.194E-02       0.013     2230.831   0.100E-11
     TRS4 it   9 1.00000000   0.941E-06       0.013     2208.479   0.100E-11
     TRS4 it  10 1.00000000   0.515E-12       0.013     2191.242   0.100E-11
     Final TRS4 iteration   10 1.00000000   0.515E-12
     Chemical potential (mu):       0.05540
 
 PAO| energy:  -191.14690433400648      penalty:   3.8041771590685162E-004
 PAO|LS| adapt:  T T T
 PAO|LS| adapt: scan_steps:    0.0000000000000000       0.43990433275547819       0.87980866551095638     
 PAO|LS| adapt: energies:   -191.14846406710288       -191.15113012785056       -191.14690433400648     
 PAO|LS| adapt: suggested step_size:   0.39012576169655910     
 PAO|LS| adapt: predicted energy  -191.15117425181060     
 PAO| ======================= Iteration:        29 =============================

     Lanczos converged:  F threshold:   0.100E-02
     Est. extremal eigenvalues:    0.469E+01   0.133E+00
     Est. condition number :    0.351E+02

 Order=           3
     NS sqrt iter    1 1.00000000   0.120E+01       0.021     2708.312
     NS sqrt iter    2 1.00000000   0.614E+00       0.034     3357.544
     NS sqrt iter    3 1.00000000   0.195E+00       0.034     3379.863
     NS sqrt iter    4 1.00000000   0.238E-01       0.034     3367.330
     NS sqrt iter    5 1.00000000   0.926E-04       0.034     3373.643
     NS sqrt iter    6 1.00000000   0.144E-10       0.016     2172.661
     Symmetrizing Results
     Final NS sqrt iter    6 1.00000000   0.187E-11

     Est. extremal eigenvalues     -0.83146     2.56253  converged:  T
     TRS4 it   1 1.00000000   0.284E+02       0.007     2151.746   0.100E-11
     TRS4 it   2 1.00000000   0.233E+02       0.013     2214.690   0.100E-11
     TRS4 it   3 1.00000000   0.154E+02       0.013     2218.358   0.100E-11
     TRS4 it   4 1.00000000   0.884E+01       0.013     2209.677   0.100E-11
     TRS4 it   5 1.00000000   0.361E+01       0.013     2209.584   0.100E-11
     TRS4 it   6 1.00000000   0.899E+00       0.013     2218.513   0.100E-11
     TRS4 it   7 1.00000000   0.103E+00       0.013     2224.007   0.100E-11
     TRS4 it   8 1.00000000   0.201E-02       0.013     2218.726   0.100E-11
     TRS4 it   9 1.00000000   0.101E-05       0.013     2219.979   0.100E-11
[...]
     TRS4 it   5 1.00000000   0.412E+01       0.013     2209.363   0.100E-11
     TRS4 it   6 1.00000000   0.129E+01       0.013     2201.962   0.100E-11
     TRS4 it   7 1.00000000   0.229E+00       0.013     2223.307   0.100E-11
     TRS4 it   8 1.00000000   0.105E-01       0.013     2202.272   0.100E-11
     TRS4 it   9 1.00000000   0.272E-04       0.013     2227.626   0.100E-11
     TRS4 it  10 1.00000000   0.385E-09       0.013     2216.627   0.100E-11
     TRS4 it  11 1.00000000   0.142E-13       0.013     2221.289   0.100E-11
     Final TRS4 iteration   11 1.00000000   0.142E-13
     Chemical potential (mu):       0.02528
 
 PAO| energy:  -190.77006062548935      penalty:   1.6063247862331873E-008
 PAO| Writing restart file.
     Est. extremal eigenvalues     -0.83142     2.54319  converged:  T
     TRS4 it   1 1.00000000   0.286E+02       0.007     2141.694   0.100E-11
     TRS4 it   2 1.00000000   0.234E+02       0.013     2224.729   0.100E-11
     TRS4 it   3 1.00000000   0.155E+02       0.013     2225.195   0.100E-11
     TRS4 it   4 1.00000000   0.918E+01       0.013     2211.102   0.100E-11
     TRS4 it   5 1.00000000   0.412E+01       0.013     2203.711   0.100E-11
     TRS4 it   6 1.00000000   0.129E+01       0.013     2215.496   0.100E-11
     TRS4 it   7 1.00000000   0.229E+00       0.013     2223.002   0.100E-11
     TRS4 it   8 1.00000000   0.105E-01       0.013     2210.815   0.100E-11
     TRS4 it   9 1.00000000   0.272E-04       0.013     2221.107   0.100E-11
     TRS4 it  10 1.00000000   0.385E-09       0.013     2209.938   0.100E-11
     TRS4 it  11 1.00000000   0.142E-13       0.013     2191.913   0.100E-11
     Final TRS4 iteration   11 1.00000000   0.142E-13
     Chemical potential (mu):       0.02528

 SCF     1     -1103.051036683     -1103.051036683    1.764926

*********************************************************
 Using MIXING_FRACTION=0.450 to mix KS matrix:  iscf=  2
 KS_nw=0.450*KS + 0.550*KS_old
*********************************************************
     Est. extremal eigenvalues     -0.83143     2.54319  converged:  T
     TRS4 it   1 1.00000000   0.286E+02       0.007     2167.564   0.100E-11
     TRS4 it   2 1.00000000   0.234E+02       0.013     2226.313   0.100E-11
     TRS4 it   3 1.00000000   0.155E+02       0.013     2234.254   0.100E-11
     TRS4 it   4 1.00000000   0.918E+01       0.013     2219.623   0.100E-11
     TRS4 it   5 1.00000000   0.412E+01       0.013     2206.255   0.100E-11
     TRS4 it   6 1.00000000   0.129E+01       0.013     2196.411   0.100E-11
     TRS4 it   7 1.00000000   0.229E+00       0.013     2195.105   0.100E-11
     TRS4 it   8 1.00000000   0.105E-01       0.013     2223.417   0.100E-11
     TRS4 it   9 1.00000000   0.272E-04       0.013     2206.713   0.100E-11
     TRS4 it  10 1.00000000   0.385E-09       0.013     2204.920   0.100E-11
     TRS4 it  11 1.00000000   0.178E-14       0.013     2230.533   0.100E-11
     Final TRS4 iteration   11 1.00000000   0.178E-14
     Chemical potential (mu):       0.02528

 SCF     2     -1103.051036683        -0.000000000    1.763864


 SCF run converged in     2 steps.

 PAO| Storing density matrix for ASPC guess in slot:           1

 ENERGY| Total FORCE_EVAL ( QS ) energy [a.u.]:            -1103.051036682888935

 -------------------------------------------------------------------------------
 -                                                                             -
 -                                DBCSR STATISTICS                             -
 -                                                                             -
 -------------------------------------------------------------------------------
 COUNTER                                    TOTAL       BLAS       SMM       ACC
 flops     5 x     5 x     4             26419200       0.0%    100.0%      0.0%     
 flops    13 x     5 x     4             34078720       0.0%    100.0%      0.0%     
 flops     5 x    13 x     4             34078720       0.0%    100.0%      0.0%     
 flops    13 x    13 x     4             44994560       0.0%    100.0%      0.0%     
 flops     4 x     4 x     5           6503792640       0.0%    100.0%      0.0%     
 flops     5 x     4 x     5           8034713600       0.0%    100.0%      0.0%     
 flops     4 x     4 x    13           8454930432       0.0%    100.0%      0.0%     
 flops    13 x     4 x     5          10445127680       0.0%    100.0%      0.0%     
 flops     5 x     4 x    13          10445127680       0.0%    100.0%      0.0%     
 flops    13 x     4 x    13          13578665984       0.0%    100.0%      0.0%     
 flops     5 x     4 x     4         405987981920       0.0%    100.0%      0.0%     
 flops    13 x     4 x     4         536497913120       0.0%    100.0%      0.0%     
 flops     4 x     4 x     4       29792712930688       0.0%    100.0%      0.0%     
 flops inhomo. stacks                           0       0.0%      0.0%      0.0%
 flops total                        30.792801E+12       0.0%    100.0%      0.0%
 flops max/rank                    971.605189E+09       0.0%    100.0%      0.0%
 matmuls inhomo. stacks                         0       0.0%      0.0%      0.0%
 matmuls total                       236734313135       0.0%    100.0%      0.0%
 number of processed stacks             241850265       0.0%    100.0%      0.0%
 average stack size                                     0.0     978.8       0.0
 marketing flops                    53.444736E+12
 -------------------------------------------------------------------------------
 # multiplications                          50129
 max memory usage/rank             617.533440E+06
 # max total images/rank                        2
 # max 3D layers                                1
 # MPI messages exchanged                20853664
 MPI messages size (bytes):
  total size                         2.470979E+12
  min size                           0.000000E+00
  max size                         541.696000E+03
  average size                     118.491375E+03
 MPI breakdown and total messages size (bytes):
             size <=      128              892932                     4992
       128 < size <=     8192              339936               1333164800
      8192 < size <=    32768               61067               1387063680
     32768 < size <=   131072             8937363             663096958080
    131072 < size <=  4194304            10622366            1805555632640
   4194304 < size <= 16777216                   0                        0
  16777216 < size                               0                        0
 -------------------------------------------------------------------------------

 *** WARNING in dbcsr_mm.F:301 :: Using a non-square number of MPI ranks ***
 *** might lead to poor performance. Used ranks: 32 Suggested: 36 64     ***

 -------------------------------------------------------------------------------
 -                                                                             -
 -                      DBCSR MESSAGE PASSING PERFORMANCE                      -
 -                                                                             -
 -------------------------------------------------------------------------------
 ROUTINE             CALLS      AVE VOLUME [Bytes]
 MP_Bcast               14                     12.
 MP_Allreduce       301601                     37.
 MP_Alltoall        129449                  14583.
 MP_ISend          1677500                  55136.
 MP_IRecv          1640814                  56444.
 -------------------------------------------------------------------------------

 -------------------------------------------------------------------------------
 -                                                                             -
 -                                DBM STATISTICS                               -
 -                                                                             -
 -------------------------------------------------------------------------------
    M  x    N  x    K                                          COUNT     PERCENT
 -------------------------------------------------------------------------------

 -------------------------------------------------------------------------------
 -                                                                             -
 -                                GRID STATISTICS                              -
 -                                                                             -
 -------------------------------------------------------------------------------
 LP    KERNEL             BACKEND                              COUNT     PERCENT
 2     collocate ortho    CPU                               13111568      28.83%
 2     integrate ortho    CPU                               13111568      28.83%
 3     collocate ortho    CPU                                8426992      18.53%
 3     integrate ortho    CPU                                8426992      18.53%
 4     collocate ortho    CPU                                1196352       2.63%
 4     integrate ortho    CPU                                1196352       2.63%
 0     collocate general  CPU                                   6144       0.01%
 -------------------------------------------------------------------------------

 MEMORY| Estimated peak process memory [MiB]                                 590

 -------------------------------------------------------------------------------
 -                                                                             -
 -                         MESSAGE PASSING PERFORMANCE                         -
 -                                                                             -
 -------------------------------------------------------------------------------

 ROUTINE             CALLS      AVE VOLUME [Bytes]
 MP_Group                5
 MP_Bcast           408994                   1840.
 MP_Allreduce      1016203                    514.
 MP_Sync                 5
 MP_Alltoall           419                1937203.
 MP_SendRecv          1488                  18832.
 MP_ISendRecv         1488                  18832.
 MP_Wait              4218
 MP_ISend             2470                 108139.
 MP_IRecv             2470                 108153.
 -------------------------------------------------------------------------------


 -------------------------------------------------------------------------------
 -                                                                             -
 -                           R E F E R E N C E S                               -
 -                                                                             -
 -------------------------------------------------------------------------------
 
 CP2K version 2024.3 (Development Version), the CP2K developers group (2024).
 CP2K is freely available from https://www.cp2k.org/ .
 
 T. D. Kuehne, M. Iannuzzi, M. Del Ben, V. V. Rybkin, P. Seewald, F. Stein, T. 
 Laino, R. Z. Khaliullin, O. Schuett, F. Schiffmann, D. Golze, J. Wilhelm, S. 
 Chulkov, M. H. Bani-Hashemian, V. Weber, U. Borstnik, M. Taillefumier, A. S. 
 Jakobovits, A. Lazzaro, H. Pabst, T. Mueller, R. Schade, M. Guidon, S. 
 Andermatt, N. Holmberg, G. K. Schenter, A. Hehn, A. Bussy, F. Belleflamme, G. 
 Tabacchi, A. Gloess, M. Lass, I. Bethune, C. J. Mundy, C. Plessl, M. Watkins, 
 J. VandeVondele, M. Krack, J. Hutter.
 J. Chem. Phys. 152, 194103 (2020).
 CP2K: An electronic structure and molecular dynamics software package - 
 Quickstep: Efficient and accurate electronic structure calculations.
 https://doi.org/10.1063/5.0007045

 O. Schuett, J. VandeVondele.
 J. Chem. Theory Comput. 14, 4168-4175 (2018).
 Machine Learning Adaptive Basis Sets for Efficient Large Scale Density 
 Functional Theory Simulation.
 https://doi.org/10.1021/acs.jctc.8b00378

 O. Schuett, P. Messmer, J. Hutter, J. VandeVondele.
 Electronic Structure Calculations on Graphics Processing Units, 173-190 (2016).
 GPU-Accelerated Sparse Matrix-Matrix Multiplication for Linear Scaling Density 
 Functional Theory.
 https://doi.org/10.1002/9781118670712.ch8

 A. Heinecke, G. Henry, M. Hutchinson, H. Pabst.
 Proceedings of Intl. Supercomputing Conference, 981-991 (2016).
 LIBXSMM: Accelerating Small Matrix Multiplications by Runtime Code Generation.
 https://doi.org/10.1109/SC.2016.83

 J. Hutter, M. Iannuzzi, F. Schiffmann, J. VandeVondele.
 WIREs Comput Mol Sci. 4, 15-25 (2014).
 CP2K: atomistic simulations of condensed matter systems.
 https://doi.org/10.1002/wcms.1159

 U. Borstnik, J. VandeVondele, V. Weber, J. Hutter.
 Parallel Comput. 40, 47-58 (2014).
 Sparse matrix multiplication: The distributed block-compressed sparse row 
 library.
 https://doi.org/10.1016/j.parco.2014.03.012

 A. Marek, V. Blum, R. Johanni, V. Havu, B. Lang, T. Auckenthaler, A. Heinecke, 
 H. Bungartz, H. Lederer.
 J. Phys. Condens. Matter 26, 213201 (2014).
 The ELPA library: scalable parallel eigenvalue solutions for electronic 
 structure theory and computational science.
 https://doi.org/10.1088/0953-8984/26/21/213201

 J. VandeVondele, U. Borstnik, J. Hutter.
 J. Chem. Theory Comput. 8, 3565-3573 (2012).
 Linear Scaling Self-Consistent Field Calculations with Millions of Atoms in the 
 Condensed Phase.
 https://doi.org/10.1021/ct200897x

 J. VandeVondele, J. Hutter.
 J. Chem. Phys. 127, 114105 (2007).
 Gaussian basis sets for accurate calculations on molecular systems in gas and 
 condensed phases.
 https://doi.org/10.1063/1.2770708

 J. VandeVondele, M. Krack, F. Mohamed, M. Parrinello, T. Chassaing, J. Hutter.
 Comput. Phys. Commun. 167, 103-128 (2005).
 QUICKSTEP: Fast and accurate density functional calculations using a mixed 
 Gaussian and plane waves approach.
 https://doi.org/10.1016/j.cpc.2004.12.014

 M. Krack.
 Theor. Chem. Acc. 114, 145-152 (2005).
 Pseudopotentials for H to Kr optimized for gradient-corrected 
 exchange-correlation functionals.
 https://doi.org/10.1007/s00214-005-0655-y

 M. Frigo, S. G. Johnson.
 Proc. IEEE 93, 216-231 (2005).
 The design and implementation of FFTW3.
 https://doi.org/10.1109/JPROC.2004.840301

 A. M. N. Niklasson, C. J. Tymczak, M. Challacombe.
 J. Chem. Phys. 118, 8611-8620 (2003).
 Trace resetting density matrix purification in O(N) self-consistent-field 
 theory.
 https://doi.org/10.1063/1.1559913

 C. Hartwigsen, S. Goedecker, J. Hutter.
 Phys. Rev. B 58, 3641-3662 (1998).
 Relativistic separable dual-space Gaussian pseudopotentials from H to Rn.
 https://doi.org/10.1103/PhysRevB.58.3641

 G. Lippert, J. Hutter, M. Parrinello.
 Mol. Phys. 92, 477-487 (1997).
 A hybrid Gaussian and plane wave density functional scheme.
 https://doi.org/10.1080/002689797170220

 S. Goedecker, M. Teter, J. Hutter.
 Phys. Rev. B 54, 1703-1710 (1996).
 Separable dual-space Gaussian pseudopotentials.
 https://doi.org/10.1103/PhysRevB.54.1703

 J. P. Perdew, K. Burke, M. Ernzerhof.
 Phys. Rev. Lett. 77, 3865-3868 (1996).
 Generalized gradient approximation made simple.
 https://doi.org/10.1103/PhysRevLett.77.3865


 -------------------------------------------------------------------------------
 -                                                                             -
 -                                T I M I N G                                  -
 -                                                                             -
 -------------------------------------------------------------------------------
 SUBROUTINE                       CALLS  ASD         SELF TIME        TOTAL TIME
                                MAXIMUM       AVERAGE  MAXIMUM  AVERAGE  MAXIMUM
 CP2K                                 1  1.0    0.012    0.016  452.506  452.509
 qs_energies                          1  2.0    0.000    0.000  452.346  452.348
 ls_scf                               1  3.0    0.000    0.000  451.244  451.246
 pao_update                           7  4.0    0.006    0.025  421.209  421.211
 pao_calc_energy                    816  5.0    0.003    0.019  378.108  378.109
 dbcsr_multiply_generic           50129  8.4    1.402    1.475  346.490  346.822
 multiply_cannon                  50129  9.4    2.587    3.111  279.141  285.255
 multiply_cannon_loop             50129 10.4    1.852    2.154  268.453  273.127
 ls_scf_init_matrix_S               823  7.0    0.009    0.010  212.526  212.606
 pao_rebuild_S                      816  6.0    0.002    0.003  210.705  210.784
 matrix_sqrt_Newton_Schulz          823  8.0    0.171    0.295  197.273  197.333
 multiply_cannon_multrec         401032 11.4  177.471  179.378  178.290  180.215
 pao_dm_trs4                        816  6.0    0.006    0.007  167.005  167.041
 density_matrix_trs4                831  7.0    0.213    0.359  161.345  161.460
 mp_waitall_1                   3210004 12.6   87.166   95.012   87.166   95.012
 multiply_cannon_metrocomm3      401032 11.4    0.696    0.747   69.222   75.150
 arnoldi_extremal                  1654  8.5    0.013    0.015   67.560   67.628
 arnoldi_normal_ev                 1654  9.5    0.039    0.067   67.544   67.610
 build_subspace                    6609 10.6    0.402    0.432   59.225   59.266
 dbcsr_matrix_vector_mult        201578 11.6    0.862    1.307   55.690   56.175
 make_m2s                        100258  9.4    0.544    0.706   51.354   52.570
 make_images                     100258 10.4    7.374    7.614   49.990   51.303
 dbcsr_matrix_vector_mult_local  201578 12.6   47.536   48.069   47.761   48.294
 pao_calc_AB                       1083  5.8    0.002    0.002   42.638   42.641
 pao_calc_AB_equi                  1083  6.8    0.040    0.100   42.636   42.639
 pao_calc_grad_lnv_wrt_AB           266  7.0    0.020    0.026   42.217   42.266
 ls_scf_main                          7  4.0    0.000    0.001   26.510   26.511
 make_images_data                100258 11.4    0.861    1.078   21.951   24.389
 ls_scf_dm_to_ks                     15  5.0    0.000    0.000   23.384   23.389
 hybrid_alltoall_any             101899 12.3    0.897    1.780   17.165   21.123
 mp_sum_l                        204800  9.5    8.418   19.620    8.418   19.620
 matrix_qs_to_ls                   1654  7.5    0.016    0.025   17.182   17.385
 dbcsr_multiply_generic_mpsum_f   36765  9.5    0.027    0.034    5.080   14.312
 qs_ks_update_qs_env                 16  6.0    0.000    0.000   13.923   13.925
 rebuild_ks_matrix                   16  7.0    0.000    0.000   13.912   13.913
 qs_ks_build_kohn_sham_matrix        16  8.0    0.003    0.003   13.912   13.913
 calculate_norms                 748624 11.4   11.615   12.455   11.615   12.455
 make_images_pack                100258 11.4   11.089   11.349   11.224   11.485
 qs_rho_update_rho_low               16  6.0    0.000    0.000   10.929   10.931
 calculate_rho_elec                  16  7.0    0.005    0.006   10.929   10.931
 sum_up_and_integrate                16  9.0    0.000    0.001   10.540   10.543
 integrate_v_rspace                  16 10.0    0.000    0.001   10.526   10.529
 grid_collocate_task_list            16  8.0    9.710    9.894    9.710    9.894
 grid_integrate_task_list            16 11.0    9.272    9.422    9.272    9.422
 -------------------------------------------------------------------------------

 The number of warnings for this run is : 1
 
 -------------------------------------------------------------------------------
  **** **** ******  **  PROGRAM ENDED AT                 2024-09-24 05:05:46.114
 ***** ** ***  *** **   PROGRAM RAN ON                                    moritz
 **    ****   ******    PROGRAM RAN BY                                       ole
 ***** **    ** ** **   PROGRAM PROCESS ID                                169041
  **** **  *******  **  PROGRAM STOPPED IN /home/ole/git/pao_ml_equivar/64H2O_MD
                                           /Frame5400
