 DBCSR| CPU Multiplication driver                                           XSMM (U)
 DBCSR| Multrec recursion limit                                              512 (U)
 DBCSR| Multiplication stack size                                           1000 (D)
 DBCSR| Maximum elements for images                                    UNLIMITED (U)
 DBCSR| Multiplicative factor virtual images                                   1 (U)
 DBCSR| Use multiplication densification                                       T (D)
 DBCSR| Multiplication size stacks                                             3 (U)
 DBCSR| Use memory pool for CPU allocation                                     F (U)
 DBCSR| Number of 3D layers                                               SINGLE (U)
 DBCSR| Use MPI memory allocation                                              F (U)
 DBCSR| Use RMA algorithm                                                      F (U)
 DBCSR| Use Communication thread                                               T (U)
 DBCSR| Communication thread load                                             87 (D)
 DBCSR| MPI: My process id                                                     0
 DBCSR| MPI: Number of processes                                              32
 DBCSR| OMP: Current number of threads                                         1
 DBCSR| OMP: Max number of threads                                             1
 DBCSR| Split modifier for TAS multiplication algorithm                  1.0E+00 (U)


  **** **** ******  **  PROGRAM STARTED AT               2024-09-23 17:48:43.699
 ***** ** ***  *** **   PROGRAM STARTED ON                                moritz
 **    ****   ******    PROGRAM STARTED BY                                   ole
 ***** **    ** ** **   PROGRAM PROCESS ID                                160005
  **** **  *******  **  PROGRAM STARTED IN /home/ole/git/pao_ml_equivar/64H2O_MD
                                           /Frame5400

 CP2K| version string:                 CP2K version 2024.3 (Development Version)
 CP2K| source code revision number:                                  git:3f890bb
 CP2K| cp2kflags: omp libint fftw3 libxc libgrpp pexsi elpa parallel scalapack c
 CP2K|            osma quip deepmd xsmm plumed2 spglib libdftd4 sirius libvori l
 CP2K|            libbqb libvdwxc hdf5
 CP2K| is freely available from                            https://www.cp2k.org/
 CP2K| Program compiled at                          Mo 23 Sep 2024 17:17:04 CEST
 CP2K| Program compiled on                                                moritz
 CP2K| Program compiled for                                                local
 CP2K| Data directory path                               /home/ole/git/cp2k/data
 CP2K| Input file name                                             64H2O_ref.inp

 GLOBAL| Force Environment number                                              1
 GLOBAL| Basis set file name                                        BASIS_MOLOPT
 GLOBAL| Potential file name                                      GTH_POTENTIALS
 GLOBAL| MM Potential file name                                     MM_POTENTIAL
 GLOBAL| Coordinate file name                                         coords.xyz
 GLOBAL| Method name                                                        CP2K
 GLOBAL| Project name                                                  64H2O_ref
 GLOBAL| Run type                                                         ENERGY
 GLOBAL| FFT library                                                       FFTW3
 GLOBAL| Diagonalization library                                            ELPA
 GLOBAL| DGEMM library                                                      BLAS
 GLOBAL| Minimum number of eigenvectors for ELPA usage                        16
 GLOBAL| Orthonormality check for eigenvectors                          DISABLED
 GLOBAL| Matrix multiplication library                                     COSMA
 GLOBAL| All-to-all communication in single precision                          F
 GLOBAL| FFTs using library dependent lengths                                  F
 GLOBAL| Grid backend                                                       AUTO
 GLOBAL| Global print level                                                  LOW
 GLOBAL| MPI I/O enabled                                                       T
 GLOBAL| Total number of message passing processes                            32
 GLOBAL| Number of threads for this process                                    1
 GLOBAL| This output is from process                                           0
 GLOBAL| Stack size for threads created by OpenMP (OMP_STACKSIZE)        default
 GLOBAL| CPU model name           AMD Ryzen Threadripper 3970X 32-Core Processor
 GLOBAL| CPUID                                                              1002

 MEMORY| system memory details [Kb]
 MEMORY|                        rank 0           min           max       average
 MEMORY| MemTotal            131752136     131752136     131752136     131752136
 MEMORY| MemFree             117916952     117916952     117916952     117916952
 MEMORY| Buffers                260740        260740        260740        260740
 MEMORY| Cached                7634952       7634952       7634952       7634952
 MEMORY| Slab                   726396        726396        726396        726396
 MEMORY| SReclaimable           286076        286076        286076        286076
 MEMORY| MemLikelyFree       126098720     126098720     126098720     126098720


 GENERATE|  Preliminary Number of Bonds generated:                             0
 GENERATE|  Achieved consistency in connectivity generation.

 *******************************************************************************
 *******************************************************************************
 **                                                                           **
 **     #####                         ##              ##                      **
 **    ##   ##            ##          ##              ##                      **
 **   ##     ##                       ##            ######                    **
 **   ##     ##  ##   ##  ##   #####  ##  ##   ####   ##    #####    #####    **
 **   ##     ##  ##   ##  ##  ##      ## ##   ##      ##   ##   ##  ##   ##   **
 **   ##  ## ##  ##   ##  ##  ##      ####     ###    ##   ######   ######    **
 **    ##  ###   ##   ##  ##  ##      ## ##      ##   ##   ##       ##        **
 **     #######   #####   ##   #####  ##  ##  ####    ##    #####   ##        **
 **           ##                                                    ##        **
 **                                                                           **
 **                                                ... make the atoms dance   **
 **                                                                           **
 **            Copyright (C) by CP2K developers group (2000-2024)             **
 **                      J. Chem. Phys. 152, 194103 (2020)                    **
 **                                                                           **
 *******************************************************************************


 TOTAL NUMBERS AND MAXIMUM NUMBERS

  Total number of            - Atomic kinds:                                   2
                             - Atoms:                                        192
                             - Shell sets:                                   192
                             - Shells:                                       704
                             - Primitive Cartesian functions:               1344
                             - Cartesian basis functions:                   1536
                             - Spherical basis functions:                   1472

  Maximum angular momentum of- Orbital basis functions:                        2
                             - Local part of the GTH pseudopotential:          2
                             - Non-local part of the GTH pseudopotential:      0

 ------------------------------ Linear scaling SCF -----------------------------
 eps_scf:                                                              0.100E-07
 eps_filter:                                                           0.100E-11
 mixing_fraction:                                                      0.450E+00
 max_scf:                                                                     25
 fixed chemical potential (mu)                                                 F
 has unit metric:                                                              F
 Computing inv(S):                                                             T
 Computing sqrt(S):                                                            T
 Computing S preconditioner                                                    F
 S sqrt method:                                                     NEWTONSCHULZ
 S sqrt order:                                                                 3
 Extrapolation order:                                                          1
 S preconditioner type                                                      NONE
 Polarized Atomic Orbitals (PAO)                                               F
 Purification method                                   Trace resetting 4th order
 Cluster type                                                             ATOMIC
 Computing Chebyshev                                                       FALSE
 Using PAO                                                                     F
 -------------------------------------------------------------------------------


     Lanczos converged:  F threshold:   0.100E-02
     Est. extremal eigenvalues:    0.863E+01   0.562E-02
     Est. condition number :    0.154E+04

 Order=           3
     NS sqrt iter    1 1.00000000   0.223E+01       0.066     6122.524
     NS sqrt iter    2 1.00000000   0.117E+01       0.100     7934.552
     NS sqrt iter    3 1.00000000   0.578E+00       0.100     7969.157
     NS sqrt iter    4 1.00000000   0.333E+00       0.099     8016.670
     NS sqrt iter    5 1.00000000   0.225E+00       0.101     7920.878
     NS sqrt iter    6 1.00000000   0.104E+00       0.100     7990.010
     NS sqrt iter    7 1.00000000   0.127E-01       0.100     7944.768
     NS sqrt iter    8 1.00000000   0.605E-04       0.100     7962.623
     NS sqrt iter    9 1.00000000   0.215E-10       0.060     5607.073
     Symmetrizing Results
     Final NS sqrt iter    9 1.00000000   0.753E-11



 Guess for atomic kind: O

 Electronic structure
    Total number of core electrons                                          2.00
    Total number of valence electrons                                       6.00
    Total number of electrons                                               8.00
    Multiplicity                                                   not specified
    S   [  2.00] 2.00
    P      4.00


 *******************************************************************************
                  Iteration          Convergence                     Energy [au]
 *******************************************************************************
                          1        0.708315                     -15.576645311500
                          2        0.608879                     -15.587933561584
                          3        0.102828E-01                 -15.656849565404
                          4        0.113889E-02                 -15.656866888140
                          5        0.434197E-03                 -15.656867072159
                          6        0.263771E-03                 -15.656867091904
                          7        0.478536E-06                 -15.656867103452

 Energy components [Hartree]           Total Energy ::          -15.656867103452
                                        Band Energy ::           -3.000198112285
                                     Kinetic Energy ::           11.759971203220
                                   Potential Energy ::          -27.416838306672
                                      Virial (-V/T) ::            2.331369510426
                                        Core Energy ::          -26.140716385623
                                          XC Energy ::           -3.154051012914
                                     Coulomb Energy ::           13.637900295084
                       Total Pseudopotential Energy ::          -37.935781716540
                       Local Pseudopotential Energy ::          -39.218907440693
                    Nonlocal Pseudopotential Energy ::            1.283125724153
                                        Confinement ::            0.350941276976

 Orbital energies  State     L     Occupation   Energy[a.u.]          Energy[eV]

                       1     0          2.000      -0.864471          -23.523463

                       1     1          4.000      -0.317814           -8.648154


 Total Electron Density at R=0:                                         0.000068

 Guess for atomic kind: H

 Electronic structure
    Total number of core electrons                                          0.00
    Total number of valence electrons                                       1.00
    Total number of electrons                                               1.00
    Multiplicity                                                   not specified
    S      1.00


 *******************************************************************************
                  Iteration          Convergence                     Energy [au]
 *******************************************************************************
                          1        0.437545E-02                  -0.424159432110
                          2        0.531356E-03                  -0.424178438213
                          3        0.259176E-06                  -0.424178722480

 Energy components [Hartree]           Total Energy ::           -0.424178722480
                                        Band Energy ::           -0.199015229016
                                     Kinetic Energy ::            0.464007633961
                                   Potential Energy ::           -0.888186356441
                                      Virial (-V/T) ::            1.914163240935
                                        Core Energy ::           -0.479160803564
                                          XC Energy ::           -0.244352904054
                                     Coulomb Energy ::            0.299334985138
                       Total Pseudopotential Energy ::           -0.962295316385
                       Local Pseudopotential Energy ::           -0.962295316385
                    Nonlocal Pseudopotential Energy ::            0.000000000000
                                        Confinement ::            0.191268788606

 Orbital energies  State     L     Occupation   Energy[a.u.]          Energy[eV]

                       1     0          1.000      -0.199015           -5.415480


 Total Electron Density at R=0:                                         0.242907
 Re-scaling the density matrix to get the right number of electrons
                  # Electrons              Trace(P)               Scaling factor
                          512               512.001                        1.000
 Energy with the initial guess:     -1095.736344193

     Est. extremal eigenvalues     -0.94131     5.25769  converged:  T
     TRS4 it   1 1.00000000   0.565E+02       0.019     5291.302   0.100E-11
     TRS4 it   2 1.00000000   0.541E+02       0.019     5326.445   0.100E-11
     TRS4 it   3 1.00000000   0.340E+02       0.037     5438.735   0.100E-11
     TRS4 it   4 1.00000000   0.177E+02       0.037     5420.524   0.100E-11
     TRS4 it   5 1.00000000   0.106E+02       0.036     5497.502   0.100E-11
     TRS4 it   6 1.00000000   0.482E+01       0.037     5429.734   0.100E-11
     TRS4 it   7 1.00000000   0.143E+01       0.037     5491.375   0.100E-11
     TRS4 it   8 1.00000000   0.214E+00       0.037     5428.677   0.100E-11
     TRS4 it   9 1.00000000   0.902E-02       0.037     5451.189   0.100E-11
     TRS4 it  10 1.00000000   0.248E-04       0.037     5479.744   0.100E-11
     TRS4 it  11 1.00000000   0.637E-10       0.037     5496.339   0.100E-11
     Final TRS4 iteration   11 1.00000000   0.637E-10
     Chemical potential (mu):      -0.10648

 SCF     1     -1097.935771778     -1097.935771778    2.069029

*********************************************************
 Using MIXING_FRACTION=0.450 to mix KS matrix:  iscf=  2
 KS_nw=0.450*KS + 0.550*KS_old
*********************************************************
     Est. extremal eigenvalues     -0.82873     5.34608  converged:  T
     TRS4 it   1 1.00000000   0.557E+02       0.019     5310.081   0.100E-11
     TRS4 it   2 1.00000000   0.543E+02       0.019     5270.317   0.100E-11
     TRS4 it   3 1.00000000   0.353E+02       0.037     5493.925   0.100E-11
     TRS4 it   4 1.00000000   0.183E+02       0.037     5440.392   0.100E-11
     TRS4 it   5 1.00000000   0.118E+02       0.036     5549.754   0.100E-11
     TRS4 it   6 1.00000000   0.617E+01       0.037     5486.693   0.100E-11
     TRS4 it   7 1.00000000   0.246E+01       0.037     5434.198   0.100E-11
     TRS4 it   8 1.00000000   0.678E+00       0.037     5442.167   0.100E-11
     TRS4 it   9 1.00000000   0.100E+00       0.037     5375.873   0.100E-11
     TRS4 it  10 1.00000000   0.540E-02       0.037     5427.140   0.100E-11
     TRS4 it  11 1.00000000   0.996E-05       0.037     5457.568   0.100E-11
     TRS4 it  12 1.00000000   0.311E-10       0.037     5486.412   0.100E-11
     Final TRS4 iteration   12 1.00000000   0.311E-10
     Chemical potential (mu):      -0.01742

 SCF     2     -1102.970036297        -5.034264519    2.092941

*********************************************************
 Using MIXING_FRACTION=0.450 to mix KS matrix:  iscf=  3
 KS_nw=0.450*KS + 0.550*KS_old
*********************************************************
     Est. extremal eigenvalues     -0.83979     5.33822  converged:  T
     TRS4 it   1 1.00000000   0.558E+02       0.020     5029.148   0.100E-11
     TRS4 it   2 1.00000000   0.542E+02       0.019     5324.522   0.100E-11
     TRS4 it   3 1.00000000   0.351E+02       0.037     5446.071   0.100E-11
     TRS4 it   4 1.00000000   0.183E+02       0.036     5498.866   0.100E-11
     TRS4 it   5 1.00000000   0.117E+02       0.036     5576.654   0.100E-11
     TRS4 it   6 1.00000000   0.598E+01       0.036     5530.763   0.100E-11
     TRS4 it   7 1.00000000   0.230E+01       0.036     5551.855   0.100E-11
     TRS4 it   8 1.00000000   0.593E+00       0.036     5537.337   0.100E-11
     TRS4 it   9 1.00000000   0.763E-01       0.037     5495.420   0.100E-11
     TRS4 it  10 1.00000000   0.290E-02       0.036     5521.129   0.100E-11
     TRS4 it  11 1.00000000   0.243E-05       0.036     5558.892   0.100E-11
     TRS4 it  12 1.00000000   0.184E-11       0.036     5633.693   0.100E-11
     Final TRS4 iteration   12 1.00000000   0.184E-11
     Chemical potential (mu):      -0.02679

 SCF     3     -1103.133852048        -0.163815751    2.103748

*********************************************************
 Using MIXING_FRACTION=0.450 to mix KS matrix:  iscf=  4
 KS_nw=0.450*KS + 0.550*KS_old
*********************************************************
     Est. extremal eigenvalues     -0.83394     5.34345  converged:  T
     TRS4 it   1 1.00000000   0.558E+02       0.019     5234.868   0.100E-11
     TRS4 it   2 1.00000000   0.542E+02       0.019     5357.507   0.100E-11
     TRS4 it   3 1.00000000   0.351E+02       0.037     5428.472   0.100E-11
     TRS4 it   4 1.00000000   0.183E+02       0.037     5483.898   0.100E-11
     TRS4 it   5 1.00000000   0.117E+02       0.036     5527.776   0.100E-11
     TRS4 it   6 1.00000000   0.605E+01       0.036     5507.938   0.100E-11
     TRS4 it   7 1.00000000   0.236E+01       0.036     5552.600   0.100E-11
     TRS4 it   8 1.00000000   0.627E+00       0.036     5519.043   0.100E-11
     TRS4 it   9 1.00000000   0.866E-01       0.036     5503.318   0.100E-11
     TRS4 it  10 1.00000000   0.394E-02       0.036     5512.449   0.100E-11
     TRS4 it  11 1.00000000   0.585E-05       0.036     5575.309   0.100E-11
     TRS4 it  12 1.00000000   0.141E-10       0.036     5556.496   0.100E-11
     Final TRS4 iteration   12 1.00000000   0.141E-10
     Chemical potential (mu):      -0.02011

 SCF     4     -1103.142275928        -0.008423879    2.090185

*********************************************************
 Using MIXING_FRACTION=0.450 to mix KS matrix:  iscf=  5
 KS_nw=0.450*KS + 0.550*KS_old
*********************************************************
     Est. extremal eigenvalues     -0.83323     5.34436  converged:  T
     TRS4 it   1 1.00000000   0.558E+02       0.019     5286.314   0.100E-11
     TRS4 it   2 1.00000000   0.542E+02       0.019     5358.008   0.100E-11
     TRS4 it   3 1.00000000   0.351E+02       0.036     5535.931   0.100E-11
     TRS4 it   4 1.00000000   0.183E+02       0.036     5509.978   0.100E-11
     TRS4 it   5 1.00000000   0.117E+02       0.036     5555.266   0.100E-11
     TRS4 it   6 1.00000000   0.604E+01       0.037     5496.240   0.100E-11
     TRS4 it   7 1.00000000   0.236E+01       0.037     5420.447   0.100E-11
     TRS4 it   8 1.00000000   0.627E+00       0.036     5642.529   0.100E-11
     TRS4 it   9 1.00000000   0.865E-01       0.036     5604.903   0.100E-11
     TRS4 it  10 1.00000000   0.391E-02       0.037     5483.297   0.100E-11
     TRS4 it  11 1.00000000   0.567E-05       0.037     5470.673   0.100E-11
     TRS4 it  12 1.00000000   0.132E-10       0.036     5518.400   0.100E-11
     Final TRS4 iteration   12 1.00000000   0.132E-10
     Chemical potential (mu):      -0.01942

 SCF     5     -1103.142949386        -0.000673458    2.089181

*********************************************************
 Using MIXING_FRACTION=0.450 to mix KS matrix:  iscf=  6
 KS_nw=0.450*KS + 0.550*KS_old
*********************************************************
     Est. extremal eigenvalues     -0.83240     5.34514  converged:  T
     TRS4 it   1 1.00000000   0.558E+02       0.019     5336.296   0.100E-11
     TRS4 it   2 1.00000000   0.542E+02       0.019     5270.622   0.100E-11
     TRS4 it   3 1.00000000   0.351E+02       0.037     5386.205   0.100E-11
     TRS4 it   4 1.00000000   0.183E+02       0.036     5590.018   0.100E-11
     TRS4 it   5 1.00000000   0.117E+02       0.037     5453.664   0.100E-11
     TRS4 it   6 1.00000000   0.605E+01       0.036     5508.392   0.100E-11
     TRS4 it   7 1.00000000   0.237E+01       0.037     5494.750   0.100E-11
     TRS4 it   8 1.00000000   0.631E+00       0.036     5566.304   0.100E-11
     TRS4 it   9 1.00000000   0.878E-01       0.036     5530.619   0.100E-11
     TRS4 it  10 1.00000000   0.408E-02       0.036     5574.407   0.100E-11
     TRS4 it  11 1.00000000   0.647E-05       0.037     5493.855   0.100E-11
     TRS4 it  12 1.00000000   0.182E-10       0.036     5535.108   0.100E-11
     Final TRS4 iteration   12 1.00000000   0.182E-10
     Chemical potential (mu):      -0.01835

 SCF     6     -1103.143048905        -0.000099519    2.094134

*********************************************************
 Using MIXING_FRACTION=0.450 to mix KS matrix:  iscf=  7
 KS_nw=0.450*KS + 0.550*KS_old
*********************************************************
     Est. extremal eigenvalues     -0.83202     5.34548  converged:  T
     TRS4 it   1 1.00000000   0.558E+02       0.019     5314.641   0.100E-11
     TRS4 it   2 1.00000000   0.542E+02       0.019     5300.500   0.100E-11
     TRS4 it   3 1.00000000   0.351E+02       0.037     5458.457   0.100E-11
     TRS4 it   4 1.00000000   0.183E+02       0.037     5468.380   0.100E-11
     TRS4 it   5 1.00000000   0.117E+02       0.037     5461.320   0.100E-11
     TRS4 it   6 1.00000000   0.605E+01       0.037     5398.888   0.100E-11
     TRS4 it   7 1.00000000   0.237E+01       0.036     5504.040   0.100E-11
     TRS4 it   8 1.00000000   0.632E+00       0.036     5604.654   0.100E-11
     TRS4 it   9 1.00000000   0.881E-01       0.037     5475.245   0.100E-11
     TRS4 it  10 1.00000000   0.410E-02       0.036     5511.357   0.100E-11
     TRS4 it  11 1.00000000   0.657E-05       0.036     5580.684   0.100E-11
     TRS4 it  12 1.00000000   0.189E-10       0.036     5517.008   0.100E-11
     Final TRS4 iteration   12 1.00000000   0.189E-10
     Chemical potential (mu):      -0.01799

 SCF     7     -1103.143069774        -0.000020869    2.092757

*********************************************************
 Using MIXING_FRACTION=0.450 to mix KS matrix:  iscf=  8
 KS_nw=0.450*KS + 0.550*KS_old
*********************************************************
     Est. extremal eigenvalues     -0.83182     5.34566  converged:  T
     TRS4 it   1 1.00000000   0.558E+02       0.019     5260.796   0.100E-11
     TRS4 it   2 1.00000000   0.542E+02       0.018     5463.923   0.100E-11
     TRS4 it   3 1.00000000   0.351E+02       0.037     5483.069   0.100E-11
     TRS4 it   4 1.00000000   0.183E+02       0.036     5502.613   0.100E-11
     TRS4 it   5 1.00000000   0.117E+02       0.036     5571.227   0.100E-11
     TRS4 it   6 1.00000000   0.606E+01       0.037     5494.881   0.100E-11
     TRS4 it   7 1.00000000   0.237E+01       0.036     5525.328   0.100E-11
     TRS4 it   8 1.00000000   0.632E+00       0.036     5536.312   0.100E-11
     TRS4 it   9 1.00000000   0.884E-01       0.036     5549.424   0.100E-11
     TRS4 it  10 1.00000000   0.413E-02       0.036     5572.806   0.100E-11
     TRS4 it  11 1.00000000   0.674E-05       0.036     5517.209   0.100E-11
     TRS4 it  12 1.00000000   0.202E-10       0.036     5535.128   0.100E-11
     Final TRS4 iteration   12 1.00000000   0.202E-10
     Chemical potential (mu):      -0.01774

 SCF     8     -1103.143074775        -0.000005000    2.088055


 SCF run converged in     8 steps.

 Writing restart DM 64H2O_ref_LS_DM_SPIN_1_RESTART.dm with checksum:       0.60921800E+04

 ENERGY| Total FORCE_EVAL ( QS ) energy [a.u.]:            -1103.143074774803154

 -------------------------------------------------------------------------------
 -                                                                             -
 -                                DBCSR STATISTICS                             -
 -                                                                             -
 -------------------------------------------------------------------------------
 COUNTER                                    TOTAL       BLAS       SMM       ACC
 flops     5 x     5 x     5          79251149250       0.0%    100.0%      0.0%     
 flops     5 x    13 x     5         102617028150       0.0%    100.0%      0.0%     
 flops    13 x     5 x     5         102628174350       0.0%    100.0%      0.0%     
 flops     5 x     5 x    13         103132861000       0.0%    100.0%      0.0%     
 flops     5 x    13 x    13         133583859760       0.0%    100.0%      0.0%     
 flops    13 x     5 x    13         133601613210       0.0%    100.0%      0.0%     
 flops    13 x    13 x     5         134738756750       0.0%    100.0%      0.0%     
 flops    13 x    13 x    13         175456255962       0.0%    100.0%      0.0%     
 flops inhomo. stacks                           0       0.0%      0.0%      0.0%
 flops total                       965.009698E+09       0.0%    100.0%      0.0%
 flops max/rank                     30.969838E+09       0.0%    100.0%      0.0%
 matmuls inhomo. stacks                         0       0.0%      0.0%      0.0%
 matmuls total                         1069188248       0.0%    100.0%      0.0%
 number of processed stacks               1514237       0.0%    100.0%      0.0%
 average stack size                                     0.0     706.1       0.0
 marketing flops                     1.569237E+12
 -------------------------------------------------------------------------------
 # multiplications                            246
 max memory usage/rank             617.492480E+06
 # max total images/rank                        2
 # max 3D layers                                1
 # MPI messages exchanged                  102336
 MPI messages size (bytes):
  total size                        42.310828E+09
  min size                           0.000000E+00
  max size                         541.696000E+03
  average size                     413.450094E+03
 MPI breakdown and total messages size (bytes):
             size <=      128                 312                        0
       128 < size <=     8192                  42                   279312
      8192 < size <=    32768                  62                   841968
     32768 < size <=   131072                  66                  8122560
    131072 < size <=  4194304              101854              42301584640
   4194304 < size <= 16777216                   0                        0
  16777216 < size                               0                        0
 -------------------------------------------------------------------------------

 *** WARNING in dbcsr_mm.F:301 :: Using a non-square number of MPI ranks ***
 *** might lead to poor performance. Used ranks: 32 Suggested: 36 64     ***

 -------------------------------------------------------------------------------
 -                                                                             -
 -                      DBCSR MESSAGE PASSING PERFORMANCE                      -
 -                                                                             -
 -------------------------------------------------------------------------------
 ROUTINE             CALLS      AVE VOLUME [Bytes]
 MP_Bcast                9                     12.
 MP_Allreduce         1762                     34.
 MP_Alltoall           546                  34827.
 MP_ISend             8604                 170602.
 MP_IRecv             8238                 178789.
 -------------------------------------------------------------------------------

 -------------------------------------------------------------------------------
 -                                                                             -
 -                                DBM STATISTICS                               -
 -                                                                             -
 -------------------------------------------------------------------------------
    M  x    N  x    K                                          COUNT     PERCENT
 -------------------------------------------------------------------------------

 -------------------------------------------------------------------------------
 -                                                                             -
 -                                GRID STATISTICS                              -
 -                                                                             -
 -------------------------------------------------------------------------------
 LP    KERNEL             BACKEND                              COUNT     PERCENT
 2     collocate ortho    CPU                                7375257      28.83%
 2     integrate ortho    CPU                                7375257      28.83%
 3     collocate ortho    CPU                                4740183      18.53%
 3     integrate ortho    CPU                                4740183      18.53%
 4     collocate ortho    CPU                                 672948       2.63%
 4     integrate ortho    CPU                                 672948       2.63%
 0     collocate general  CPU                                   6144       0.02%
 -------------------------------------------------------------------------------

 MEMORY| Estimated peak process memory [MiB]                                 590

 -------------------------------------------------------------------------------
 -                                                                             -
 -                         MESSAGE PASSING PERFORMANCE                         -
 -                                                                             -
 -------------------------------------------------------------------------------

 ROUTINE             CALLS      AVE VOLUME [Bytes]
 MP_Group                5
 MP_Bcast             2479                 157332.
 MP_Allreduce         6633                    940.
 MP_Sync                 5
 MP_Alltoall           244
 MP_SendRecv           837                  18832.
 MP_ISendRecv          837                  18832.
 MP_Wait              2391
 MP_ISend             1406                 108579.
 MP_IRecv             1406                 108603.
 -------------------------------------------------------------------------------


 -------------------------------------------------------------------------------
 -                                                                             -
 -                           R E F E R E N C E S                               -
 -                                                                             -
 -------------------------------------------------------------------------------
 
 CP2K version 2024.3 (Development Version), the CP2K developers group (2024).
 CP2K is freely available from https://www.cp2k.org/ .
 
 T. D. Kuehne, M. Iannuzzi, M. Del Ben, V. V. Rybkin, P. Seewald, F. Stein, T. 
 Laino, R. Z. Khaliullin, O. Schuett, F. Schiffmann, D. Golze, J. Wilhelm, S. 
 Chulkov, M. H. Bani-Hashemian, V. Weber, U. Borstnik, M. Taillefumier, A. S. 
 Jakobovits, A. Lazzaro, H. Pabst, T. Mueller, R. Schade, M. Guidon, S. 
 Andermatt, N. Holmberg, G. K. Schenter, A. Hehn, A. Bussy, F. Belleflamme, G. 
 Tabacchi, A. Gloess, M. Lass, I. Bethune, C. J. Mundy, C. Plessl, M. Watkins, 
 J. VandeVondele, M. Krack, J. Hutter.
 J. Chem. Phys. 152, 194103 (2020).
 CP2K: An electronic structure and molecular dynamics software package - 
 Quickstep: Efficient and accurate electronic structure calculations.
 https://doi.org/10.1063/5.0007045

 O. Schuett, P. Messmer, J. Hutter, J. VandeVondele.
 Electronic Structure Calculations on Graphics Processing Units, 173-190 (2016).
 GPU-Accelerated Sparse Matrix-Matrix Multiplication for Linear Scaling Density 
 Functional Theory.
 https://doi.org/10.1002/9781118670712.ch8

 A. Heinecke, G. Henry, M. Hutchinson, H. Pabst.
 Proceedings of Intl. Supercomputing Conference, 981-991 (2016).
 LIBXSMM: Accelerating Small Matrix Multiplications by Runtime Code Generation.
 https://doi.org/10.1109/SC.2016.83

 J. Hutter, M. Iannuzzi, F. Schiffmann, J. VandeVondele.
 WIREs Comput Mol Sci. 4, 15-25 (2014).
 CP2K: atomistic simulations of condensed matter systems.
 https://doi.org/10.1002/wcms.1159

 U. Borstnik, J. VandeVondele, V. Weber, J. Hutter.
 Parallel Comput. 40, 47-58 (2014).
 Sparse matrix multiplication: The distributed block-compressed sparse row 
 library.
 https://doi.org/10.1016/j.parco.2014.03.012

 A. Marek, V. Blum, R. Johanni, V. Havu, B. Lang, T. Auckenthaler, A. Heinecke, 
 H. Bungartz, H. Lederer.
 J. Phys. Condens. Matter 26, 213201 (2014).
 The ELPA library: scalable parallel eigenvalue solutions for electronic 
 structure theory and computational science.
 https://doi.org/10.1088/0953-8984/26/21/213201

 J. VandeVondele, U. Borstnik, J. Hutter.
 J. Chem. Theory Comput. 8, 3565-3573 (2012).
 Linear Scaling Self-Consistent Field Calculations with Millions of Atoms in the 
 Condensed Phase.
 https://doi.org/10.1021/ct200897x

 J. VandeVondele, J. Hutter.
 J. Chem. Phys. 127, 114105 (2007).
 Gaussian basis sets for accurate calculations on molecular systems in gas and 
 condensed phases.
 https://doi.org/10.1063/1.2770708

 J. VandeVondele, M. Krack, F. Mohamed, M. Parrinello, T. Chassaing, J. Hutter.
 Comput. Phys. Commun. 167, 103-128 (2005).
 QUICKSTEP: Fast and accurate density functional calculations using a mixed 
 Gaussian and plane waves approach.
 https://doi.org/10.1016/j.cpc.2004.12.014

 M. Krack.
 Theor. Chem. Acc. 114, 145-152 (2005).
 Pseudopotentials for H to Kr optimized for gradient-corrected 
 exchange-correlation functionals.
 https://doi.org/10.1007/s00214-005-0655-y

 M. Frigo, S. G. Johnson.
 Proc. IEEE 93, 216-231 (2005).
 The design and implementation of FFTW3.
 https://doi.org/10.1109/JPROC.2004.840301

 A. M. N. Niklasson, C. J. Tymczak, M. Challacombe.
 J. Chem. Phys. 118, 8611-8620 (2003).
 Trace resetting density matrix purification in O(N) self-consistent-field 
 theory.
 https://doi.org/10.1063/1.1559913

 C. Hartwigsen, S. Goedecker, J. Hutter.
 Phys. Rev. B 58, 3641-3662 (1998).
 Relativistic separable dual-space Gaussian pseudopotentials from H to Rn.
 https://doi.org/10.1103/PhysRevB.58.3641

 G. Lippert, J. Hutter, M. Parrinello.
 Mol. Phys. 92, 477-487 (1997).
 A hybrid Gaussian and plane wave density functional scheme.
 https://doi.org/10.1080/002689797170220

 S. Goedecker, M. Teter, J. Hutter.
 Phys. Rev. B 54, 1703-1710 (1996).
 Separable dual-space Gaussian pseudopotentials.
 https://doi.org/10.1103/PhysRevB.54.1703

 J. P. Perdew, K. Burke, M. Ernzerhof.
 Phys. Rev. Lett. 77, 3865-3868 (1996).
 Generalized gradient approximation made simple.
 https://doi.org/10.1103/PhysRevLett.77.3865


 -------------------------------------------------------------------------------
 -                                                                             -
 -                                T I M I N G                                  -
 -                                                                             -
 -------------------------------------------------------------------------------
 SUBROUTINE                       CALLS  ASD         SELF TIME        TOTAL TIME
                                MAXIMUM       AVERAGE  MAXIMUM  AVERAGE  MAXIMUM
 CP2K                                 1  1.0    0.012    0.016   20.505   20.506
 qs_energies                          1  2.0    0.000    0.000   20.355   20.356
 ls_scf                               1  3.0    0.000    0.000   19.270   19.271
 ls_scf_main                          1  4.0    0.000    0.000   16.720   16.721
 ls_scf_dm_to_ks                      8  5.0    0.000    0.000   12.404   12.408
 qs_ks_update_qs_env                  9  6.1    0.000    0.000    7.836    7.837
 rebuild_ks_matrix                    9  7.1    0.000    0.000    7.829    7.831
 qs_ks_build_kohn_sham_matrix         9  8.1    0.002    0.002    7.829    7.830
 qs_rho_update_rho_low                9  6.1    0.000    0.000    6.121    6.123
 calculate_rho_elec                   9  7.1    0.003    0.003    6.121    6.123
 sum_up_and_integrate                 9  9.1    0.000    0.000    5.927    5.929
 integrate_v_rspace                   9 10.1    0.000    0.000    5.918    5.920
 grid_collocate_task_list             9  8.1    5.437    5.536    5.437    5.536
 grid_integrate_task_list             9 11.1    5.200    5.310    5.200    5.310
 dbcsr_multiply_generic             246  6.2    0.012    0.013    4.689    4.694
 density_matrix_trs4                  8  5.0    0.004    0.006    4.311    4.314
 multiply_cannon                    246  7.2    0.018    0.025    3.824    3.907
 multiply_cannon_loop               246  8.2    0.019    0.021    3.750    3.799
 ls_scf_init_scf                      1  4.0    0.000    0.000    2.487    2.487
 multiply_cannon_multrec           1968  9.2    2.098    2.155    2.105    2.161
 mp_waitall_1                     16729 10.5    1.789    1.917    1.789    1.917
 fft_wrap_pw1pw2                    172 11.3    0.003    0.004    1.765    1.805
 fft_wrap_pw1pw2_200                100 12.8    0.103    0.108    1.692    1.716
 qs_vxc_create                        9  9.1    0.000    0.000    1.555    1.583
 xc_vxc_pw_create                     9 10.1    0.013    0.019    1.554    1.583
 ls_scf_initial_guess                 1  5.0    0.000    0.000    1.557    1.558
 ls_scf_qs_atomic_guess               1  6.0    0.000    0.000    1.557    1.558
 multiply_cannon_metrocomm3        1968  9.2    0.005    0.006    1.405    1.514
 fft3d_ps                           172 13.3    0.719    0.797    1.325    1.413
 xc_pw_derive                        54 12.1    0.001    0.001    1.102    1.183
 qs_energies_init_hamiltonians        1  3.0    0.000    0.000    1.084    1.084
 ls_scf_init_matrix_S                 1  5.0    0.000    0.000    0.930    0.931
 matrix_sqrt_Newton_Schulz            1  6.0    0.001    0.001    0.906    0.907
 build_core_hamiltonian_matrix        1  4.0    0.000    0.000    0.714    0.897
 xc_rho_set_and_dset_create           9 11.1    0.020    0.025    0.785    0.808
 xc_pw_divergence                     9 11.1    0.000    0.000    0.737    0.778
 density_rs2pw                        9  8.1    0.000    0.000    0.651    0.705
 make_m2s                           492  7.2    0.005    0.007    0.687    0.697
 make_images                        492  8.2    0.039    0.040    0.677    0.688
 mp_alltoall_z22v                   172 15.3    0.430    0.650    0.430    0.650
 build_core_ppl                       1  5.0    0.488    0.647    0.488    0.647
 mp_waitany                        1406 12.5    0.535    0.636    0.535    0.636
 potential_pw2rs                      9 11.1    0.001    0.001    0.600    0.601
 transfer_rs2pw                      46  9.0    0.001    0.001    0.470    0.557
 transfer_rs2pw_200                  10  9.8    0.035    0.045    0.366    0.451
 arnoldi_extremal                     9  6.1    0.000    0.000    0.442    0.442
 arnoldi_normal_ev                    9  7.1    0.000    0.001    0.441    0.441
 qs_env_update_s_mstruct              1  4.0    0.000    0.000    0.352    0.419
 yz_to_x                             64 14.2    0.059    0.078    0.280    0.417
 -------------------------------------------------------------------------------

 The number of warnings for this run is : 1
 
 -------------------------------------------------------------------------------
  **** **** ******  **  PROGRAM ENDED AT                 2024-09-23 17:49:04.814
 ***** ** ***  *** **   PROGRAM RAN ON                                    moritz
 **    ****   ******    PROGRAM RAN BY                                       ole
 ***** **    ** ** **   PROGRAM PROCESS ID                                160005
  **** **  *******  **  PROGRAM STOPPED IN /home/ole/git/pao_ml_equivar/64H2O_MD
                                           /Frame5400
