 DBCSR| CPU Multiplication driver                                           XSMM (U)
 DBCSR| Multrec recursion limit                                              512 (U)
 DBCSR| Multiplication stack size                                           1000 (D)
 DBCSR| Maximum elements for images                                    UNLIMITED (U)
 DBCSR| Multiplicative factor virtual images                                   1 (U)
 DBCSR| Use multiplication densification                                       T (D)
 DBCSR| Multiplication size stacks                                             3 (U)
 DBCSR| Use memory pool for CPU allocation                                     F (U)
 DBCSR| Number of 3D layers                                               SINGLE (U)
 DBCSR| Use MPI memory allocation                                              F (U)
 DBCSR| Use RMA algorithm                                                      F (U)
 DBCSR| Use Communication thread                                               T (U)
 DBCSR| Communication thread load                                             87 (D)
 DBCSR| MPI: My process id                                                     0
 DBCSR| MPI: Number of processes                                              32
 DBCSR| OMP: Current number of threads                                         1
 DBCSR| OMP: Max number of threads                                             1
 DBCSR| Split modifier for TAS multiplication algorithm                  1.0E+00 (U)


  **** **** ******  **  PROGRAM STARTED AT               2024-09-24 05:05:46.686
 ***** ** ***  *** **   PROGRAM STARTED ON                                moritz
 **    ****   ******    PROGRAM STARTED BY                                   ole
 ***** **    ** ** **   PROGRAM PROCESS ID                                169144
  **** **  *******  **  PROGRAM STARTED IN /home/ole/git/pao_ml_equivar/64H2O_MD
                                           /Frame5500

 CP2K| version string:                 CP2K version 2024.3 (Development Version)
 CP2K| source code revision number:                                  git:3f890bb
 CP2K| cp2kflags: omp libint fftw3 libxc libgrpp pexsi elpa parallel scalapack c
 CP2K|            osma quip deepmd xsmm plumed2 spglib libdftd4 sirius libvori l
 CP2K|            libbqb libvdwxc hdf5
 CP2K| is freely available from                            https://www.cp2k.org/
 CP2K| Program compiled at                          Mo 23 Sep 2024 17:17:04 CEST
 CP2K| Program compiled on                                                moritz
 CP2K| Program compiled for                                                local
 CP2K| Data directory path                               /home/ole/git/cp2k/data
 CP2K| Input file name                                           64H2O_pao44.inp

 GLOBAL| Force Environment number                                              1
 GLOBAL| Basis set file name                                        BASIS_MOLOPT
 GLOBAL| Potential file name                                      GTH_POTENTIALS
 GLOBAL| MM Potential file name                                     MM_POTENTIAL
 GLOBAL| Coordinate file name                                         coords.xyz
 GLOBAL| Method name                                                        CP2K
 GLOBAL| Project name                                                64H2O_pao44
 GLOBAL| Run type                                                         ENERGY
 GLOBAL| FFT library                                                       FFTW3
 GLOBAL| Diagonalization library                                            ELPA
 GLOBAL| DGEMM library                                                      BLAS
 GLOBAL| Minimum number of eigenvectors for ELPA usage                        16
 GLOBAL| Orthonormality check for eigenvectors                          DISABLED
 GLOBAL| Matrix multiplication library                                     COSMA
 GLOBAL| All-to-all communication in single precision                          F
 GLOBAL| FFTs using library dependent lengths                                  F
 GLOBAL| Grid backend                                                       AUTO
 GLOBAL| Global print level                                                  LOW
 GLOBAL| MPI I/O enabled                                                       T
 GLOBAL| Total number of message passing processes                            32
 GLOBAL| Number of threads for this process                                    1
 GLOBAL| This output is from process                                           0
 GLOBAL| Stack size for threads created by OpenMP (OMP_STACKSIZE)        default
 GLOBAL| CPU model name           AMD Ryzen Threadripper 3970X 32-Core Processor
 GLOBAL| CPUID                                                              1002

 MEMORY| system memory details [Kb]
 MEMORY|                        rank 0           min           max       average
 MEMORY| MemTotal            131752136     131752136     131752136     131752136
 MEMORY| MemFree             114287632     114287632     114287632     114287632
 MEMORY| Buffers               2022336       2022336       2022336       2022336
 MEMORY| Cached                8699808       8699808       8699808       8699808
 MEMORY| Slab                  1639928       1639928       1639928       1639928
 MEMORY| SReclaimable          1145612       1145612       1145612       1145612
 MEMORY| MemLikelyFree       126155388     126155388     126155388     126155388


 GENERATE|  Preliminary Number of Bonds generated:                             0
 GENERATE|  Achieved consistency in connectivity generation.

 *******************************************************************************
 *******************************************************************************
 **                                                                           **
 **     #####                         ##              ##                      **
 **    ##   ##            ##          ##              ##                      **
 **   ##     ##                       ##            ######                    **
 **   ##     ##  ##   ##  ##   #####  ##  ##   ####   ##    #####    #####    **
 **   ##     ##  ##   ##  ##  ##      ## ##   ##      ##   ##   ##  ##   ##   **
 **   ##  ## ##  ##   ##  ##  ##      ####     ###    ##   ######   ######    **
 **    ##  ###   ##   ##  ##  ##      ## ##      ##   ##   ##       ##        **
 **     #######   #####   ##   #####  ##  ##  ####    ##    #####   ##        **
 **           ##                                                    ##        **
 **                                                                           **
 **                                                ... make the atoms dance   **
 **                                                                           **
 **            Copyright (C) by CP2K developers group (2000-2024)             **
 **                      J. Chem. Phys. 152, 194103 (2020)                    **
 **                                                                           **
 *******************************************************************************


 TOTAL NUMBERS AND MAXIMUM NUMBERS

  Total number of            - Atomic kinds:                                   2
                             - Atoms:                                        192
                             - Shell sets:                                   192
                             - Shells:                                       704
                             - Primitive Cartesian functions:               1344
                             - Cartesian basis functions:                   1536
                             - Spherical basis functions:                   1472

  Maximum angular momentum of- Orbital basis functions:                        2
                             - Local part of the GTH pseudopotential:          2
                             - Non-local part of the GTH pseudopotential:      0

 ------------------------------ Linear scaling SCF -----------------------------
 eps_scf:                                                              0.100E-07
 eps_filter:                                                           0.100E-11
 mixing_fraction:                                                      0.450E+00
 max_scf:                                                                     25
 fixed chemical potential (mu)                                                 F
 has unit metric:                                                              F
 Computing inv(S):                                                             T
 Computing sqrt(S):                                                            T
 Computing S preconditioner                                                    F
 S sqrt method:                                                     NEWTONSCHULZ
 S sqrt order:                                                                 3
 Extrapolation order:                                                          1
 S preconditioner type                                                      NONE
 Polarized Atomic Orbitals (PAO)                                               T
 Purification method                                   Trace resetting 4th order
 Cluster type                                                             ATOMIC
 Computing Chebyshev                                                       FALSE
 Using PAO                                                                     T
 -------------------------------------------------------------------------------

 
 PAO|                                  EPS_PAO                           0.5E-06
 PAO|                                  MIXING                            0.5E+00
 PAO|                                  MAX_PAO                              1500
 PAO|                                  MAX_CYCLES                           1000
 PAO|                                  PARAMETERIZATION              EQUIVARIANT
 PAO|                                  PRECONDITION                            F
 PAO|                                  REGULARIZATION                    0.0E+00
 PAO|                                  EPS_PGF                           0.1E-09
 PAO|                                  PENALTY_DISTANCE                  0.1E+00
 PAO|                                  PENALTY_STRENGTH                  0.5E-02
 PAO|                                  LINPOT_PRECONDITION_DELTA         0.0E+00
 PAO|                                  LINPOT_INITGUESS_DELT             0.0E+00
 PAO|                                  LINPOT_REGULARIZATION_DELTA       0.0E+00
 PAO|                                  LINPOT_REGULARIZATION_STRENGTH    0.0E+00
 PAO|                                  OPTIMIZER                              CG
 PAO|                                  CG_INIT_STEPS                           2
 PAO|                                  CG_RESET_LIMIT                    0.1E+00
 PAO|                                  CHECK_UNITARY_TOL                -0.1E+01
 PAO|                                  CHECK_GRADIENT_TOL               -0.1E+01
 PAO|                                  NUM_GRADIENT_ORDER                      2
 PAO|                                  NUM_GRADIENT_EPS                  0.1E-07
 PAO|                                  PRINT%RESTART%WRITE_CYCLES            100
 PAO|                                  RESTART_FILE 
 PAO|                                  PREOPT_DM_FILE 64H2O_ref_LS_DM_SPIN_1_RESTART.dm
 PAO|                                  MACHINE_LEARNING%METHOD       GAUSSIAN_PR
 PAO|                                  MACHINE_LEARNING%PRIOR               ZERO
 PAO|                                  MACHINE_LEARNING%DESCRIPTOR     POTENTIAL
 PAO|                                  MACHINE_LEARNING%TOLERANCE        0.1E-01
 PAO|                                  MACHINE_LEARNING%GP_NOISE_VAR     0.1E+00
 PAO|                                  MACHINE_LEARNING%GP_SCALE         0.5E-01
 

 Calculating atomic Fock matrix for atomic kind: O

 Electronic structure
    Total number of core electrons                                          2.00
    Total number of valence electrons                                       6.00
    Total number of electrons                                               8.00
    Multiplicity                                                   not specified
    S   [  2.00] 2.00
    P      4.00


 *******************************************************************************
                  Iteration          Convergence                     Energy [au]
 *******************************************************************************
                          1        0.708315                     -15.576645311500
                          2        0.608879                     -15.587933561584
                          3        0.102828E-01                 -15.656849565404
                          4        0.113889E-02                 -15.656866888140
                          5        0.434197E-03                 -15.656867072159
                          6        0.263771E-03                 -15.656867091904
                          7        0.478536E-06                 -15.656867103452

 Energy components [Hartree]           Total Energy ::          -15.656867103452
                                        Band Energy ::           -3.000198112285
                                     Kinetic Energy ::           11.759971203220
                                   Potential Energy ::          -27.416838306672
                                      Virial (-V/T) ::            2.331369510426
                                        Core Energy ::          -26.140716385623
                                          XC Energy ::           -3.154051012914
                                     Coulomb Energy ::           13.637900295084
                       Total Pseudopotential Energy ::          -37.935781716540
                       Local Pseudopotential Energy ::          -39.218907440693
                    Nonlocal Pseudopotential Energy ::            1.283125724153
                                        Confinement ::            0.350941276976

 Orbital energies  State     L     Occupation   Energy[a.u.]          Energy[eV]

                       1     0          2.000      -0.864471          -23.523463

                       1     1          4.000      -0.317814           -8.648154


 Total Electron Density at R=0:                                         0.000068

 Calculating atomic Fock matrix for atomic kind: H

 Electronic structure
    Total number of core electrons                                          0.00
    Total number of valence electrons                                       1.00
    Total number of electrons                                               1.00
    Multiplicity                                                   not specified
    S      1.00


 *******************************************************************************
                  Iteration          Convergence                     Energy [au]
 *******************************************************************************
                          1        0.437545E-02                  -0.424159432110
                          2        0.531356E-03                  -0.424178438213
                          3        0.259176E-06                  -0.424178722480

 Energy components [Hartree]           Total Energy ::           -0.424178722480
                                        Band Energy ::           -0.199015229016
                                     Kinetic Energy ::            0.464007633961
                                   Potential Energy ::           -0.888186356441
                                      Virial (-V/T) ::            1.914163240935
                                        Core Energy ::           -0.479160803564
                                          XC Energy ::           -0.244352904054
                                     Coulomb Energy ::            0.299334985138
                       Total Pseudopotential Energy ::           -0.962295316385
                       Local Pseudopotential Energy ::           -0.962295316385
                    Nonlocal Pseudopotential Energy ::            0.000000000000
                                        Confinement ::            0.191268788606

 Orbital energies  State     L     Occupation   Energy[a.u.]          Energy[eV]

                       1     0          1.000      -0.199015           -5.415480


 Total Electron Density at R=0:                                         0.242907
 PAO| Made initial guess for matrix_X with norm:   27.712812921102035     

     Lanczos converged:  F threshold:   0.100E-02
     Est. extremal eigenvalues:    0.622E+01   0.946E-01
     Est. condition number :    0.658E+02

 Order=           3
     NS sqrt iter    1 1.00000000   0.152E+01       0.021     2689.085
     NS sqrt iter    2 1.00000000   0.824E+00       0.034     3360.925
     NS sqrt iter    3 1.00000000   0.331E+00       0.034     3340.590
     NS sqrt iter    4 1.00000000   0.923E-01       0.034     3344.019
     NS sqrt iter    5 1.00000000   0.330E-02       0.034     3352.801
     NS sqrt iter    6 1.00000000   0.268E-06       0.029     2903.995
     Symmetrizing Results
     Final NS sqrt iter    6 1.00000000   0.143E-12

 PAO| Read restart DM 64H2O_ref_LS_DM_SPIN_1_RESTART.dm with checksum:    6178.8132539419148     
 PAO| Quickstep energy from restart density:  -1103.1420308900599     
 PAO| ======================= Iteration:         1 =============================

     Lanczos converged:  F threshold:   0.100E-02
     Est. extremal eigenvalues:    0.622E+01   0.946E-01
     Est. condition number :    0.658E+02

 Order=           3
     NS sqrt iter    1 1.00000000   0.152E+01       0.021     2675.499
     NS sqrt iter    2 1.00000000   0.824E+00       0.034     3360.825
     NS sqrt iter    3 1.00000000   0.331E+00       0.034     3352.675
     NS sqrt iter    4 1.00000000   0.923E-01       0.034     3368.476
     NS sqrt iter    5 1.00000000   0.330E-02       0.034     3366.968
     NS sqrt iter    6 1.00000000   0.268E-06       0.029     2901.572
     Symmetrizing Results
     Final NS sqrt iter    6 1.00000000   0.143E-12

     Est. extremal eigenvalues     -0.81282     2.60363  converged:  T
     TRS4 it   1 1.00000000   0.272E+02       0.007     2093.510   0.100E-11
     TRS4 it   2 1.00000000   0.235E+02       0.013     2188.879   0.100E-11
     TRS4 it   3 1.00000000   0.159E+02       0.013     2195.075   0.100E-11
     TRS4 it   4 1.00000000   0.993E+01       0.013     2182.603   0.100E-11
     TRS4 it   5 1.00000000   0.478E+01       0.013     2146.163   0.100E-11
     TRS4 it   6 1.00000000   0.158E+01       0.013     2175.960   0.100E-11
     TRS4 it   7 1.00000000   0.307E+00       0.013     2177.248   0.100E-11
     TRS4 it   8 1.00000000   0.211E-01       0.013     2142.295   0.100E-11
     TRS4 it   9 1.00000000   0.170E-03       0.013     2180.284   0.100E-11
     TRS4 it  10 1.00000000   0.113E-07       0.013     2190.885   0.100E-11
     TRS4 it  11 1.00000000   0.178E-13       0.013     2176.372   0.100E-11
     Final TRS4 iteration   11 1.00000000   0.178E-13
     Chemical potential (mu):       0.00926
 
 PAO| energy:  -186.08466316034617      penalty:   1.4976031247555144E-031
 PAO|CG| warming up with steepest descent
 PAO|CG| beta:    0.0000000000000000     
 PAO| norm of gradient:   3.9756452351405231     
 PAO|LS| adapt:  T F F
 PAO|LS| adapt: scan_steps:    0.0000000000000000        0.0000000000000000        0.0000000000000000     
 PAO|LS| adapt: energies:   -186.08466316034617        0.0000000000000000        0.0000000000000000     
 PAO| ======================= Iteration:         2 =============================

     Lanczos converged:  F threshold:   0.100E-02
     Est. extremal eigenvalues:    0.600E+01   0.102E+00
     Est. condition number :    0.591E+02

 Order=           3
     NS sqrt iter    1 1.00000000   0.148E+01       0.021     2679.511
     NS sqrt iter    2 1.00000000   0.795E+00       0.034     3355.169
     NS sqrt iter    3 1.00000000   0.310E+00       0.034     3374.027
     NS sqrt iter    4 1.00000000   0.776E-01       0.034     3347.285
     NS sqrt iter    5 1.00000000   0.206E-02       0.033     3386.648
     NS sqrt iter    6 1.00000000   0.751E-07       0.029     2912.043
     Symmetrizing Results
     Final NS sqrt iter    6 1.00000000   0.123E-13

     Est. extremal eigenvalues     -0.81604     2.60314  converged:  T
     TRS4 it   1 1.00000000   0.274E+02       0.008     1720.584   0.100E-11
     TRS4 it   2 1.00000000   0.235E+02       0.016     1807.018   0.100E-11
     TRS4 it   3 1.00000000   0.158E+02       0.016     1794.810   0.100E-11
     TRS4 it   4 1.00000000   0.973E+01       0.016     1803.810   0.100E-11
     TRS4 it   5 1.00000000   0.456E+01       0.016     1787.353   0.100E-11
     TRS4 it   6 1.00000000   0.145E+01       0.016     1795.304   0.100E-11
     TRS4 it   7 1.00000000   0.263E+00       0.016     1767.045   0.100E-11
     TRS4 it   8 1.00000000   0.151E-01       0.015     1919.223   0.100E-11
     TRS4 it   9 1.00000000   0.780E-04       0.013     2164.672   0.100E-11
     TRS4 it  10 1.00000000   0.274E-08       0.013     2172.132   0.100E-11
     TRS4 it  11 1.00000000   0.711E-14       0.013     2178.148   0.100E-11
     Final TRS4 iteration   11 1.00000000   0.711E-14
     Chemical potential (mu):       0.01497
 
 PAO| energy:  -187.53660255113229      penalty:   4.6999019203569492E-007
 PAO|LS| adapt:  T T F
 PAO|LS| adapt: scan_steps:    0.0000000000000000       0.10000000000000001        0.0000000000000000     
 PAO|LS| adapt: energies:   -186.08466316034617       -187.53660255113229        0.0000000000000000     
 PAO| ======================= Iteration:         3 =============================

     Lanczos converged:  F threshold:   0.100E-02
     Est. extremal eigenvalues:    0.578E+01   0.107E+00
     Est. condition number :    0.540E+02

 Order=           3
     NS sqrt iter    1 1.00000000   0.143E+01       0.021     2683.251
     NS sqrt iter    2 1.00000000   0.765E+00       0.034     3352.359
     NS sqrt iter    3 1.00000000   0.290E+00       0.034     3377.505
     NS sqrt iter    4 1.00000000   0.650E-01       0.034     3368.770
     NS sqrt iter    5 1.00000000   0.129E-02       0.033     3389.220
     NS sqrt iter    6 1.00000000   0.224E-07       0.029     2899.678
     Symmetrizing Results
     Final NS sqrt iter    6 1.00000000   0.326E-14

     Est. extremal eigenvalues     -0.81915     2.60347  converged:  T
     TRS4 it   1 1.00000000   0.276E+02       0.007     2112.602   0.100E-11
     TRS4 it   2 1.00000000   0.235E+02       0.013     2209.304   0.100E-11
     TRS4 it   3 1.00000000   0.157E+02       0.013     2158.229   0.100E-11
     TRS4 it   4 1.00000000   0.954E+01       0.013     2173.351   0.100E-11
     TRS4 it   5 1.00000000   0.436E+01       0.013     2173.258   0.100E-11
     TRS4 it   6 1.00000000   0.133E+01       0.013     2158.080   0.100E-11
     TRS4 it   7 1.00000000   0.222E+00       0.013     2176.211   0.100E-11
     TRS4 it   8 1.00000000   0.104E-01       0.013     2187.569   0.100E-11
     TRS4 it   9 1.00000000   0.332E-04       0.013     2212.982   0.100E-11
     TRS4 it  10 1.00000000   0.576E-09       0.013     2171.810   0.100E-11
     TRS4 it  11 1.00000000   0.426E-13       0.013     2175.193   0.100E-11
     Final TRS4 iteration   11 1.00000000   0.426E-13
     Chemical potential (mu):       0.02149
 
 PAO| energy:  -188.71468428768429      penalty:   7.5198430726169830E-006
 PAO|LS| adapt:  T T F
 PAO|LS| adapt: scan_steps:    0.0000000000000000       0.20000000000000001        0.0000000000000000     
 PAO|LS| adapt: energies:   -186.08466316034617       -188.71468428768429        0.0000000000000000     
 PAO| ======================= Iteration:         4 =============================

     Lanczos converged:  F threshold:   0.100E-02
     Est. extremal eigenvalues:    0.536E+01   0.117E+00
     Est. condition number :    0.458E+02

 Order=           3
     NS sqrt iter    1 1.00000000   0.135E+01       0.021     2704.829
     NS sqrt iter    2 1.00000000   0.708E+00       0.034     3357.772
     NS sqrt iter    3 1.00000000   0.252E+00       0.034     3339.776
     NS sqrt iter    4 1.00000000   0.455E-01       0.034     3352.354
     NS sqrt iter    5 1.00000000   0.528E-03       0.034     3359.073
     NS sqrt iter    6 1.00000000   0.207E-08       0.029     2853.509
     Symmetrizing Results
     Final NS sqrt iter    6 1.00000000   0.146E-13

     Est. extremal eigenvalues     -0.82444     2.60600  converged:  T
     TRS4 it   1 1.00000000   0.281E+02       0.007     2115.372   0.100E-11
     TRS4 it   2 1.00000000   0.235E+02       0.013     2173.952   0.100E-11
     TRS4 it   3 1.00000000   0.155E+02       0.013     2174.173   0.100E-11
     TRS4 it   4 1.00000000   0.921E+01       0.013     2179.247   0.100E-11
     TRS4 it   5 1.00000000   0.401E+01       0.013     2198.069   0.100E-11
     TRS4 it   6 1.00000000   0.111E+01       0.013     2185.102   0.100E-11
     TRS4 it   7 1.00000000   0.158E+00       0.013     2151.504   0.100E-11
     TRS4 it   8 1.00000000   0.479E-02       0.013     2183.405   0.100E-11
     TRS4 it   9 1.00000000   0.558E-05       0.013     2163.372   0.100E-11
     TRS4 it  10 1.00000000   0.175E-10       0.013     2146.485   0.100E-11
     Final TRS4 iteration   10 1.00000000   0.175E-10
     Chemical potential (mu):       0.04101
 
 PAO| energy:  -190.20599298097733      penalty:   1.2031748916224271E-004
 PAO|LS| Need extra step
 PAO|LS| adapt:  T T F
 PAO|LS| adapt: scan_steps:    0.0000000000000000       0.40000000000000002        0.0000000000000000     
 PAO|LS| adapt: energies:   -186.08466316034617       -190.20599298097733        0.0000000000000000     
 PAO| ======================= Iteration:         5 =============================

     Lanczos converged:  F threshold:   0.100E-02
     Est. extremal eigenvalues:    0.468E+01   0.132E+00
     Est. condition number :    0.356E+02

 Order=           3
     NS sqrt iter    1 1.00000000   0.122E+01       0.022     2625.520
     NS sqrt iter    2 1.00000000   0.615E+00       0.034     3370.349
     NS sqrt iter    3 1.00000000   0.194E+00       0.034     3371.473
     NS sqrt iter    4 1.00000000   0.236E-01       0.034     3362.936
     NS sqrt iter    5 1.00000000   0.984E-04       0.034     3353.895
     NS sqrt iter    6 1.00000000   0.199E-10       0.018     2172.752
     Symmetrizing Results
     Final NS sqrt iter    6 1.00000000   0.212E-11

     Est. extremal eigenvalues     -0.82836     2.60960  converged:  T
     TRS4 it   1 1.00000000   0.287E+02       0.007     2113.158   0.100E-11
     TRS4 it   2 1.00000000   0.236E+02       0.013     2198.445   0.100E-11
     TRS4 it   3 1.00000000   0.153E+02       0.013     2159.687   0.100E-11
     TRS4 it   4 1.00000000   0.874E+01       0.013     2173.817   0.100E-11
     TRS4 it   5 1.00000000   0.350E+01       0.013     2190.387   0.100E-11
     TRS4 it   6 1.00000000   0.828E+00       0.013     2196.270   0.100E-11
     TRS4 it   7 1.00000000   0.857E-01       0.013     2178.183   0.100E-11
     TRS4 it   8 1.00000000   0.130E-02       0.013     2177.418   0.100E-11
     TRS4 it   9 1.00000000   0.391E-06       0.013     2174.628   0.100E-11
     TRS4 it  10 1.00000000   0.995E-13       0.013     2183.869   0.100E-11
     Final TRS4 iteration   10 1.00000000   0.995E-13
     Chemical potential (mu):       0.06348
 
 PAO| energy:  -189.85126540709118      penalty:   1.9250798265988492E-003
 PAO|LS| Need extra step
 PAO|LS| adapt:  T T T
 PAO|LS| adapt: scan_steps:    0.0000000000000000       0.40000000000000002       0.80000000000000004     
 PAO|LS| adapt: energies:   -186.08466316034617       -190.20599298097733       -189.85126540709118     
 PAO|LS| adapt: suggested step_size:   0.56829999773276785     
 PAO|LS| adapt: predicted energy  -190.60219244946947     
 PAO| ======================= Iteration:         6 =============================

     Lanczos converged:  F threshold:   0.100E-02
     Est. extremal eigenvalues:    0.504E+01   0.123E+00
     Est. condition number :    0.409E+02

 Order=           3
     NS sqrt iter    1 1.00000000   0.129E+01       0.021     2704.999
     NS sqrt iter    2 1.00000000   0.665E+00       0.034     3336.366
     NS sqrt iter    3 1.00000000   0.224E+00       0.034     3344.477
     NS sqrt iter    4 1.00000000   0.340E-01       0.034     3355.082
     NS sqrt iter    5 1.00000000   0.254E-03       0.034     3349.579
     NS sqrt iter    6 1.00000000   0.280E-09       0.028     2673.054
     Symmetrizing Results
     Final NS sqrt iter    6 1.00000000   0.363E-12

     Est. extremal eigenvalues     -0.82737     2.60808  converged:  T
     TRS4 it   1 1.00000000   0.284E+02       0.007     2126.913   0.100E-11
     TRS4 it   2 1.00000000   0.235E+02       0.013     2172.468   0.100E-11
     TRS4 it   3 1.00000000   0.154E+02       0.013     2187.039   0.100E-11
     TRS4 it   4 1.00000000   0.899E+01       0.013     2192.461   0.100E-11
     TRS4 it   5 1.00000000   0.376E+01       0.013     2177.835   0.100E-11
     TRS4 it   6 1.00000000   0.972E+00       0.013     2200.103   0.100E-11
     TRS4 it   7 1.00000000   0.119E+00       0.013     2177.950   0.100E-11
     TRS4 it   8 1.00000000   0.260E-02       0.013     2174.628   0.100E-11
     TRS4 it   9 1.00000000   0.152E-05       0.013     2191.342   0.100E-11
     TRS4 it  10 1.00000000   0.118E-11       0.013     2173.133   0.100E-11
     Final TRS4 iteration   10 1.00000000   0.118E-11
     Chemical potential (mu):       0.05182
 
 PAO| energy:  -190.57597441351965      penalty:   4.9022946666696572E-004
 PAO|CG| warming up with steepest descent
 PAO|CG| beta:    0.0000000000000000     
 PAO| norm of gradient:   2.0868370707884560     
 PAO| energy improvement:  -4.4913112531734782     
 PAO| step      6                 -190.575974414  0.408E-02  0.568E+00     2.535
 PAO|LS| adapt:  T F F
 PAO|LS| adapt: scan_steps:    0.0000000000000000        0.0000000000000000        0.0000000000000000     
 PAO|LS| adapt: energies:   -190.57597441351965        0.0000000000000000        0.0000000000000000     
 PAO| ======================= Iteration:         7 =============================

     Lanczos converged:  F threshold:   0.100E-02
     Est. extremal eigenvalues:    0.488E+01   0.131E+00
     Est. condition number :    0.373E+02

 Order=           3
     NS sqrt iter    1 1.00000000   0.125E+01       0.021     2664.716
     NS sqrt iter    2 1.00000000   0.639E+00       0.034     3361.960
     NS sqrt iter    3 1.00000000   0.207E+00       0.034     3371.181
     NS sqrt iter    4 1.00000000   0.274E-01       0.034     3336.740
     NS sqrt iter    5 1.00000000   0.141E-03       0.034     3356.535
     NS sqrt iter    6 1.00000000   0.517E-10       0.023     2361.984
     Symmetrizing Results
     Final NS sqrt iter    6 1.00000000   0.212E-11

     Est. extremal eigenvalues     -0.82762     2.59807  converged:  T
     TRS4 it   1 1.00000000   0.285E+02       0.007     2154.870   0.100E-11
     TRS4 it   2 1.00000000   0.236E+02       0.013     2166.285   0.100E-11
     TRS4 it   3 1.00000000   0.155E+02       0.013     2179.114   0.100E-11
     TRS4 it   4 1.00000000   0.912E+01       0.013     2188.903   0.100E-11
     TRS4 it   5 1.00000000   0.386E+01       0.013     2181.256   0.100E-11
     TRS4 it   6 1.00000000   0.995E+00       0.013     2181.409   0.100E-11
     TRS4 it   7 1.00000000   0.120E+00       0.013     2193.264   0.100E-11
     TRS4 it   8 1.00000000   0.259E-02       0.013     2181.195   0.100E-11
     TRS4 it   9 1.00000000   0.156E-05       0.013     2186.285   0.100E-11
     TRS4 it  10 1.00000000   0.128E-11       0.013     2188.358   0.100E-11
     Final TRS4 iteration   10 1.00000000   0.128E-11
     Chemical potential (mu):       0.05397
 
 PAO| energy:  -189.64481871555483      penalty:   6.8930325104190498E-004
 PAO|LS| adapt:  T F T
 PAO|LS| adapt: scan_steps:    0.0000000000000000        0.0000000000000000       0.56829999773276785     
 PAO|LS| adapt: energies:   -190.57597441351965        0.0000000000000000       -189.64481871555483     
 PAO| ======================= Iteration:         8 =============================

     Lanczos converged:  F threshold:   0.100E-02
     Est. extremal eigenvalues:    0.496E+01   0.127E+00
     Est. condition number :    0.391E+02

 Order=           3
     NS sqrt iter    1 1.00000000   0.127E+01       0.021     2691.039
     NS sqrt iter    2 1.00000000   0.652E+00       0.034     3343.520
     NS sqrt iter    3 1.00000000   0.216E+00       0.034     3353.547
     NS sqrt iter    4 1.00000000   0.306E-01       0.034     3348.021
     NS sqrt iter    5 1.00000000   0.190E-03       0.034     3346.328
     NS sqrt iter    6 1.00000000   0.122E-09       0.027     2522.066
     Symmetrizing Results
     Final NS sqrt iter    6 1.00000000   0.137E-11

     Est. extremal eigenvalues     -0.82846     2.60329  converged:  T
     TRS4 it   1 1.00000000   0.284E+02       0.007     2130.355   0.100E-11
     TRS4 it   2 1.00000000   0.235E+02       0.013     2166.731   0.100E-11
     TRS4 it   3 1.00000000   0.155E+02       0.013     2177.870   0.100E-11
     TRS4 it   4 1.00000000   0.902E+01       0.013     2168.851   0.100E-11
     TRS4 it   5 1.00000000   0.378E+01       0.013     2173.477   0.100E-11
     TRS4 it   6 1.00000000   0.974E+00       0.013     2178.750   0.100E-11
     TRS4 it   7 1.00000000   0.119E+00       0.013     2183.745   0.100E-11
     TRS4 it   8 1.00000000   0.257E-02       0.013     2176.958   0.100E-11
     TRS4 it   9 1.00000000   0.151E-05       0.013     2145.750   0.100E-11
     TRS4 it  10 1.00000000   0.119E-11       0.013     2165.150   0.100E-11
     Final TRS4 iteration   10 1.00000000   0.119E-11
     Chemical potential (mu):       0.05183
 
 PAO| energy:  -190.94842780890266      penalty:   5.1975499133613469E-004
 PAO|LS| adapt:  T T T
 PAO|LS| adapt: scan_steps:    0.0000000000000000       0.28414999886638392       0.56829999773276785     
 PAO|LS| adapt: energies:   -190.57597441351965       -190.94842780890266       -189.64481871555483     
 PAO|LS| adapt: suggested step_size:   0.20521860689857019     
 PAO|LS| adapt: predicted energy  -191.01309208452497     
 PAO| ======================= Iteration:         9 =============================

     Lanczos converged:  F threshold:   0.100E-02
     Est. extremal eigenvalues:    0.499E+01   0.126E+00
     Est. condition number :    0.396E+02

 Order=           3
     NS sqrt iter    1 1.00000000   0.127E+01       0.021     2698.842
     NS sqrt iter    2 1.00000000   0.655E+00       0.034     3347.782
     NS sqrt iter    3 1.00000000   0.218E+00       0.034     3343.063
     NS sqrt iter    4 1.00000000   0.315E-01       0.034     3364.680
     NS sqrt iter    5 1.00000000   0.206E-03       0.034     3338.603
     NS sqrt iter    6 1.00000000   0.154E-09       0.027     2561.312
     Symmetrizing Results
     Final NS sqrt iter    6 1.00000000   0.102E-11

     Est. extremal eigenvalues     -0.82836     2.60466  converged:  T
     TRS4 it   1 1.00000000   0.284E+02       0.007     2149.479   0.100E-11
     TRS4 it   2 1.00000000   0.235E+02       0.013     2169.259   0.100E-11
     TRS4 it   3 1.00000000   0.154E+02       0.013     2202.823   0.100E-11
     TRS4 it   4 1.00000000   0.900E+01       0.013     2186.705   0.100E-11
     TRS4 it   5 1.00000000   0.377E+01       0.013     2178.056   0.100E-11
     TRS4 it   6 1.00000000   0.972E+00       0.013     2196.005   0.100E-11
     TRS4 it   7 1.00000000   0.119E+00       0.013     2174.763   0.100E-11
     TRS4 it   8 1.00000000   0.257E-02       0.013     2152.637   0.100E-11
     TRS4 it   9 1.00000000   0.151E-05       0.013     2171.147   0.100E-11
     TRS4 it  10 1.00000000   0.117E-11       0.013     2197.480   0.100E-11
     Final TRS4 iteration   10 1.00000000   0.117E-11
     Chemical potential (mu):       0.05162
 
 PAO| energy:  -191.01744394278825      penalty:   5.0215973107181817E-004
 PAO|CG| trace_G_new   0.71370574931901265     
 PAO|CG| trace_G_prev    4.3548889600169440     
 PAO|CG| trace_G_mix   -4.1707052494330508E-002
 PAO|CG| trace_D    4.3548889600169440     
 PAO|CG| trace_D_Gnew   4.1707052494330508E-002
 PAO|CG| beta:   0.17346316031222159     
 PAO| norm of gradient:  0.84481107315127724     
 PAO| energy improvement: -0.44146952926860195     
 PAO| step      9                 -191.017443943  0.165E-02  0.205E+00     1.543
 PAO|LS| adapt:  T F F
 PAO|LS| adapt: scan_steps:    0.0000000000000000        0.0000000000000000        0.0000000000000000     
 PAO|LS| adapt: energies:   -191.01744394278825        0.0000000000000000        0.0000000000000000     
 PAO| ======================= Iteration:        10 =============================

     Lanczos converged:  F threshold:   0.100E-02
     Est. extremal eigenvalues:    0.493E+01   0.129E+00
     Est. condition number :    0.381E+02

 Order=           3
     NS sqrt iter    1 1.00000000   0.126E+01       0.021     2671.051
     NS sqrt iter    2 1.00000000   0.647E+00       0.034     3351.946
     NS sqrt iter    3 1.00000000   0.213E+00       0.034     3354.930
     NS sqrt iter    4 1.00000000   0.293E-01       0.034     3349.480
     NS sqrt iter    5 1.00000000   0.166E-03       0.034     3362.235
     NS sqrt iter    6 1.00000000   0.801E-10       0.025     2416.943
     Symmetrizing Results
     Final NS sqrt iter    6 1.00000000   0.180E-11

     Est. extremal eigenvalues     -0.82889     2.59420  converged:  T
     TRS4 it   1 1.00000000   0.284E+02       0.007     2099.214   0.100E-11
     TRS4 it   2 1.00000000   0.235E+02       0.013     2196.682   0.100E-11
     TRS4 it   3 1.00000000   0.154E+02       0.013     2162.276   0.100E-11
     TRS4 it   4 1.00000000   0.899E+01       0.013     2175.115   0.100E-11
     TRS4 it   5 1.00000000   0.375E+01       0.013     2190.945   0.100E-11
     TRS4 it   6 1.00000000   0.960E+00       0.013     2164.722   0.100E-11
     TRS4 it   7 1.00000000   0.115E+00       0.013     2166.305   0.100E-11
     TRS4 it   8 1.00000000   0.244E-02       0.013     2174.688   0.100E-11
     TRS4 it   9 1.00000000   0.136E-05       0.013     2176.885   0.100E-11
     TRS4 it  10 1.00000000   0.943E-12       0.013     2171.258   0.100E-11
     Final TRS4 iteration   10 1.00000000   0.943E-12
     Chemical potential (mu):       0.05244
 
 PAO| energy:  -191.11525153610393      penalty:   5.0424013325780191E-004
 PAO|LS| adapt:  T T F
 PAO|LS| adapt: scan_steps:    0.0000000000000000       0.20521860689857019        0.0000000000000000     
 PAO|LS| adapt: energies:   -191.01744394278825       -191.11525153610393        0.0000000000000000     
 PAO| ======================= Iteration:        11 =============================

     Lanczos converged:  F threshold:   0.100E-02
     Est. extremal eigenvalues:    0.488E+01   0.133E+00
     Est. condition number :    0.367E+02

 Order=           3
     NS sqrt iter    1 1.00000000   0.125E+01       0.021     2680.876
     NS sqrt iter    2 1.00000000   0.639E+00       0.034     3326.961
     NS sqrt iter    3 1.00000000   0.207E+00       0.034     3349.158
     NS sqrt iter    4 1.00000000   0.272E-01       0.034     3348.831
     NS sqrt iter    5 1.00000000   0.133E-03       0.034     3352.309
     NS sqrt iter    6 1.00000000   0.411E-10       0.021     2276.753
     Symmetrizing Results
     Final NS sqrt iter    6 1.00000000   0.225E-11

     Est. extremal eigenvalues     -0.82907     2.58439  converged:  T
     TRS4 it   1 1.00000000   0.284E+02       0.007     2065.753   0.100E-11
     TRS4 it   2 1.00000000   0.234E+02       0.013     2171.465   0.100E-11
     TRS4 it   3 1.00000000   0.154E+02       0.013     2147.873   0.100E-11
     TRS4 it   4 1.00000000   0.897E+01       0.013     2172.100   0.100E-11
     TRS4 it   5 1.00000000   0.373E+01       0.013     2203.519   0.100E-11
     TRS4 it   6 1.00000000   0.947E+00       0.013     2173.831   0.100E-11
     TRS4 it   7 1.00000000   0.112E+00       0.013     2172.807   0.100E-11
     TRS4 it   8 1.00000000   0.229E-02       0.013     2187.177   0.100E-11
     TRS4 it   9 1.00000000   0.121E-05       0.013     2185.028   0.100E-11
     TRS4 it  10 1.00000000   0.750E-12       0.013     2176.263   0.100E-11
     Final TRS4 iteration   10 1.00000000   0.750E-12
     Chemical potential (mu):       0.05333
 
 PAO| energy:  -191.12124919787388      penalty:   5.1590481876481189E-004
 PAO|LS| adapt:  T T F
 PAO|LS| adapt: scan_steps:    0.0000000000000000       0.41043721379714038        0.0000000000000000     
 PAO|LS| adapt: energies:   -191.01744394278825       -191.12124919787388        0.0000000000000000     
 PAO| ======================= Iteration:        12 =============================

     Lanczos converged:  F threshold:   0.100E-02
     Est. extremal eigenvalues:    0.478E+01   0.139E+00
     Est. condition number :    0.344E+02

 Order=           3
     NS sqrt iter    1 1.00000000   0.123E+01       0.021     2698.485
     NS sqrt iter    2 1.00000000   0.623E+00       0.034     3348.870
     NS sqrt iter    3 1.00000000   0.196E+00       0.034     3325.066
     NS sqrt iter    4 1.00000000   0.234E-01       0.034     3334.135
     NS sqrt iter    5 1.00000000   0.848E-04       0.034     3357.795
     NS sqrt iter    6 1.00000000   0.104E-10       0.015     2120.344
     Symmetrizing Results
     Final NS sqrt iter    6 1.00000000   0.167E-11

     Est. extremal eigenvalues     -0.82838     2.56666  converged:  T
     TRS4 it   1 1.00000000   0.284E+02       0.007     2133.747   0.100E-11
     TRS4 it   2 1.00000000   0.233E+02       0.013     2175.551   0.100E-11
     TRS4 it   3 1.00000000   0.154E+02       0.013     2164.923   0.100E-11
     TRS4 it   4 1.00000000   0.891E+01       0.013     2181.208   0.100E-11
     TRS4 it   5 1.00000000   0.368E+01       0.013     2169.410   0.100E-11
     TRS4 it   6 1.00000000   0.916E+00       0.013     2180.793   0.100E-11
     TRS4 it   7 1.00000000   0.104E+00       0.013     2196.546   0.100E-11
     TRS4 it   8 1.00000000   0.198E-02       0.013     2183.045   0.100E-11
     TRS4 it   9 1.00000000   0.923E-06       0.013     2174.751   0.100E-11
     TRS4 it  10 1.00000000   0.448E-12       0.013     2197.767   0.100E-11
     Final TRS4 iteration   10 1.00000000   0.448E-12
     Chemical potential (mu):       0.05530
 
 PAO| energy:  -190.87385122242623      penalty:   5.7464283747802073E-004
 PAO|LS| Need extra step
 PAO|LS| adapt:  T T T
 PAO|LS| adapt: scan_steps:    0.0000000000000000       0.41043721379714038       0.82087442759428075     
 PAO|LS| adapt: energies:   -191.01744394278825       -191.12124919787388       -190.87385122242623     
 PAO|LS| adapt: suggested step_size:   0.32653167002203187     
 PAO|LS| adapt: predicted energy  -191.12858785094863     
 PAO| ======================= Iteration:        13 =============================

     Lanczos converged:  F threshold:   0.100E-02
     Est. extremal eigenvalues:    0.490E+01   0.131E+00
     Est. condition number :    0.373E+02

 Order=           3
     NS sqrt iter    1 1.00000000   0.126E+01       0.021     2689.402
     NS sqrt iter    2 1.00000000   0.642E+00       0.034     3349.029
     NS sqrt iter    3 1.00000000   0.209E+00       0.034     3375.983
     NS sqrt iter    4 1.00000000   0.280E-01       0.034     3374.784
     NS sqrt iter    5 1.00000000   0.146E-03       0.034     3335.017
     NS sqrt iter    6 1.00000000   0.540E-10       0.023     2336.964
     Symmetrizing Results
     Final NS sqrt iter    6 1.00000000   0.210E-11

     Est. extremal eigenvalues     -0.82904     2.58832  converged:  T
     TRS4 it   1 1.00000000   0.284E+02       0.007     2084.411   0.100E-11
     TRS4 it   2 1.00000000   0.235E+02       0.013     2182.290   0.100E-11
     TRS4 it   3 1.00000000   0.154E+02       0.013     2181.143   0.100E-11
     TRS4 it   4 1.00000000   0.897E+01       0.013     2160.297   0.100E-11
     TRS4 it   5 1.00000000   0.374E+01       0.013     2168.107   0.100E-11
     TRS4 it   6 1.00000000   0.953E+00       0.013     2197.239   0.100E-11
     TRS4 it   7 1.00000000   0.113E+00       0.013     2174.674   0.100E-11
     TRS4 it   8 1.00000000   0.235E-02       0.013     2166.088   0.100E-11
     TRS4 it   9 1.00000000   0.127E-05       0.013     2155.782   0.100E-11
     TRS4 it  10 1.00000000   0.854E-12       0.013     2169.091   0.100E-11
     Final TRS4 iteration   10 1.00000000   0.854E-12
     Chemical potential (mu):       0.05295
 
 PAO| energy:  -191.12964169806031      penalty:   5.0990093985519690E-004
 PAO|CG| trace_G_new   0.26294050265235835     
 PAO|CG| trace_G_prev   0.71370574931901265     
 PAO|CG| trace_G_mix   -1.1095940699645174E-002
 PAO|CG| trace_D   0.83027276699591657     
 PAO|CG| trace_D_Gnew   1.1412147397764199E-002
 PAO|CG| beta:   0.38396277963779513     
 PAO| norm of gradient:  0.51277724467097641     
 PAO| energy improvement: -0.11219775527206366     
 PAO| step     13                 -191.129641698  0.100E-02  0.327E+00     1.999
 PAO|LS| adapt:  T F F
 PAO|LS| adapt: scan_steps:    0.0000000000000000        0.0000000000000000        0.0000000000000000     
 PAO|LS| adapt: energies:   -191.12964169806031        0.0000000000000000        0.0000000000000000     
 PAO| ======================= Iteration:        14 =============================

     Lanczos converged:  F threshold:   0.100E-02
     Est. extremal eigenvalues:    0.484E+01   0.134E+00
     Est. condition number :    0.361E+02

 Order=           3
     NS sqrt iter    1 1.00000000   0.124E+01       0.021     2696.192
     NS sqrt iter    2 1.00000000   0.632E+00       0.034     3374.015
     NS sqrt iter    3 1.00000000   0.203E+00       0.034     3352.995
     NS sqrt iter    4 1.00000000   0.260E-01       0.034     3363.041
     NS sqrt iter    5 1.00000000   0.118E-03       0.034     3341.216
     NS sqrt iter    6 1.00000000   0.293E-10       0.020     2221.362
     Symmetrizing Results
     Final NS sqrt iter    6 1.00000000   0.229E-11

     Est. extremal eigenvalues     -0.82944     2.58565  converged:  T
     TRS4 it   1 1.00000000   0.284E+02       0.007     2111.139   0.100E-11
     TRS4 it   2 1.00000000   0.234E+02       0.013     2163.999   0.100E-11
     TRS4 it   3 1.00000000   0.154E+02       0.013     2179.437   0.100E-11
     TRS4 it   4 1.00000000   0.892E+01       0.013     2201.698   0.100E-11
     TRS4 it   5 1.00000000   0.369E+01       0.013     2152.156   0.100E-11
     TRS4 it   6 1.00000000   0.924E+00       0.013     2183.253   0.100E-11
     TRS4 it   7 1.00000000   0.107E+00       0.013     2176.334   0.100E-11
     TRS4 it   8 1.00000000   0.208E-02       0.013     2183.619   0.100E-11
     TRS4 it   9 1.00000000   0.101E-05       0.013     2175.584   0.100E-11
     TRS4 it  10 1.00000000   0.542E-12       0.013     2183.325   0.100E-11
     Final TRS4 iteration   10 1.00000000   0.542E-12
     Chemical potential (mu):       0.05475
 
 PAO| energy:  -191.17881008271317      penalty:   5.1053463757845530E-004
 PAO|LS| adapt:  T T F
 PAO|LS| adapt: scan_steps:    0.0000000000000000       0.32653167002203187        0.0000000000000000     
 PAO|LS| adapt: energies:   -191.12964169806031       -191.17881008271317        0.0000000000000000     
 PAO| ======================= Iteration:        15 =============================

     Lanczos converged:  F threshold:   0.100E-02
     Est. extremal eigenvalues:    0.477E+01   0.137E+00
     Est. condition number :    0.349E+02

 Order=           3
     NS sqrt iter    1 1.00000000   0.123E+01       0.021     2696.650
     NS sqrt iter    2 1.00000000   0.622E+00       0.034     3374.633
     NS sqrt iter    3 1.00000000   0.197E+00       0.034     3357.882
     NS sqrt iter    4 1.00000000   0.241E-01       0.034     3360.382
     NS sqrt iter    5 1.00000000   0.960E-04       0.034     3361.682
     NS sqrt iter    6 1.00000000   0.160E-10       0.017     2146.475
     Symmetrizing Results
     Final NS sqrt iter    6 1.00000000   0.199E-11

     Est. extremal eigenvalues     -0.82949     2.58314  converged:  T
     TRS4 it   1 1.00000000   0.285E+02       0.007     2126.948   0.100E-11
     TRS4 it   2 1.00000000   0.234E+02       0.013     2177.235   0.100E-11
     TRS4 it   3 1.00000000   0.154E+02       0.013     2182.705   0.100E-11
     TRS4 it   4 1.00000000   0.887E+01       0.013     2181.507   0.100E-11
     TRS4 it   5 1.00000000   0.363E+01       0.013     2144.618   0.100E-11
     TRS4 it   6 1.00000000   0.897E+00       0.013     2182.494   0.100E-11
     TRS4 it   7 1.00000000   0.101E+00       0.013     2168.957   0.100E-11
     TRS4 it   8 1.00000000   0.185E-02       0.013     2173.075   0.100E-11
     TRS4 it   9 1.00000000   0.800E-06       0.013     2176.516   0.100E-11
     TRS4 it  10 1.00000000   0.345E-12       0.013     2156.909   0.100E-11
     Final TRS4 iteration   10 1.00000000   0.345E-12
     Chemical potential (mu):       0.05646
 
 PAO| energy:  -191.15849497656291      penalty:   5.2498912354253331E-004
 PAO|LS| adapt:  T T T
 PAO|LS| adapt: scan_steps:    0.0000000000000000       0.32653167002203187       0.65306334004406374     
 PAO|LS| adapt: energies:   -191.12964169806031       -191.17881008271317       -191.15849497656291     
 PAO|LS| adapt: suggested step_size:   0.39432841645895483     
 PAO|LS| adapt: predicted energy  -191.18030776164150     
 PAO| ======================= Iteration:        16 =============================

     Lanczos converged:  F threshold:   0.100E-02
     Est. extremal eigenvalues:    0.482E+01   0.134E+00
     Est. condition number :    0.359E+02

 Order=           3
     NS sqrt iter    1 1.00000000   0.124E+01       0.021     2653.713
     NS sqrt iter    2 1.00000000   0.630E+00       0.034     3351.199
     NS sqrt iter    3 1.00000000   0.202E+00       0.034     3363.684
     NS sqrt iter    4 1.00000000   0.256E-01       0.034     3366.644
     NS sqrt iter    5 1.00000000   0.113E-03       0.034     3368.278
     NS sqrt iter    6 1.00000000   0.258E-10       0.019     2200.031
     Symmetrizing Results
     Final NS sqrt iter    6 1.00000000   0.227E-11

     Est. extremal eigenvalues     -0.82948     2.58511  converged:  T
     TRS4 it   1 1.00000000   0.284E+02       0.007     2093.223   0.100E-11
     TRS4 it   2 1.00000000   0.234E+02       0.013     2181.509   0.100E-11
     TRS4 it   3 1.00000000   0.154E+02       0.013     2170.987   0.100E-11
     TRS4 it   4 1.00000000   0.891E+01       0.013     2172.468   0.100E-11
     TRS4 it   5 1.00000000   0.368E+01       0.013     2173.748   0.100E-11
     TRS4 it   6 1.00000000   0.919E+00       0.013     2197.818   0.100E-11
     TRS4 it   7 1.00000000   0.106E+00       0.013     2158.079   0.100E-11
     TRS4 it   8 1.00000000   0.203E-02       0.013     2181.621   0.100E-11
     TRS4 it   9 1.00000000   0.959E-06       0.013     2179.517   0.100E-11
     TRS4 it  10 1.00000000   0.451E-12       0.013     2213.310   0.100E-11
     Final TRS4 iteration   10 1.00000000   0.451E-12
     Chemical potential (mu):       0.05512
 
 PAO| energy:  -191.18025549173225      penalty:   5.1235825398509357E-004
 PAO|CG| trace_G_new   0.10134610249798980     
 PAO|CG| trace_G_prev   0.26294050265235835     
 PAO|CG| trace_G_mix    4.0883628046331708E-003
 PAO|CG| trace_D   0.37658179171497408     
 PAO|CG| trace_D_Gnew   7.0367060910482419E-004
 PAO|CG| beta:   0.36988496907965546     
 PAO| norm of gradient:  0.31834902622434674     
 PAO| energy improvement:  -5.0613793671942631E-002
 PAO| step     16                 -191.180255492  0.622E-03  0.394E+00     1.521
 PAO|LS| adapt:  T F F
 PAO|LS| adapt: scan_steps:    0.0000000000000000        0.0000000000000000        0.0000000000000000     
 PAO|LS| adapt: energies:   -191.18025549173225        0.0000000000000000        0.0000000000000000     
 PAO| ======================= Iteration:        17 =============================

     Lanczos converged:  F threshold:   0.100E-02
     Est. extremal eigenvalues:    0.479E+01   0.136E+00
     Est. condition number :    0.353E+02

 Order=           3
     NS sqrt iter    1 1.00000000   0.123E+01       0.021     2678.162
     NS sqrt iter    2 1.00000000   0.625E+00       0.034     3360.411
     NS sqrt iter    3 1.00000000   0.199E+00       0.034     3369.818
     NS sqrt iter    4 1.00000000   0.248E-01       0.033     3388.891
     NS sqrt iter    5 1.00000000   0.103E-03       0.033     3394.480
     NS sqrt iter    6 1.00000000   0.199E-10       0.018     2177.492
     Symmetrizing Results
     Final NS sqrt iter    6 1.00000000   0.214E-11

     Est. extremal eigenvalues     -0.82953     2.58478  converged:  T
     TRS4 it   1 1.00000000   0.285E+02       0.007     2135.928   0.100E-11
     TRS4 it   2 1.00000000   0.234E+02       0.013     2187.609   0.100E-11
     TRS4 it   3 1.00000000   0.154E+02       0.013     2201.555   0.100E-11
     TRS4 it   4 1.00000000   0.887E+01       0.013     2169.109   0.100E-11
     TRS4 it   5 1.00000000   0.363E+01       0.013     2194.634   0.100E-11
     TRS4 it   6 1.00000000   0.899E+00       0.013     2162.038   0.100E-11
     TRS4 it   7 1.00000000   0.101E+00       0.013     2166.335   0.100E-11
     TRS4 it   8 1.00000000   0.187E-02       0.013     2199.534   0.100E-11
     TRS4 it   9 1.00000000   0.815E-06       0.013     2200.525   0.100E-11
     TRS4 it  10 1.00000000   0.327E-12       0.013     2197.027   0.100E-11
     Final TRS4 iteration   10 1.00000000   0.327E-12
     Chemical potential (mu):       0.05626
 
 PAO| energy:  -191.18486896915942      penalty:   5.0405221073682497E-004
 PAO|LS| adapt:  T T F
 PAO|LS| adapt: scan_steps:    0.0000000000000000       0.39432841645895483        0.0000000000000000     
 PAO|LS| adapt: energies:   -191.18025549173225       -191.18486896915942        0.0000000000000000     
 PAO| ======================= Iteration:        18 =============================

     Lanczos converged:  F threshold:   0.100E-02
     Est. extremal eigenvalues:    0.475E+01   0.137E+00
     Est. condition number :    0.348E+02

 Order=           3
     NS sqrt iter    1 1.00000000   0.123E+01       0.021     2656.151
     NS sqrt iter    2 1.00000000   0.621E+00       0.034     3350.026
     NS sqrt iter    3 1.00000000   0.197E+00       0.034     3352.840
     NS sqrt iter    4 1.00000000   0.241E-01       0.034     3361.414
     NS sqrt iter    5 1.00000000   0.951E-04       0.034     3342.551
     NS sqrt iter    6 1.00000000   0.155E-10       0.017     2138.901
     Symmetrizing Results
     Final NS sqrt iter    6 1.00000000   0.197E-11

     Est. extremal eigenvalues     -0.82943     2.58469  converged:  T
     TRS4 it   1 1.00000000   0.285E+02       0.007     2139.168   0.100E-11
     TRS4 it   2 1.00000000   0.234E+02       0.013     2178.268   0.100E-11
     TRS4 it   3 1.00000000   0.153E+02       0.013     2166.546   0.100E-11
     TRS4 it   4 1.00000000   0.882E+01       0.013     2169.086   0.100E-11
     TRS4 it   5 1.00000000   0.359E+01       0.013     2173.597   0.100E-11
     TRS4 it   6 1.00000000   0.880E+00       0.013     2184.325   0.100E-11
     TRS4 it   7 1.00000000   0.972E-01       0.013     2167.066   0.100E-11
     TRS4 it   8 1.00000000   0.172E-02       0.013     2183.985   0.100E-11
     TRS4 it   9 1.00000000   0.694E-06       0.013     2156.756   0.100E-11
     TRS4 it  10 1.00000000   0.240E-12       0.013     2166.346   0.100E-11
     Final TRS4 iteration   10 1.00000000   0.240E-12
     Chemical potential (mu):       0.05744
 
 PAO| energy:  -191.11883483461241      penalty:   5.0314372291094839E-004
 PAO|LS| adapt:  T T T
 PAO|LS| adapt: scan_steps:    0.0000000000000000       0.39432841645895483       0.78865683291790967     
 PAO|LS| adapt: energies:   -191.18025549173225       -191.18486896915942       -191.11883483461241     
 PAO|LS| adapt: suggested step_size:   0.22291490520831098     
 PAO|LS| adapt: predicted energy  -191.19154381813098     
 PAO| ======================= Iteration:        19 =============================

     Lanczos converged:  F threshold:   0.100E-02
     Est. extremal eigenvalues:    0.480E+01   0.135E+00
     Est. condition number :    0.356E+02

 Order=           3
     NS sqrt iter    1 1.00000000   0.124E+01       0.021     2678.338
     NS sqrt iter    2 1.00000000   0.627E+00       0.034     3372.731
     NS sqrt iter    3 1.00000000   0.201E+00       0.034     3370.180
     NS sqrt iter    4 1.00000000   0.251E-01       0.034     3351.165
     NS sqrt iter    5 1.00000000   0.107E-03       0.034     3354.581
     NS sqrt iter    6 1.00000000   0.223E-10       0.018     2204.567
     Symmetrizing Results
     Final NS sqrt iter    6 1.00000000   0.220E-11

     Est. extremal eigenvalues     -0.82953     2.58489  converged:  T
     TRS4 it   1 1.00000000   0.285E+02       0.007     2107.549   0.100E-11
     TRS4 it   2 1.00000000   0.234E+02       0.013     2153.793   0.100E-11
     TRS4 it   3 1.00000000   0.154E+02       0.013     2183.236   0.100E-11
     TRS4 it   4 1.00000000   0.889E+01       0.013     2159.236   0.100E-11
     TRS4 it   5 1.00000000   0.365E+01       0.013     2152.646   0.100E-11
     TRS4 it   6 1.00000000   0.907E+00       0.013     2186.770   0.100E-11
     TRS4 it   7 1.00000000   0.103E+00       0.013     2195.837   0.100E-11
     TRS4 it   8 1.00000000   0.194E-02       0.013     2167.213   0.100E-11
     TRS4 it   9 1.00000000   0.875E-06       0.013     2172.742   0.100E-11
     TRS4 it  10 1.00000000   0.405E-12       0.013     2168.096   0.100E-11
     Final TRS4 iteration   10 1.00000000   0.405E-12
     Chemical potential (mu):       0.05576
 
 PAO| energy:  -191.19153180580312      penalty:   5.0676667190939864E-004
 PAO|CG| trace_G_new    2.1168255638964809E-002
 PAO|CG| trace_G_prev   0.10134610249798980     
 PAO|CG| trace_G_mix   -3.5980679051555173E-004
 PAO|CG| trace_D   0.15234754467669684     
 PAO|CG| trace_D_Gnew  -4.3864438565534704E-005
 PAO|CG| beta:   0.21242121698668551     
 PAO| norm of gradient:  0.14549314636423535     
 PAO| energy improvement:  -1.1276314070869375E-002
 PAO| step     19                 -191.191531806  0.284E-03  0.223E+00     1.518
 PAO|LS| adapt:  T F F
 PAO|LS| adapt: scan_steps:    0.0000000000000000        0.0000000000000000        0.0000000000000000     
 PAO|LS| adapt: energies:   -191.19153180580312        0.0000000000000000        0.0000000000000000     
 PAO| ======================= Iteration:        20 =============================

     Lanczos converged:  F threshold:   0.100E-02
     Est. extremal eigenvalues:    0.480E+01   0.135E+00
     Est. condition number :    0.355E+02

 Order=           3
     NS sqrt iter    1 1.00000000   0.124E+01       0.022     2641.606
     NS sqrt iter    2 1.00000000   0.627E+00       0.033     3381.644
     NS sqrt iter    3 1.00000000   0.201E+00       0.034     3360.386
     NS sqrt iter    4 1.00000000   0.251E-01       0.034     3341.642
     NS sqrt iter    5 1.00000000   0.107E-03       0.034     3353.288
     NS sqrt iter    6 1.00000000   0.221E-10       0.018     2188.058
     Symmetrizing Results
     Final NS sqrt iter    6 1.00000000   0.219E-11

     Est. extremal eigenvalues     -0.82954     2.58402  converged:  T
     TRS4 it   1 1.00000000   0.285E+02       0.007     2119.724   0.100E-11
     TRS4 it   2 1.00000000   0.234E+02       0.013     2190.827   0.100E-11
     TRS4 it   3 1.00000000   0.154E+02       0.013     2172.949   0.100E-11
     TRS4 it   4 1.00000000   0.887E+01       0.013     2168.653   0.100E-11
     TRS4 it   5 1.00000000   0.364E+01       0.013     2163.647   0.100E-11
     TRS4 it   6 1.00000000   0.903E+00       0.013     2196.205   0.100E-11
     TRS4 it   7 1.00000000   0.102E+00       0.013     2177.680   0.100E-11
     TRS4 it   8 1.00000000   0.190E-02       0.013     2174.462   0.100E-11
     TRS4 it   9 1.00000000   0.846E-06       0.013     2193.480   0.100E-11
     TRS4 it  10 1.00000000   0.410E-12       0.013     2167.572   0.100E-11
     Final TRS4 iteration   10 1.00000000   0.410E-12
     Chemical potential (mu):       0.05597
 
 PAO| energy:  -191.19532926625814      penalty:   4.9681971697345751E-004
 PAO|LS| adapt:  T T F
 PAO|LS| adapt: scan_steps:    0.0000000000000000       0.22291490520831098        0.0000000000000000     
 PAO|LS| adapt: energies:   -191.19153180580312       -191.19532926625814        0.0000000000000000     
 PAO| ======================= Iteration:        21 =============================

     Lanczos converged:  F threshold:   0.100E-02
     Est. extremal eigenvalues:    0.479E+01   0.135E+00
     Est. condition number :    0.355E+02

 Order=           3
     NS sqrt iter    1 1.00000000   0.123E+01       0.021     2673.455
     NS sqrt iter    2 1.00000000   0.626E+00       0.033     3388.965
     NS sqrt iter    3 1.00000000   0.200E+00       0.033     3380.546
     NS sqrt iter    4 1.00000000   0.251E-01       0.034     3380.440
     NS sqrt iter    5 1.00000000   0.107E-03       0.034     3356.545
     NS sqrt iter    6 1.00000000   0.219E-10       0.018     2179.543
     Symmetrizing Results
     Final NS sqrt iter    6 1.00000000   0.220E-11

     Est. extremal eigenvalues     -0.82954     2.58317  converged:  T
     TRS4 it   1 1.00000000   0.285E+02       0.007     2097.283   0.100E-11
     TRS4 it   2 1.00000000   0.234E+02       0.013     2180.626   0.100E-11
     TRS4 it   3 1.00000000   0.154E+02       0.013     2162.067   0.100E-11
     TRS4 it   4 1.00000000   0.886E+01       0.013     2170.515   0.100E-11
     TRS4 it   5 1.00000000   0.363E+01       0.013     2159.012   0.100E-11
     TRS4 it   6 1.00000000   0.899E+00       0.013     2160.098   0.100E-11
     TRS4 it   7 1.00000000   0.101E+00       0.013     2187.708   0.100E-11
     TRS4 it   8 1.00000000   0.187E-02       0.013     2175.567   0.100E-11
     TRS4 it   9 1.00000000   0.819E-06       0.013     2148.592   0.100E-11
     TRS4 it  10 1.00000000   0.396E-12       0.013     2179.384   0.100E-11
     Final TRS4 iteration   10 1.00000000   0.396E-12
     Chemical potential (mu):       0.05618
 
 PAO| energy:  -191.19726665925612      penalty:   4.8731724866616705E-004
 PAO|LS| adapt:  T T F
 PAO|LS| adapt: scan_steps:    0.0000000000000000       0.44582981041662195        0.0000000000000000     
 PAO|LS| adapt: energies:   -191.19153180580312       -191.19726665925612        0.0000000000000000     
 PAO| ======================= Iteration:        22 =============================

     Lanczos converged:  F threshold:   0.100E-02
     Est. extremal eigenvalues:    0.479E+01   0.135E+00
     Est. condition number :    0.354E+02

 Order=           3
     NS sqrt iter    1 1.00000000   0.123E+01       0.021     2681.369
     NS sqrt iter    2 1.00000000   0.626E+00       0.034     3369.402
     NS sqrt iter    3 1.00000000   0.200E+00       0.034     3355.532
     NS sqrt iter    4 1.00000000   0.251E-01       0.034     3373.460
     NS sqrt iter    5 1.00000000   0.107E-03       0.034     3328.174
     NS sqrt iter    6 1.00000000   0.216E-10       0.018     2178.786
     Symmetrizing Results
     Final NS sqrt iter    6 1.00000000   0.219E-11

     Est. extremal eigenvalues     -0.82955     2.58151  converged:  T
     TRS4 it   1 1.00000000   0.285E+02       0.007     2134.144   0.100E-11
     TRS4 it   2 1.00000000   0.234E+02       0.013     2198.901   0.100E-11
     TRS4 it   3 1.00000000   0.154E+02       0.013     2184.806   0.100E-11
     TRS4 it   4 1.00000000   0.884E+01       0.013     2192.046   0.100E-11
     TRS4 it   5 1.00000000   0.361E+01       0.013     2180.822   0.100E-11
     TRS4 it   6 1.00000000   0.890E+00       0.013     2198.939   0.100E-11
     TRS4 it   7 1.00000000   0.997E-01       0.013     2178.145   0.100E-11
     TRS4 it   8 1.00000000   0.181E-02       0.013     2175.694   0.100E-11
     TRS4 it   9 1.00000000   0.766E-06       0.013     2151.834   0.100E-11
     TRS4 it  10 1.00000000   0.323E-12       0.013     2155.245   0.100E-11
     Final TRS4 iteration   10 1.00000000   0.323E-12
     Chemical potential (mu):       0.05661
 
 PAO| energy:  -191.19548023574495      penalty:   4.6961606447255057E-004
 PAO|LS| Need extra step
 PAO|LS| adapt:  T T T
 PAO|LS| adapt: scan_steps:    0.0000000000000000       0.44582981041662195       0.89165962083324390     
 PAO|LS| adapt: energies:   -191.19153180580312       -191.19726665925612       -191.19548023574495     
 PAO|LS| adapt: suggested step_size:   0.56285300879093436     
 PAO|LS| adapt: predicted energy  -191.19752575919154     
 PAO| ======================= Iteration:        23 =============================

     Lanczos converged:  F threshold:   0.100E-02
     Est. extremal eigenvalues:    0.479E+01   0.135E+00
     Est. condition number :    0.354E+02

 Order=           3
     NS sqrt iter    1 1.00000000   0.123E+01       0.021     2679.976
     NS sqrt iter    2 1.00000000   0.626E+00       0.034     3376.221
     NS sqrt iter    3 1.00000000   0.200E+00       0.034     3375.337
     NS sqrt iter    4 1.00000000   0.251E-01       0.033     3386.944
     NS sqrt iter    5 1.00000000   0.107E-03       0.034     3375.818
     NS sqrt iter    6 1.00000000   0.218E-10       0.018     2183.771
     Symmetrizing Results
     Final NS sqrt iter    6 1.00000000   0.220E-11

     Est. extremal eigenvalues     -0.82955     2.58273  converged:  T
     TRS4 it   1 1.00000000   0.285E+02       0.007     2095.973   0.100E-11
     TRS4 it   2 1.00000000   0.234E+02       0.013     2196.205   0.100E-11
     TRS4 it   3 1.00000000   0.154E+02       0.013     2187.315   0.100E-11
     TRS4 it   4 1.00000000   0.886E+01       0.013     2164.639   0.100E-11
     TRS4 it   5 1.00000000   0.363E+01       0.013     2174.422   0.100E-11
     TRS4 it   6 1.00000000   0.896E+00       0.013     2164.921   0.100E-11
     TRS4 it   7 1.00000000   0.101E+00       0.013     2167.176   0.100E-11
     TRS4 it   8 1.00000000   0.185E-02       0.013     2185.952   0.100E-11
     TRS4 it   9 1.00000000   0.805E-06       0.013     2179.030   0.100E-11
     TRS4 it  10 1.00000000   0.334E-12       0.013     2162.905   0.100E-11
     Final TRS4 iteration   10 1.00000000   0.334E-12
     Chemical potential (mu):       0.05629
 
 PAO| energy:  -191.19753237784184      penalty:   4.8250398785255319E-004
 PAO|CG| trace_G_new    1.6353843389750180E-002
 PAO|CG| trace_G_prev    2.1168255638964809E-002
 PAO|CG| trace_G_mix    1.0937125347459215E-004
 PAO|CG| trace_D    2.8061234854279790E-002
 PAO|CG| trace_D_Gnew  -4.8244018436827390E-005
 PAO|CG| beta:   0.76739776830614614     
 PAO| norm of gradient:  0.12788214648554419     
 PAO| energy improvement:  -6.0005720387152905E-003
 PAO| step     23                 -191.197532378  0.250E-03  0.563E+00     1.974
 PAO|LS| adapt:  T F F
 PAO|LS| adapt: scan_steps:    0.0000000000000000        0.0000000000000000        0.0000000000000000     
 PAO|LS| adapt: energies:   -191.19753237784184        0.0000000000000000        0.0000000000000000     
 PAO| ======================= Iteration:        24 =============================

     Lanczos converged:  F threshold:   0.100E-02
     Est. extremal eigenvalues:    0.478E+01   0.135E+00
     Est. condition number :    0.354E+02

 Order=           3
     NS sqrt iter    1 1.00000000   0.123E+01       0.021     2725.441
     NS sqrt iter    2 1.00000000   0.625E+00       0.034     3367.430
     NS sqrt iter    3 1.00000000   0.200E+00       0.034     3358.011
     NS sqrt iter    4 1.00000000   0.251E-01       0.034     3338.568
     NS sqrt iter    5 1.00000000   0.107E-03       0.034     3346.935
     NS sqrt iter    6 1.00000000   0.219E-10       0.018     2187.654
     Symmetrizing Results
     Final NS sqrt iter    6 1.00000000   0.220E-11

     Est. extremal eigenvalues     -0.82956     2.58112  converged:  T
     TRS4 it   1 1.00000000   0.285E+02       0.007     2110.954   0.100E-11
     TRS4 it   2 1.00000000   0.234E+02       0.013     2183.609   0.100E-11
     TRS4 it   3 1.00000000   0.153E+02       0.013     2191.941   0.100E-11
     TRS4 it   4 1.00000000   0.883E+01       0.013     2180.359   0.100E-11
     TRS4 it   5 1.00000000   0.360E+01       0.013     2197.150   0.100E-11
     TRS4 it   6 1.00000000   0.887E+00       0.013     2178.937   0.100E-11
     TRS4 it   7 1.00000000   0.990E-01       0.013     2185.793   0.100E-11
     TRS4 it   8 1.00000000   0.179E-02       0.013     2177.946   0.100E-11
     TRS4 it   9 1.00000000   0.749E-06       0.013     2166.010   0.100E-11
     TRS4 it  10 1.00000000   0.322E-12       0.013     2128.075   0.100E-11
     Final TRS4 iteration   10 1.00000000   0.322E-12
     Chemical potential (mu):       0.05673
 
 PAO| energy:  -191.20110036598589      penalty:   4.4485203645389728E-004
 PAO|LS| adapt:  T T F
 PAO|LS| adapt: scan_steps:    0.0000000000000000       0.56285300879093436        0.0000000000000000     
 PAO|LS| adapt: energies:   -191.19753237784184       -191.20110036598589        0.0000000000000000     
 PAO| ======================= Iteration:        25 =============================

     Lanczos converged:  F threshold:   0.100E-02
     Est. extremal eigenvalues:    0.477E+01   0.135E+00
     Est. condition number :    0.353E+02

 Order=           3
     NS sqrt iter    1 1.00000000   0.123E+01       0.021     2664.005
     NS sqrt iter    2 1.00000000   0.624E+00       0.034     3370.042
     NS sqrt iter    3 1.00000000   0.200E+00       0.034     3358.256
     NS sqrt iter    4 1.00000000   0.251E-01       0.034     3377.174
     NS sqrt iter    5 1.00000000   0.108E-03       0.034     3374.624
     NS sqrt iter    6 1.00000000   0.221E-10       0.018     2188.839
     Symmetrizing Results
     Final NS sqrt iter    6 1.00000000   0.222E-11

     Est. extremal eigenvalues     -0.82957     2.57954  converged:  T
     TRS4 it   1 1.00000000   0.285E+02       0.007     2112.587   0.100E-11
     TRS4 it   2 1.00000000   0.234E+02       0.013     2168.710   0.100E-11
     TRS4 it   3 1.00000000   0.153E+02       0.013     2162.017   0.100E-11
     TRS4 it   4 1.00000000   0.881E+01       0.013     2148.556   0.100E-11
     TRS4 it   5 1.00000000   0.358E+01       0.013     2205.503   0.100E-11
     TRS4 it   6 1.00000000   0.878E+00       0.013     2185.776   0.100E-11
     TRS4 it   7 1.00000000   0.972E-01       0.013     2182.867   0.100E-11
     TRS4 it   8 1.00000000   0.172E-02       0.013     2172.764   0.100E-11
     TRS4 it   9 1.00000000   0.699E-06       0.013     2183.217   0.100E-11
     TRS4 it  10 1.00000000   0.243E-12       0.013     2196.856   0.100E-11
     Final TRS4 iteration   10 1.00000000   0.243E-12
     Chemical potential (mu):       0.05718
 
 PAO| energy:  -191.19314482058610      penalty:   4.1120650194627931E-004
 PAO|LS| adapt:  T T T
 PAO|LS| adapt: scan_steps:    0.0000000000000000       0.56285300879093436        1.1257060175818687     
 PAO|LS| adapt: energies:   -191.19753237784184       -191.20110036598589       -191.19314482058610     
 PAO|LS| adapt: suggested step_size:   0.45570055450084890     
 PAO|LS| adapt: predicted energy  -191.20130918494968     
 PAO| ======================= Iteration:        26 =============================

     Lanczos converged:  F threshold:   0.100E-02
     Est. extremal eigenvalues:    0.478E+01   0.135E+00
     Est. condition number :    0.354E+02

 Order=           3
     NS sqrt iter    1 1.00000000   0.123E+01       0.021     2683.505
     NS sqrt iter    2 1.00000000   0.625E+00       0.034     3358.942
     NS sqrt iter    3 1.00000000   0.200E+00       0.034     3364.776
     NS sqrt iter    4 1.00000000   0.251E-01       0.034     3349.580
     NS sqrt iter    5 1.00000000   0.107E-03       0.034     3368.442
     NS sqrt iter    6 1.00000000   0.219E-10       0.018     2199.817
     Symmetrizing Results
     Final NS sqrt iter    6 1.00000000   0.221E-11

     Est. extremal eigenvalues     -0.82956     2.58142  converged:  T
     TRS4 it   1 1.00000000   0.285E+02       0.007     2139.702   0.100E-11
     TRS4 it   2 1.00000000   0.234E+02       0.013     2190.153   0.100E-11
     TRS4 it   3 1.00000000   0.153E+02       0.013     2173.929   0.100E-11
     TRS4 it   4 1.00000000   0.884E+01       0.013     2190.168   0.100E-11
     TRS4 it   5 1.00000000   0.361E+01       0.013     2177.283   0.100E-11
     TRS4 it   6 1.00000000   0.889E+00       0.013     2187.083   0.100E-11
     TRS4 it   7 1.00000000   0.994E-01       0.013     2200.236   0.100E-11
     TRS4 it   8 1.00000000   0.180E-02       0.013     2189.358   0.100E-11
     TRS4 it   9 1.00000000   0.760E-06       0.013     2188.316   0.100E-11
     TRS4 it  10 1.00000000   0.339E-12       0.013     2188.052   0.100E-11
     Final TRS4 iteration   10 1.00000000   0.339E-12
     Chemical potential (mu):       0.05665
 
 PAO| energy:  -191.20129955514230      penalty:   4.5170534106588951E-004
 PAO|CG| trace_G_new    1.3646191142555102E-002
 PAO|CG| trace_G_prev    1.6353843389750180E-002
 PAO|CG| trace_G_mix    2.6904357201340854E-004
 PAO|CG| trace_D    3.2953130633302387E-002
 PAO|CG| trace_D_Gnew  -8.2939347785267924E-005
 PAO|CG| beta:   0.81798188057284804     
 PAO| norm of gradient:  0.11681691291313558     
 PAO| energy improvement:  -3.7671773004603892E-003
 PAO| step     26                 -191.201299555  0.228E-03  0.456E+00     1.519
 PAO|LS| adapt:  T F F
 PAO|LS| adapt: scan_steps:    0.0000000000000000        0.0000000000000000        0.0000000000000000     
 PAO|LS| adapt: energies:   -191.20129955514230        0.0000000000000000        0.0000000000000000     
 PAO| ======================= Iteration:        27 =============================

     Lanczos converged:  F threshold:   0.100E-02
     Est. extremal eigenvalues:    0.477E+01   0.135E+00
     Est. condition number :    0.354E+02

 Order=           3
     NS sqrt iter    1 1.00000000   0.123E+01       0.021     2681.340
     NS sqrt iter    2 1.00000000   0.624E+00       0.034     3350.091
     NS sqrt iter    3 1.00000000   0.200E+00       0.034     3338.275
     NS sqrt iter    4 1.00000000   0.250E-01       0.034     3347.796
     NS sqrt iter    5 1.00000000   0.107E-03       0.034     3370.444
     NS sqrt iter    6 1.00000000   0.222E-10       0.018     2170.734
     Symmetrizing Results
     Final NS sqrt iter    6 1.00000000   0.224E-11

     Est. extremal eigenvalues     -0.82957     2.58042  converged:  T
     TRS4 it   1 1.00000000   0.285E+02       0.007     2090.916   0.100E-11
     TRS4 it   2 1.00000000   0.234E+02       0.013     2149.690   0.100E-11
     TRS4 it   3 1.00000000   0.153E+02       0.013     2162.317   0.100E-11
     TRS4 it   4 1.00000000   0.881E+01       0.013     2184.727   0.100E-11
     TRS4 it   5 1.00000000   0.359E+01       0.013     2164.707   0.100E-11
     TRS4 it   6 1.00000000   0.880E+00       0.013     2161.995   0.100E-11
     TRS4 it   7 1.00000000   0.976E-01       0.013     2205.905   0.100E-11
     TRS4 it   8 1.00000000   0.174E-02       0.013     2163.540   0.100E-11
     TRS4 it   9 1.00000000   0.709E-06       0.013     2171.088   0.100E-11
     TRS4 it  10 1.00000000   0.254E-12       0.013     2157.913   0.100E-11
     Final TRS4 iteration   10 1.00000000   0.254E-12
     Chemical potential (mu):       0.05709
 
 PAO| energy:  -191.20386146613225      penalty:   4.1272733219371844E-004
 PAO|LS| adapt:  T T F
 PAO|LS| adapt: scan_steps:    0.0000000000000000       0.45570055450084890        0.0000000000000000     
 PAO|LS| adapt: energies:   -191.20129955514230       -191.20386146613225        0.0000000000000000     
 PAO| ======================= Iteration:        28 =============================

     Lanczos converged:  F threshold:   0.100E-02
     Est. extremal eigenvalues:    0.475E+01   0.134E+00
     Est. condition number :    0.354E+02

 Order=           3
     NS sqrt iter    1 1.00000000   0.122E+01       0.021     2676.827
     NS sqrt iter    2 1.00000000   0.622E+00       0.034     3371.798
     NS sqrt iter    3 1.00000000   0.199E+00       0.034     3346.859
     NS sqrt iter    4 1.00000000   0.249E-01       0.034     3364.727
     NS sqrt iter    5 1.00000000   0.107E-03       0.034     3343.139
     NS sqrt iter    6 1.00000000   0.226E-10       0.018     2189.148
     Symmetrizing Results
     Final NS sqrt iter    6 1.00000000   0.223E-11

     Est. extremal eigenvalues     -0.82958     2.57939  converged:  T
     TRS4 it   1 1.00000000   0.285E+02       0.007     2141.296   0.100E-11
     TRS4 it   2 1.00000000   0.234E+02       0.013     2199.483   0.100E-11
     TRS4 it   3 1.00000000   0.153E+02       0.013     2196.478   0.100E-11
     TRS4 it   4 1.00000000   0.879E+01       0.013     2167.239   0.100E-11
     TRS4 it   5 1.00000000   0.357E+01       0.013     2166.869   0.100E-11
     TRS4 it   6 1.00000000   0.871E+00       0.013     2163.002   0.100E-11
     TRS4 it   7 1.00000000   0.958E-01       0.013     2166.216   0.100E-11
     TRS4 it   8 1.00000000   0.167E-02       0.013     2167.691   0.100E-11
     TRS4 it   9 1.00000000   0.662E-06       0.013     2176.236   0.100E-11
     TRS4 it  10 1.00000000   0.218E-12       0.013     2182.570   0.100E-11
     Final TRS4 iteration   10 1.00000000   0.218E-12
     Chemical potential (mu):       0.05754
 
 PAO| energy:  -191.19897439322546      penalty:   3.7743262218650092E-004
 PAO|LS| adapt:  T T T
 PAO|LS| adapt: scan_steps:    0.0000000000000000       0.45570055450084890       0.91140110900169780     
 PAO|LS| adapt: energies:   -191.20129955514230       -191.20386146613225       -191.19897439322546     
 PAO|LS| adapt: suggested step_size:   0.38457826523989569     
 PAO|LS| adapt: predicted energy  -191.20395218954525     
 PAO| ======================= Iteration:        29 =============================

     Lanczos converged:  F threshold:   0.100E-02
     Est. extremal eigenvalues:    0.477E+01   0.135E+00
     Est. condition number :    0.354E+02

 Order=           3
     NS sqrt iter    1 1.00000000   0.123E+01       0.021     2680.275
     NS sqrt iter    2 1.00000000   0.624E+00       0.034     3367.716
     NS sqrt iter    3 1.00000000   0.200E+00       0.033     3380.513
     NS sqrt iter    4 1.00000000   0.250E-01       0.034     3347.668
     NS sqrt iter    5 1.00000000   0.107E-03       0.034     3353.709
     NS sqrt iter    6 1.00000000   0.221E-10       0.018     2160.791
     Symmetrizing Results
     Final NS sqrt iter    6 1.00000000   0.223E-11

     Est. extremal eigenvalues     -0.82957     2.58058  converged:  T
     TRS4 it   1 1.00000000   0.285E+02       0.007     2110.037   0.100E-11
     TRS4 it   2 1.00000000   0.234E+02       0.013     2172.851   0.100E-11
     TRS4 it   3 1.00000000   0.153E+02       0.013     2171.487   0.100E-11
     TRS4 it   4 1.00000000   0.882E+01       0.013     2182.128   0.100E-11
     TRS4 it   5 1.00000000   0.359E+01       0.013     2173.934   0.100E-11
     TRS4 it   6 1.00000000   0.881E+00       0.013     2163.241   0.100E-11
     TRS4 it   7 1.00000000   0.978E-01       0.013     2167.747   0.100E-11
     TRS4 it   8 1.00000000   0.175E-02       0.013     2175.785   0.100E-11
     TRS4 it   9 1.00000000   0.717E-06       0.013     2156.156   0.100E-11
[...]
     TRS4 it   5 1.00000000   0.411E+01       0.013     2175.178   0.100E-11
     TRS4 it   6 1.00000000   0.127E+01       0.013     2184.000   0.100E-11
     TRS4 it   7 1.00000000   0.216E+00       0.013     2178.425   0.100E-11
     TRS4 it   8 1.00000000   0.946E-02       0.013     2163.983   0.100E-11
     TRS4 it   9 1.00000000   0.236E-04       0.013     2153.699   0.100E-11
     TRS4 it  10 1.00000000   0.307E-09       0.013     2180.546   0.100E-11
     TRS4 it  11 1.00000000   0.320E-13       0.013     2175.032   0.100E-11
     Final TRS4 iteration   11 1.00000000   0.320E-13
     Chemical potential (mu):       0.02587
 
 PAO| energy:  -190.80430730751999      penalty:   1.3688930132647118E-008
 PAO| Writing restart file.
     Est. extremal eigenvalues     -0.82925     2.55987  converged:  T
     TRS4 it   1 1.00000000   0.287E+02       0.007     2099.818   0.100E-11
     TRS4 it   2 1.00000000   0.235E+02       0.013     2180.110   0.100E-11
     TRS4 it   3 1.00000000   0.155E+02       0.013     2163.780   0.100E-11
     TRS4 it   4 1.00000000   0.917E+01       0.013     2160.146   0.100E-11
     TRS4 it   5 1.00000000   0.411E+01       0.013     2169.396   0.100E-11
     TRS4 it   6 1.00000000   0.127E+01       0.013     2183.502   0.100E-11
     TRS4 it   7 1.00000000   0.216E+00       0.013     2162.316   0.100E-11
     TRS4 it   8 1.00000000   0.946E-02       0.013     2153.607   0.100E-11
     TRS4 it   9 1.00000000   0.236E-04       0.013     2173.150   0.100E-11
     TRS4 it  10 1.00000000   0.307E-09       0.013     2161.606   0.100E-11
     TRS4 it  11 1.00000000   0.320E-13       0.013     2173.359   0.100E-11
     Final TRS4 iteration   11 1.00000000   0.320E-13
     Chemical potential (mu):       0.02587

 SCF     1     -1103.049732767     -1103.049732767    1.773186

*********************************************************
 Using MIXING_FRACTION=0.450 to mix KS matrix:  iscf=  2
 KS_nw=0.450*KS + 0.550*KS_old
*********************************************************
     Est. extremal eigenvalues     -0.82925     2.55987  converged:  T
     TRS4 it   1 1.00000000   0.287E+02       0.007     2129.644   0.100E-11
     TRS4 it   2 1.00000000   0.235E+02       0.013     2164.206   0.100E-11
     TRS4 it   3 1.00000000   0.155E+02       0.013     2159.995   0.100E-11
     TRS4 it   4 1.00000000   0.917E+01       0.013     2172.939   0.100E-11
     TRS4 it   5 1.00000000   0.411E+01       0.013     2147.535   0.100E-11
     TRS4 it   6 1.00000000   0.127E+01       0.013     2195.546   0.100E-11
     TRS4 it   7 1.00000000   0.216E+00       0.013     2185.397   0.100E-11
     TRS4 it   8 1.00000000   0.946E-02       0.013     2180.337   0.100E-11
     TRS4 it   9 1.00000000   0.236E-04       0.013     2183.459   0.100E-11
     TRS4 it  10 1.00000000   0.307E-09       0.013     2181.924   0.100E-11
     TRS4 it  11 1.00000000   0.711E-14       0.013     2136.360   0.100E-11
     Final TRS4 iteration   11 1.00000000   0.711E-14
     Chemical potential (mu):       0.02587

 SCF     2     -1103.049732767        -0.000000000    1.782944


 SCF run converged in     2 steps.

 PAO| Storing density matrix for ASPC guess in slot:           1

 ENERGY| Total FORCE_EVAL ( QS ) energy [a.u.]:            -1103.049732766900888

 -------------------------------------------------------------------------------
 -                                                                             -
 -                                DBCSR STATISTICS                             -
 -                                                                             -
 -------------------------------------------------------------------------------
 COUNTER                                    TOTAL       BLAS       SMM       ACC
 flops     5 x     5 x     4             26419200       0.0%    100.0%      0.0%     
 flops    13 x     5 x     4             34078720       0.0%    100.0%      0.0%     
 flops     5 x    13 x     4             34078720       0.0%    100.0%      0.0%     
 flops    13 x    13 x     4             44994560       0.0%    100.0%      0.0%     
 flops     4 x     4 x     5           6267863040       0.0%    100.0%      0.0%     
 flops     5 x     4 x     5           7749632000       0.0%    100.0%      0.0%     
 flops     4 x     4 x    13           8148221952       0.0%    100.0%      0.0%     
 flops    13 x     4 x     5          10074521600       0.0%    100.0%      0.0%     
 flops     5 x     4 x    13          10074521600       0.0%    100.0%      0.0%     
 flops    13 x     4 x    13          13096878080       0.0%    100.0%      0.0%     
 flops     5 x     4 x     4         408123967360       0.0%    100.0%      0.0%     
 flops    13 x     4 x     4         565131427328       0.0%    100.0%      0.0%     
 flops     4 x     4 x     4       28571727268736       0.0%    100.0%      0.0%     
 flops inhomo. stacks                           0       0.0%      0.0%      0.0%
 flops total                        29.600534E+12       0.0%    100.0%      0.0%
 flops max/rank                    933.684939E+09       0.0%    100.0%      0.0%
 matmuls inhomo. stacks                         0       0.0%      0.0%      0.0%
 matmuls total                       227272124115       0.0%    100.0%      0.0%
 number of processed stacks             232112130       0.0%    100.0%      0.0%
 average stack size                                     0.0     979.1       0.0
 marketing flops                    50.718103E+12
 -------------------------------------------------------------------------------
 # multiplications                          47432
 max memory usage/rank             616.833024E+06
 # max total images/rank                        2
 # max 3D layers                                1
 # MPI messages exchanged                19731712
 MPI messages size (bytes):
  total size                         2.353489E+12
  min size                           0.000000E+00
  max size                         541.696000E+03
  average size                     119.274445E+03
 MPI breakdown and total messages size (bytes):
             size <=      128              861084                    13056
       128 < size <=     8192              296613               1087950080
      8192 < size <=    32768               41559               1008854528
     32768 < size <=   131072             8231290             604534706176
    131072 < size <=  4194304            10301166            1747255764992
   4194304 < size <= 16777216                   0                        0
  16777216 < size                               0                        0
 -------------------------------------------------------------------------------

 *** WARNING in dbcsr_mm.F:301 :: Using a non-square number of MPI ranks ***
 *** might lead to poor performance. Used ranks: 32 Suggested: 36 64     ***

 -------------------------------------------------------------------------------
 -                                                                             -
 -                      DBCSR MESSAGE PASSING PERFORMANCE                      -
 -                                                                             -
 -------------------------------------------------------------------------------
 ROUTINE             CALLS      AVE VOLUME [Bytes]
 MP_Bcast               14                     12.
 MP_Allreduce       284033                     37.
 MP_Alltoall        122999                  14778.
 MP_ISend          1584992                  55567.
 MP_IRecv          1551408                  56839.
 -------------------------------------------------------------------------------

 -------------------------------------------------------------------------------
 -                                                                             -
 -                                DBM STATISTICS                               -
 -                                                                             -
 -------------------------------------------------------------------------------
    M  x    N  x    K                                          COUNT     PERCENT
 -------------------------------------------------------------------------------

 -------------------------------------------------------------------------------
 -                                                                             -
 -                                GRID STATISTICS                              -
 -                                                                             -
 -------------------------------------------------------------------------------
 LP    KERNEL             BACKEND                              COUNT     PERCENT
 2     collocate ortho    CPU                               13117136      28.84%
 2     integrate ortho    CPU                               13117136      28.84%
 3     collocate ortho    CPU                                8425584      18.52%
 3     integrate ortho    CPU                                8425584      18.52%
 4     collocate ortho    CPU                                1198928       2.64%
 4     integrate ortho    CPU                                1198928       2.64%
 0     collocate general  CPU                                   6144       0.01%
 -------------------------------------------------------------------------------

 MEMORY| Estimated peak process memory [MiB]                                 589

 -------------------------------------------------------------------------------
 -                                                                             -
 -                         MESSAGE PASSING PERFORMANCE                         -
 -                                                                             -
 -------------------------------------------------------------------------------

 ROUTINE             CALLS      AVE VOLUME [Bytes]
 MP_Group                5
 MP_Bcast           392436                   1880.
 MP_Allreduce       975156                    514.
 MP_Sync                 5
 MP_Alltoall           419                1479516.
 MP_SendRecv          1488                  18832.
 MP_ISendRecv         1488                  18832.
 MP_Wait              4218
 MP_ISend             2470                 108139.
 MP_IRecv             2470                 108153.
 -------------------------------------------------------------------------------


 -------------------------------------------------------------------------------
 -                                                                             -
 -                           R E F E R E N C E S                               -
 -                                                                             -
 -------------------------------------------------------------------------------
 
 CP2K version 2024.3 (Development Version), the CP2K developers group (2024).
 CP2K is freely available from https://www.cp2k.org/ .
 
 T. D. Kuehne, M. Iannuzzi, M. Del Ben, V. V. Rybkin, P. Seewald, F. Stein, T. 
 Laino, R. Z. Khaliullin, O. Schuett, F. Schiffmann, D. Golze, J. Wilhelm, S. 
 Chulkov, M. H. Bani-Hashemian, V. Weber, U. Borstnik, M. Taillefumier, A. S. 
 Jakobovits, A. Lazzaro, H. Pabst, T. Mueller, R. Schade, M. Guidon, S. 
 Andermatt, N. Holmberg, G. K. Schenter, A. Hehn, A. Bussy, F. Belleflamme, G. 
 Tabacchi, A. Gloess, M. Lass, I. Bethune, C. J. Mundy, C. Plessl, M. Watkins, 
 J. VandeVondele, M. Krack, J. Hutter.
 J. Chem. Phys. 152, 194103 (2020).
 CP2K: An electronic structure and molecular dynamics software package - 
 Quickstep: Efficient and accurate electronic structure calculations.
 https://doi.org/10.1063/5.0007045

 O. Schuett, J. VandeVondele.
 J. Chem. Theory Comput. 14, 4168-4175 (2018).
 Machine Learning Adaptive Basis Sets for Efficient Large Scale Density 
 Functional Theory Simulation.
 https://doi.org/10.1021/acs.jctc.8b00378

 O. Schuett, P. Messmer, J. Hutter, J. VandeVondele.
 Electronic Structure Calculations on Graphics Processing Units, 173-190 (2016).
 GPU-Accelerated Sparse Matrix-Matrix Multiplication for Linear Scaling Density 
 Functional Theory.
 https://doi.org/10.1002/9781118670712.ch8

 A. Heinecke, G. Henry, M. Hutchinson, H. Pabst.
 Proceedings of Intl. Supercomputing Conference, 981-991 (2016).
 LIBXSMM: Accelerating Small Matrix Multiplications by Runtime Code Generation.
 https://doi.org/10.1109/SC.2016.83

 J. Hutter, M. Iannuzzi, F. Schiffmann, J. VandeVondele.
 WIREs Comput Mol Sci. 4, 15-25 (2014).
 CP2K: atomistic simulations of condensed matter systems.
 https://doi.org/10.1002/wcms.1159

 U. Borstnik, J. VandeVondele, V. Weber, J. Hutter.
 Parallel Comput. 40, 47-58 (2014).
 Sparse matrix multiplication: The distributed block-compressed sparse row 
 library.
 https://doi.org/10.1016/j.parco.2014.03.012

 A. Marek, V. Blum, R. Johanni, V. Havu, B. Lang, T. Auckenthaler, A. Heinecke, 
 H. Bungartz, H. Lederer.
 J. Phys. Condens. Matter 26, 213201 (2014).
 The ELPA library: scalable parallel eigenvalue solutions for electronic 
 structure theory and computational science.
 https://doi.org/10.1088/0953-8984/26/21/213201

 J. VandeVondele, U. Borstnik, J. Hutter.
 J. Chem. Theory Comput. 8, 3565-3573 (2012).
 Linear Scaling Self-Consistent Field Calculations with Millions of Atoms in the 
 Condensed Phase.
 https://doi.org/10.1021/ct200897x

 J. VandeVondele, J. Hutter.
 J. Chem. Phys. 127, 114105 (2007).
 Gaussian basis sets for accurate calculations on molecular systems in gas and 
 condensed phases.
 https://doi.org/10.1063/1.2770708

 J. VandeVondele, M. Krack, F. Mohamed, M. Parrinello, T. Chassaing, J. Hutter.
 Comput. Phys. Commun. 167, 103-128 (2005).
 QUICKSTEP: Fast and accurate density functional calculations using a mixed 
 Gaussian and plane waves approach.
 https://doi.org/10.1016/j.cpc.2004.12.014

 M. Krack.
 Theor. Chem. Acc. 114, 145-152 (2005).
 Pseudopotentials for H to Kr optimized for gradient-corrected 
 exchange-correlation functionals.
 https://doi.org/10.1007/s00214-005-0655-y

 M. Frigo, S. G. Johnson.
 Proc. IEEE 93, 216-231 (2005).
 The design and implementation of FFTW3.
 https://doi.org/10.1109/JPROC.2004.840301

 A. M. N. Niklasson, C. J. Tymczak, M. Challacombe.
 J. Chem. Phys. 118, 8611-8620 (2003).
 Trace resetting density matrix purification in O(N) self-consistent-field 
 theory.
 https://doi.org/10.1063/1.1559913

 C. Hartwigsen, S. Goedecker, J. Hutter.
 Phys. Rev. B 58, 3641-3662 (1998).
 Relativistic separable dual-space Gaussian pseudopotentials from H to Rn.
 https://doi.org/10.1103/PhysRevB.58.3641

 G. Lippert, J. Hutter, M. Parrinello.
 Mol. Phys. 92, 477-487 (1997).
 A hybrid Gaussian and plane wave density functional scheme.
 https://doi.org/10.1080/002689797170220

 S. Goedecker, M. Teter, J. Hutter.
 Phys. Rev. B 54, 1703-1710 (1996).
 Separable dual-space Gaussian pseudopotentials.
 https://doi.org/10.1103/PhysRevB.54.1703

 J. P. Perdew, K. Burke, M. Ernzerhof.
 Phys. Rev. Lett. 77, 3865-3868 (1996).
 Generalized gradient approximation made simple.
 https://doi.org/10.1103/PhysRevLett.77.3865


 -------------------------------------------------------------------------------
 -                                                                             -
 -                                T I M I N G                                  -
 -                                                                             -
 -------------------------------------------------------------------------------
 SUBROUTINE                       CALLS  ASD         SELF TIME        TOTAL TIME
                                MAXIMUM       AVERAGE  MAXIMUM  AVERAGE  MAXIMUM
 CP2K                                 1  1.0    0.013    0.015  436.935  436.936
 qs_energies                          1  2.0    0.000    0.000  436.783  436.784
 ls_scf                               1  3.0    0.000    0.000  435.764  435.765
 pao_update                           7  4.0    0.006    0.023  405.545  405.547
 pao_calc_energy                    786  5.0    0.003    0.016  363.357  363.359
 dbcsr_multiply_generic           47432  8.4    1.310    1.465  334.380  334.598
 multiply_cannon                  47432  9.4    2.457    2.837  271.154  275.799
 multiply_cannon_loop             47432 10.4    1.778    1.984  261.204  264.417
 ls_scf_init_matrix_S               793  7.0    0.008    0.009  207.827  207.881
 pao_rebuild_S                      786  6.0    0.002    0.003  205.977  206.032
 matrix_sqrt_Newton_Schulz          793  8.0    0.163    0.277  192.982  193.012
 multiply_cannon_multrec         379456 11.4  169.987  171.649  170.764  172.386
 pao_dm_trs4                        786  6.0    0.006    0.007  157.008  157.038
 density_matrix_trs4                801  7.0    0.195    0.336  151.591  151.650
 mp_waitall_1                   3037396 12.6   87.065   92.769   87.065   92.769
 multiply_cannon_metrocomm3      379456 11.4    0.664    0.704   70.287   74.320
 arnoldi_extremal                  1594  8.5    0.012    0.014   64.749   64.783
 arnoldi_normal_ev                 1594  9.5    0.037    0.065   64.733   64.767
 build_subspace                    6341 10.6    0.386    0.417   56.771   56.817
 dbcsr_matrix_vector_mult        193418 11.6    0.827    1.252   53.387   53.841
 make_m2s                         94864  9.4    0.516    0.666   48.410   49.246
 make_images                      94864 10.4    7.003    7.193   47.119   48.019
 dbcsr_matrix_vector_mult_local  193418 12.6   45.598   45.956   45.814   46.171
 pao_calc_AB                       1044  5.8    0.002    0.002   41.738   41.741
 pao_calc_AB_equi                  1044  6.8    0.039    0.095   41.736   41.739
 pao_calc_grad_lnv_wrt_AB           257  7.0    0.019    0.024   41.337   41.370
 ls_scf_main                          7  4.0    0.000    0.001   26.622   26.624
 ls_scf_dm_to_ks                     15  5.0    0.000    0.000   23.461   23.465
 make_images_data                 94864 11.4    0.826    0.993   20.575   22.594
 hybrid_alltoall_any              96445 12.4    0.868    1.746   16.189   19.428
 matrix_qs_to_ls                   1594  7.5    0.016    0.021   16.774   16.878
 mp_sum_l                        193415  9.5    7.651   14.869    7.651   14.869
 qs_ks_update_qs_env                 16  6.0    0.000    0.000   13.955   13.957
 rebuild_ks_matrix                   16  7.0    0.000    0.000   13.943   13.946
 qs_ks_build_kohn_sham_matrix        16  8.0    0.003    0.003   13.943   13.946
 calculate_norms                 707392 11.4   11.027   11.742   11.027   11.742
 qs_rho_update_rho_low               16  6.0    0.000    0.000   10.972   10.975
 calculate_rho_elec                  16  7.0    0.005    0.006   10.972   10.975
 make_images_pack                 94864 11.4   10.486   10.746   10.614   10.876
 sum_up_and_integrate                16  9.0    0.000    0.001   10.543   10.546
 integrate_v_rspace                  16 10.0    0.001    0.001   10.528   10.531
 dbcsr_multiply_generic_mpsum_f   34539  9.5    0.025    0.030    4.490   10.311
 grid_collocate_task_list            16  8.0    9.734    9.918    9.734    9.918
 grid_integrate_task_list            16 11.0    9.294    9.447    9.294    9.447
 -------------------------------------------------------------------------------

 The number of warnings for this run is : 1
 
 -------------------------------------------------------------------------------
  **** **** ******  **  PROGRAM ENDED AT                 2024-09-24 05:13:04.195
 ***** ** ***  *** **   PROGRAM RAN ON                                    moritz
 **    ****   ******    PROGRAM RAN BY                                       ole
 ***** **    ** ** **   PROGRAM PROCESS ID                                169144
  **** **  *******  **  PROGRAM STOPPED IN /home/ole/git/pao_ml_equivar/64H2O_MD
                                           /Frame5500
