 DBCSR| CPU Multiplication driver                                           XSMM (U)
 DBCSR| Multrec recursion limit                                              512 (U)
 DBCSR| Multiplication stack size                                           1000 (D)
 DBCSR| Maximum elements for images                                    UNLIMITED (U)
 DBCSR| Multiplicative factor virtual images                                   1 (U)
 DBCSR| Use multiplication densification                                       T (D)
 DBCSR| Multiplication size stacks                                             3 (U)
 DBCSR| Use memory pool for CPU allocation                                     F (U)
 DBCSR| Number of 3D layers                                               SINGLE (U)
 DBCSR| Use MPI memory allocation                                              F (U)
 DBCSR| Use RMA algorithm                                                      F (U)
 DBCSR| Use Communication thread                                               T (U)
 DBCSR| Communication thread load                                             87 (D)
 DBCSR| MPI: My process id                                                     0
 DBCSR| MPI: Number of processes                                              32
 DBCSR| OMP: Current number of threads                                         1
 DBCSR| OMP: Max number of threads                                             1
 DBCSR| Split modifier for TAS multiplication algorithm                  1.0E+00 (U)


  **** **** ******  **  PROGRAM STARTED AT               2024-09-23 17:49:05.390
 ***** ** ***  *** **   PROGRAM STARTED ON                                moritz
 **    ****   ******    PROGRAM STARTED BY                                   ole
 ***** **    ** ** **   PROGRAM PROCESS ID                                160104
  **** **  *******  **  PROGRAM STARTED IN /home/ole/git/pao_ml_equivar/64H2O_MD
                                           /Frame5500

 CP2K| version string:                 CP2K version 2024.3 (Development Version)
 CP2K| source code revision number:                                  git:3f890bb
 CP2K| cp2kflags: omp libint fftw3 libxc libgrpp pexsi elpa parallel scalapack c
 CP2K|            osma quip deepmd xsmm plumed2 spglib libdftd4 sirius libvori l
 CP2K|            libbqb libvdwxc hdf5
 CP2K| is freely available from                            https://www.cp2k.org/
 CP2K| Program compiled at                          Mo 23 Sep 2024 17:17:04 CEST
 CP2K| Program compiled on                                                moritz
 CP2K| Program compiled for                                                local
 CP2K| Data directory path                               /home/ole/git/cp2k/data
 CP2K| Input file name                                             64H2O_ref.inp

 GLOBAL| Force Environment number                                              1
 GLOBAL| Basis set file name                                        BASIS_MOLOPT
 GLOBAL| Potential file name                                      GTH_POTENTIALS
 GLOBAL| MM Potential file name                                     MM_POTENTIAL
 GLOBAL| Coordinate file name                                         coords.xyz
 GLOBAL| Method name                                                        CP2K
 GLOBAL| Project name                                                  64H2O_ref
 GLOBAL| Run type                                                         ENERGY
 GLOBAL| FFT library                                                       FFTW3
 GLOBAL| Diagonalization library                                            ELPA
 GLOBAL| DGEMM library                                                      BLAS
 GLOBAL| Minimum number of eigenvectors for ELPA usage                        16
 GLOBAL| Orthonormality check for eigenvectors                          DISABLED
 GLOBAL| Matrix multiplication library                                     COSMA
 GLOBAL| All-to-all communication in single precision                          F
 GLOBAL| FFTs using library dependent lengths                                  F
 GLOBAL| Grid backend                                                       AUTO
 GLOBAL| Global print level                                                  LOW
 GLOBAL| MPI I/O enabled                                                       T
 GLOBAL| Total number of message passing processes                            32
 GLOBAL| Number of threads for this process                                    1
 GLOBAL| This output is from process                                           0
 GLOBAL| Stack size for threads created by OpenMP (OMP_STACKSIZE)        default
 GLOBAL| CPU model name           AMD Ryzen Threadripper 3970X 32-Core Processor
 GLOBAL| CPUID                                                              1002

 MEMORY| system memory details [Kb]
 MEMORY|                        rank 0           min           max       average
 MEMORY| MemTotal            131752136     131752136     131752136     131752136
 MEMORY| MemFree             117833260     117833260     117833260     117833260
 MEMORY| Buffers                260772        260772        260772        260772
 MEMORY| Cached                7650160       7650160       7650160       7650160
 MEMORY| Slab                   726852        726852        726852        726852
 MEMORY| SReclaimable           286564        286564        286564        286564
 MEMORY| MemLikelyFree       126030756     126030756     126030756     126030756


 GENERATE|  Preliminary Number of Bonds generated:                             0
 GENERATE|  Achieved consistency in connectivity generation.

 *******************************************************************************
 *******************************************************************************
 **                                                                           **
 **     #####                         ##              ##                      **
 **    ##   ##            ##          ##              ##                      **
 **   ##     ##                       ##            ######                    **
 **   ##     ##  ##   ##  ##   #####  ##  ##   ####   ##    #####    #####    **
 **   ##     ##  ##   ##  ##  ##      ## ##   ##      ##   ##   ##  ##   ##   **
 **   ##  ## ##  ##   ##  ##  ##      ####     ###    ##   ######   ######    **
 **    ##  ###   ##   ##  ##  ##      ## ##      ##   ##   ##       ##        **
 **     #######   #####   ##   #####  ##  ##  ####    ##    #####   ##        **
 **           ##                                                    ##        **
 **                                                                           **
 **                                                ... make the atoms dance   **
 **                                                                           **
 **            Copyright (C) by CP2K developers group (2000-2024)             **
 **                      J. Chem. Phys. 152, 194103 (2020)                    **
 **                                                                           **
 *******************************************************************************


 TOTAL NUMBERS AND MAXIMUM NUMBERS

  Total number of            - Atomic kinds:                                   2
                             - Atoms:                                        192
                             - Shell sets:                                   192
                             - Shells:                                       704
                             - Primitive Cartesian functions:               1344
                             - Cartesian basis functions:                   1536
                             - Spherical basis functions:                   1472

  Maximum angular momentum of- Orbital basis functions:                        2
                             - Local part of the GTH pseudopotential:          2
                             - Non-local part of the GTH pseudopotential:      0

 ------------------------------ Linear scaling SCF -----------------------------
 eps_scf:                                                              0.100E-07
 eps_filter:                                                           0.100E-11
 mixing_fraction:                                                      0.450E+00
 max_scf:                                                                     25
 fixed chemical potential (mu)                                                 F
 has unit metric:                                                              F
 Computing inv(S):                                                             T
 Computing sqrt(S):                                                            T
 Computing S preconditioner                                                    F
 S sqrt method:                                                     NEWTONSCHULZ
 S sqrt order:                                                                 3
 Extrapolation order:                                                          1
 S preconditioner type                                                      NONE
 Polarized Atomic Orbitals (PAO)                                               F
 Purification method                                   Trace resetting 4th order
 Cluster type                                                             ATOMIC
 Computing Chebyshev                                                       FALSE
 Using PAO                                                                     F
 -------------------------------------------------------------------------------


     Lanczos converged:  F threshold:   0.100E-02
     Est. extremal eigenvalues:    0.874E+01   0.581E-02
     Est. condition number :    0.150E+04

 Order=           3
     NS sqrt iter    1 1.00000000   0.226E+01       0.065     6189.662
     NS sqrt iter    2 1.00000000   0.118E+01       0.098     8146.080
     NS sqrt iter    3 1.00000000   0.583E+00       0.099     8055.542
     NS sqrt iter    4 1.00000000   0.335E+00       0.099     8051.331
     NS sqrt iter    5 1.00000000   0.226E+00       0.099     8057.738
     NS sqrt iter    6 1.00000000   0.106E+00       0.099     8025.042
     NS sqrt iter    7 1.00000000   0.132E-01       0.098     8165.840
     NS sqrt iter    8 1.00000000   0.618E-04       0.098     8144.131
     NS sqrt iter    9 1.00000000   0.234E-10       0.062     5824.074
     Symmetrizing Results
     Final NS sqrt iter    9 1.00000000   0.787E-11



 Guess for atomic kind: O

 Electronic structure
    Total number of core electrons                                          2.00
    Total number of valence electrons                                       6.00
    Total number of electrons                                               8.00
    Multiplicity                                                   not specified
    S   [  2.00] 2.00
    P      4.00


 *******************************************************************************
                  Iteration          Convergence                     Energy [au]
 *******************************************************************************
                          1        0.708315                     -15.576645311500
                          2        0.608879                     -15.587933561584
                          3        0.102828E-01                 -15.656849565404
                          4        0.113889E-02                 -15.656866888140
                          5        0.434197E-03                 -15.656867072159
                          6        0.263771E-03                 -15.656867091904
                          7        0.478536E-06                 -15.656867103452

 Energy components [Hartree]           Total Energy ::          -15.656867103452
                                        Band Energy ::           -3.000198112285
                                     Kinetic Energy ::           11.759971203220
                                   Potential Energy ::          -27.416838306672
                                      Virial (-V/T) ::            2.331369510426
                                        Core Energy ::          -26.140716385623
                                          XC Energy ::           -3.154051012914
                                     Coulomb Energy ::           13.637900295084
                       Total Pseudopotential Energy ::          -37.935781716540
                       Local Pseudopotential Energy ::          -39.218907440693
                    Nonlocal Pseudopotential Energy ::            1.283125724153
                                        Confinement ::            0.350941276976

 Orbital energies  State     L     Occupation   Energy[a.u.]          Energy[eV]

                       1     0          2.000      -0.864471          -23.523463

                       1     1          4.000      -0.317814           -8.648154


 Total Electron Density at R=0:                                         0.000068

 Guess for atomic kind: H

 Electronic structure
    Total number of core electrons                                          0.00
    Total number of valence electrons                                       1.00
    Total number of electrons                                               1.00
    Multiplicity                                                   not specified
    S      1.00


 *******************************************************************************
                  Iteration          Convergence                     Energy [au]
 *******************************************************************************
                          1        0.437545E-02                  -0.424159432110
                          2        0.531356E-03                  -0.424178438213
                          3        0.259176E-06                  -0.424178722480

 Energy components [Hartree]           Total Energy ::           -0.424178722480
                                        Band Energy ::           -0.199015229016
                                     Kinetic Energy ::            0.464007633961
                                   Potential Energy ::           -0.888186356441
                                      Virial (-V/T) ::            1.914163240935
                                        Core Energy ::           -0.479160803564
                                          XC Energy ::           -0.244352904054
                                     Coulomb Energy ::            0.299334985138
                       Total Pseudopotential Energy ::           -0.962295316385
                       Local Pseudopotential Energy ::           -0.962295316385
                    Nonlocal Pseudopotential Energy ::            0.000000000000
                                        Confinement ::            0.191268788606

 Orbital energies  State     L     Occupation   Energy[a.u.]          Energy[eV]

                       1     0          1.000      -0.199015           -5.415480


 Total Electron Density at R=0:                                         0.242907
 Re-scaling the density matrix to get the right number of electrons
                  # Electrons              Trace(P)               Scaling factor
                          512               512.001                        1.000
 Energy with the initial guess:     -1095.732860493

     Est. extremal eigenvalues     -0.94433     5.17295  converged:  T
     TRS4 it   1 1.00000000   0.566E+02       0.019     5422.220   0.100E-11
     TRS4 it   2 1.00000000   0.536E+02       0.019     5354.566   0.100E-11
     TRS4 it   3 1.00000000   0.334E+02       0.036     5503.399   0.100E-11
     TRS4 it   4 1.00000000   0.177E+02       0.036     5536.650   0.100E-11
     TRS4 it   5 1.00000000   0.107E+02       0.036     5579.570   0.100E-11
     TRS4 it   6 1.00000000   0.487E+01       0.036     5586.297   0.100E-11
     TRS4 it   7 1.00000000   0.145E+01       0.036     5566.712   0.100E-11
     TRS4 it   8 1.00000000   0.218E+00       0.036     5553.521   0.100E-11
     TRS4 it   9 1.00000000   0.925E-02       0.036     5569.760   0.100E-11
     TRS4 it  10 1.00000000   0.253E-04       0.036     5593.938   0.100E-11
     TRS4 it  11 1.00000000   0.627E-10       0.036     5551.865   0.100E-11
     Final TRS4 iteration   11 1.00000000   0.627E-10
     Chemical potential (mu):      -0.10662

 SCF     1     -1097.929690124     -1097.929690124    2.059323

*********************************************************
 Using MIXING_FRACTION=0.450 to mix KS matrix:  iscf=  2
 KS_nw=0.450*KS + 0.550*KS_old
*********************************************************
     Est. extremal eigenvalues     -0.82791     5.26724  converged:  T
     TRS4 it   1 1.00000000   0.558E+02       0.019     5388.687   0.100E-11
     TRS4 it   2 1.00000000   0.538E+02       0.018     5524.964   0.100E-11
     TRS4 it   3 1.00000000   0.348E+02       0.036     5503.634   0.100E-11
     TRS4 it   4 1.00000000   0.183E+02       0.037     5448.788   0.100E-11
     TRS4 it   5 1.00000000   0.118E+02       0.036     5576.970   0.100E-11
     TRS4 it   6 1.00000000   0.616E+01       0.036     5593.793   0.100E-11
     TRS4 it   7 1.00000000   0.245E+01       0.036     5537.443   0.100E-11
     TRS4 it   8 1.00000000   0.665E+00       0.036     5604.327   0.100E-11
     TRS4 it   9 1.00000000   0.964E-01       0.036     5622.158   0.100E-11
     TRS4 it  10 1.00000000   0.485E-02       0.036     5608.684   0.100E-11
     TRS4 it  11 1.00000000   0.684E-05       0.036     5640.924   0.100E-11
     TRS4 it  12 1.00000000   0.129E-10       0.036     5600.589   0.100E-11
     Final TRS4 iteration   12 1.00000000   0.129E-10
     Chemical potential (mu):      -0.01763

 SCF     2     -1102.973769067        -5.044078943    2.094743

*********************************************************
 Using MIXING_FRACTION=0.450 to mix KS matrix:  iscf=  3
 KS_nw=0.450*KS + 0.550*KS_old
*********************************************************
     Est. extremal eigenvalues     -0.83772     5.25899  converged:  F
     TRS4 it   1 1.00000000   0.558E+02       0.019     5306.035   0.100E-11
     TRS4 it   2 1.00000000   0.538E+02       0.019     5241.050   0.100E-11
     TRS4 it   3 1.00000000   0.346E+02       0.036     5520.680   0.100E-11
     TRS4 it   4 1.00000000   0.182E+02       0.036     5539.421   0.100E-11
     TRS4 it   5 1.00000000   0.116E+02       0.036     5562.626   0.100E-11
     TRS4 it   6 1.00000000   0.596E+01       0.036     5539.379   0.100E-11
     TRS4 it   7 1.00000000   0.228E+01       0.036     5628.478   0.100E-11
     TRS4 it   8 1.00000000   0.581E+00       0.035     5679.676   0.100E-11
     TRS4 it   9 1.00000000   0.743E-01       0.036     5621.331   0.100E-11
     TRS4 it  10 1.00000000   0.276E-02       0.036     5562.892   0.100E-11
     TRS4 it  11 1.00000000   0.240E-05       0.036     5545.563   0.100E-11
     TRS4 it  12 1.00000000   0.240E-11       0.036     5600.409   0.100E-11
     Final TRS4 iteration   12 1.00000000   0.240E-11
     Chemical potential (mu):      -0.02600

 SCF     3     -1103.133365963        -0.159596896    2.095112

*********************************************************
 Using MIXING_FRACTION=0.450 to mix KS matrix:  iscf=  4
 KS_nw=0.450*KS + 0.550*KS_old
*********************************************************
     Est. extremal eigenvalues     -0.83262     5.26475  converged:  T
     TRS4 it   1 1.00000000   0.558E+02       0.018     5428.105   0.100E-11
     TRS4 it   2 1.00000000   0.538E+02       0.019     5147.335   0.100E-11
     TRS4 it   3 1.00000000   0.346E+02       0.037     5459.358   0.100E-11
     TRS4 it   4 1.00000000   0.183E+02       0.036     5598.949   0.100E-11
     TRS4 it   5 1.00000000   0.117E+02       0.036     5642.185   0.100E-11
     TRS4 it   6 1.00000000   0.603E+01       0.036     5536.318   0.100E-11
     TRS4 it   7 1.00000000   0.234E+01       0.036     5640.308   0.100E-11
     TRS4 it   8 1.00000000   0.614E+00       0.035     5667.684   0.100E-11
     TRS4 it   9 1.00000000   0.835E-01       0.036     5537.600   0.100E-11
     TRS4 it  10 1.00000000   0.362E-02       0.035     5680.066   0.100E-11
     TRS4 it  11 1.00000000   0.460E-05       0.036     5637.638   0.100E-11
     TRS4 it  12 1.00000000   0.876E-11       0.036     5587.456   0.100E-11
     Final TRS4 iteration   12 1.00000000   0.876E-11
     Chemical potential (mu):      -0.01996

 SCF     4     -1103.141299505        -0.007933542    2.083308

*********************************************************
 Using MIXING_FRACTION=0.450 to mix KS matrix:  iscf=  5
 KS_nw=0.450*KS + 0.550*KS_old
*********************************************************
     Est. extremal eigenvalues     -0.83136     5.26558  converged:  T
     TRS4 it   1 1.00000000   0.558E+02       0.019     5362.994   0.100E-11
     TRS4 it   2 1.00000000   0.538E+02       0.019     5397.725   0.100E-11
     TRS4 it   3 1.00000000   0.346E+02       0.037     5496.269   0.100E-11
     TRS4 it   4 1.00000000   0.183E+02       0.036     5630.043   0.100E-11
     TRS4 it   5 1.00000000   0.117E+02       0.036     5523.726   0.100E-11
     TRS4 it   6 1.00000000   0.603E+01       0.036     5551.914   0.100E-11
     TRS4 it   7 1.00000000   0.234E+01       0.036     5550.030   0.100E-11
     TRS4 it   8 1.00000000   0.613E+00       0.036     5540.480   0.100E-11
     TRS4 it   9 1.00000000   0.834E-01       0.036     5637.727   0.100E-11
     TRS4 it  10 1.00000000   0.363E-02       0.036     5513.819   0.100E-11
     TRS4 it  11 1.00000000   0.481E-05       0.036     5573.165   0.100E-11
     TRS4 it  12 1.00000000   0.104E-10       0.035     5682.035   0.100E-11
     Final TRS4 iteration   12 1.00000000   0.104E-10
     Chemical potential (mu):      -0.01903

 SCF     5     -1103.141915744        -0.000616239    2.085167

*********************************************************
 Using MIXING_FRACTION=0.450 to mix KS matrix:  iscf=  6
 KS_nw=0.450*KS + 0.550*KS_old
*********************************************************
     Est. extremal eigenvalues     -0.83062     5.26643  converged:  T
     TRS4 it   1 1.00000000   0.558E+02       0.019     5268.395   0.100E-11
     TRS4 it   2 1.00000000   0.538E+02       0.019     5357.520   0.100E-11
     TRS4 it   3 1.00000000   0.346E+02       0.037     5494.079   0.100E-11
     TRS4 it   4 1.00000000   0.183E+02       0.036     5505.585   0.100E-11
     TRS4 it   5 1.00000000   0.117E+02       0.036     5603.543   0.100E-11
     TRS4 it   6 1.00000000   0.604E+01       0.036     5540.276   0.100E-11
     TRS4 it   7 1.00000000   0.235E+01       0.036     5606.106   0.100E-11
     TRS4 it   8 1.00000000   0.617E+00       0.036     5581.366   0.100E-11
     TRS4 it   9 1.00000000   0.846E-01       0.036     5593.658   0.100E-11
     TRS4 it  10 1.00000000   0.375E-02       0.036     5569.696   0.100E-11
     TRS4 it  11 1.00000000   0.523E-05       0.036     5554.441   0.100E-11
     TRS4 it  12 1.00000000   0.122E-10       0.036     5584.382   0.100E-11
     Final TRS4 iteration   12 1.00000000   0.122E-10
     Chemical potential (mu):      -0.01808

 SCF     6     -1103.142006780        -0.000091036    2.085390

*********************************************************
 Using MIXING_FRACTION=0.450 to mix KS matrix:  iscf=  7
 KS_nw=0.450*KS + 0.550*KS_old
*********************************************************
     Est. extremal eigenvalues     -0.83016     5.26676  converged:  T
     TRS4 it   1 1.00000000   0.558E+02       0.019     5288.210   0.100E-11
     TRS4 it   2 1.00000000   0.538E+02       0.019     5357.392   0.100E-11
     TRS4 it   3 1.00000000   0.346E+02       0.036     5628.639   0.100E-11
     TRS4 it   4 1.00000000   0.183E+02       0.036     5549.882   0.100E-11
     TRS4 it   5 1.00000000   0.117E+02       0.036     5580.860   0.100E-11
     TRS4 it   6 1.00000000   0.604E+01       0.036     5498.325   0.100E-11
     TRS4 it   7 1.00000000   0.235E+01       0.036     5607.783   0.100E-11
     TRS4 it   8 1.00000000   0.618E+00       0.036     5597.482   0.100E-11
     TRS4 it   9 1.00000000   0.848E-01       0.036     5607.466   0.100E-11
     TRS4 it  10 1.00000000   0.378E-02       0.037     5491.215   0.100E-11
     TRS4 it  11 1.00000000   0.536E-05       0.036     5601.893   0.100E-11
     TRS4 it  12 1.00000000   0.130E-10       0.036     5529.980   0.100E-11
     Final TRS4 iteration   12 1.00000000   0.130E-10
     Chemical potential (mu):      -0.01770

 SCF     7     -1103.142026175        -0.000019395    2.084184

*********************************************************
 Using MIXING_FRACTION=0.450 to mix KS matrix:  iscf=  8
 KS_nw=0.450*KS + 0.550*KS_old
*********************************************************
     Est. extremal eigenvalues     -0.82996     5.26696  converged:  T
     TRS4 it   1 1.00000000   0.558E+02       0.019     5326.441   0.100E-11
     TRS4 it   2 1.00000000   0.538E+02       0.019     5363.665   0.100E-11
     TRS4 it   3 1.00000000   0.346E+02       0.036     5599.244   0.100E-11
     TRS4 it   4 1.00000000   0.183E+02       0.035     5654.277   0.100E-11
     TRS4 it   5 1.00000000   0.117E+02       0.036     5585.434   0.100E-11
     TRS4 it   6 1.00000000   0.604E+01       0.035     5651.671   0.100E-11
     TRS4 it   7 1.00000000   0.235E+01       0.036     5559.400   0.100E-11
     TRS4 it   8 1.00000000   0.618E+00       0.036     5611.211   0.100E-11
     TRS4 it   9 1.00000000   0.850E-01       0.036     5638.425   0.100E-11
     TRS4 it  10 1.00000000   0.380E-02       0.035     5658.136   0.100E-11
     TRS4 it  11 1.00000000   0.545E-05       0.036     5591.494   0.100E-11
     TRS4 it  12 1.00000000   0.134E-10       0.036     5623.078   0.100E-11
     Final TRS4 iteration   12 1.00000000   0.134E-10
     Chemical potential (mu):      -0.01747

 SCF     8     -1103.142030890        -0.000004715    2.083283


 SCF run converged in     8 steps.

 Writing restart DM 64H2O_ref_LS_DM_SPIN_1_RESTART.dm with checksum:       0.61788133E+04

 ENERGY| Total FORCE_EVAL ( QS ) energy [a.u.]:            -1103.142030890059914

 -------------------------------------------------------------------------------
 -                                                                             -
 -                                DBCSR STATISTICS                             -
 -                                                                             -
 -------------------------------------------------------------------------------
 COUNTER                                    TOTAL       BLAS       SMM       ACC
 flops     5 x     5 x     5          79298669500       0.0%    100.0%      0.0%     
 flops     5 x    13 x     5         102691422600       0.0%    100.0%      0.0%     
 flops    13 x     5 x     5         102705908500       0.0%    100.0%      0.0%     
 flops     5 x     5 x    13         103216580350       0.0%    100.0%      0.0%     
 flops     5 x    13 x    13         133704454780       0.0%    100.0%      0.0%     
 flops    13 x     5 x    13         133715086570       0.0%    100.0%      0.0%     
 flops    13 x    13 x     5         134849825240       0.0%    100.0%      0.0%     
 flops    13 x    13 x    13         175609048524       0.0%    100.0%      0.0%     
 flops inhomo. stacks                           0       0.0%      0.0%      0.0%
 flops total                       965.790996E+09       0.0%    100.0%      0.0%
 flops max/rank                     30.998950E+09       0.0%    100.0%      0.0%
 matmuls inhomo. stacks                         0       0.0%      0.0%      0.0%
 matmuls total                         1069980168       0.0%    100.0%      0.0%
 number of processed stacks               1515014       0.0%    100.0%      0.0%
 average stack size                                     0.0     706.3       0.0
 marketing flops                     1.569237E+12
 -------------------------------------------------------------------------------
 # multiplications                            246
 max memory usage/rank             621.805568E+06
 # max total images/rank                        2
 # max 3D layers                                1
 # MPI messages exchanged                  102336
 MPI messages size (bytes):
  total size                        42.340041E+09
  min size                           0.000000E+00
  max size                         541.696000E+03
  average size                     413.735531E+03
 MPI breakdown and total messages size (bytes):
             size <=      128                 312                        0
       128 < size <=     8192                  42                   279312
      8192 < size <=    32768                  62                   841968
     32768 < size <=   131072                   0                        0
    131072 < size <=  4194304              101920              42338918240
   4194304 < size <= 16777216                   0                        0
  16777216 < size                               0                        0
 -------------------------------------------------------------------------------

 *** WARNING in dbcsr_mm.F:301 :: Using a non-square number of MPI ranks ***
 *** might lead to poor performance. Used ranks: 32 Suggested: 36 64     ***

 -------------------------------------------------------------------------------
 -                                                                             -
 -                      DBCSR MESSAGE PASSING PERFORMANCE                      -
 -                                                                             -
 -------------------------------------------------------------------------------
 ROUTINE             CALLS      AVE VOLUME [Bytes]
 MP_Bcast                9                     12.
 MP_Allreduce         1762                     34.
 MP_Alltoall           546                  34827.
 MP_ISend             8604                 170627.
 MP_IRecv             8238                 178849.
 -------------------------------------------------------------------------------

 -------------------------------------------------------------------------------
 -                                                                             -
 -                                DBM STATISTICS                               -
 -                                                                             -
 -------------------------------------------------------------------------------
    M  x    N  x    K                                          COUNT     PERCENT
 -------------------------------------------------------------------------------

 -------------------------------------------------------------------------------
 -                                                                             -
 -                                GRID STATISTICS                              -
 -                                                                             -
 -------------------------------------------------------------------------------
 LP    KERNEL             BACKEND                              COUNT     PERCENT
 2     collocate ortho    CPU                                7378389      28.83%
 2     integrate ortho    CPU                                7378389      28.83%
 3     collocate ortho    CPU                                4739391      18.52%
 3     integrate ortho    CPU                                4739391      18.52%
 4     collocate ortho    CPU                                 674397       2.64%
 4     integrate ortho    CPU                                 674397       2.64%
 0     collocate general  CPU                                   6144       0.02%
 -------------------------------------------------------------------------------

 MEMORY| Estimated peak process memory [MiB]                                 594

 -------------------------------------------------------------------------------
 -                                                                             -
 -                         MESSAGE PASSING PERFORMANCE                         -
 -                                                                             -
 -------------------------------------------------------------------------------

 ROUTINE             CALLS      AVE VOLUME [Bytes]
 MP_Group                5
 MP_Bcast             2540                 153592.
 MP_Allreduce         6784                    940.
 MP_Sync                 5
 MP_Alltoall           244                1449031.
 MP_SendRecv           837                  18832.
 MP_ISendRecv          837                  18832.
 MP_Wait              2391
 MP_ISend             1406                 108579.
 MP_IRecv             1406                 108603.
 -------------------------------------------------------------------------------


 -------------------------------------------------------------------------------
 -                                                                             -
 -                           R E F E R E N C E S                               -
 -                                                                             -
 -------------------------------------------------------------------------------
 
 CP2K version 2024.3 (Development Version), the CP2K developers group (2024).
 CP2K is freely available from https://www.cp2k.org/ .
 
 T. D. Kuehne, M. Iannuzzi, M. Del Ben, V. V. Rybkin, P. Seewald, F. Stein, T. 
 Laino, R. Z. Khaliullin, O. Schuett, F. Schiffmann, D. Golze, J. Wilhelm, S. 
 Chulkov, M. H. Bani-Hashemian, V. Weber, U. Borstnik, M. Taillefumier, A. S. 
 Jakobovits, A. Lazzaro, H. Pabst, T. Mueller, R. Schade, M. Guidon, S. 
 Andermatt, N. Holmberg, G. K. Schenter, A. Hehn, A. Bussy, F. Belleflamme, G. 
 Tabacchi, A. Gloess, M. Lass, I. Bethune, C. J. Mundy, C. Plessl, M. Watkins, 
 J. VandeVondele, M. Krack, J. Hutter.
 J. Chem. Phys. 152, 194103 (2020).
 CP2K: An electronic structure and molecular dynamics software package - 
 Quickstep: Efficient and accurate electronic structure calculations.
 https://doi.org/10.1063/5.0007045

 O. Schuett, P. Messmer, J. Hutter, J. VandeVondele.
 Electronic Structure Calculations on Graphics Processing Units, 173-190 (2016).
 GPU-Accelerated Sparse Matrix-Matrix Multiplication for Linear Scaling Density 
 Functional Theory.
 https://doi.org/10.1002/9781118670712.ch8

 A. Heinecke, G. Henry, M. Hutchinson, H. Pabst.
 Proceedings of Intl. Supercomputing Conference, 981-991 (2016).
 LIBXSMM: Accelerating Small Matrix Multiplications by Runtime Code Generation.
 https://doi.org/10.1109/SC.2016.83

 J. Hutter, M. Iannuzzi, F. Schiffmann, J. VandeVondele.
 WIREs Comput Mol Sci. 4, 15-25 (2014).
 CP2K: atomistic simulations of condensed matter systems.
 https://doi.org/10.1002/wcms.1159

 U. Borstnik, J. VandeVondele, V. Weber, J. Hutter.
 Parallel Comput. 40, 47-58 (2014).
 Sparse matrix multiplication: The distributed block-compressed sparse row 
 library.
 https://doi.org/10.1016/j.parco.2014.03.012

 A. Marek, V. Blum, R. Johanni, V. Havu, B. Lang, T. Auckenthaler, A. Heinecke, 
 H. Bungartz, H. Lederer.
 J. Phys. Condens. Matter 26, 213201 (2014).
 The ELPA library: scalable parallel eigenvalue solutions for electronic 
 structure theory and computational science.
 https://doi.org/10.1088/0953-8984/26/21/213201

 J. VandeVondele, U. Borstnik, J. Hutter.
 J. Chem. Theory Comput. 8, 3565-3573 (2012).
 Linear Scaling Self-Consistent Field Calculations with Millions of Atoms in the 
 Condensed Phase.
 https://doi.org/10.1021/ct200897x

 J. VandeVondele, J. Hutter.
 J. Chem. Phys. 127, 114105 (2007).
 Gaussian basis sets for accurate calculations on molecular systems in gas and 
 condensed phases.
 https://doi.org/10.1063/1.2770708

 J. VandeVondele, M. Krack, F. Mohamed, M. Parrinello, T. Chassaing, J. Hutter.
 Comput. Phys. Commun. 167, 103-128 (2005).
 QUICKSTEP: Fast and accurate density functional calculations using a mixed 
 Gaussian and plane waves approach.
 https://doi.org/10.1016/j.cpc.2004.12.014

 M. Krack.
 Theor. Chem. Acc. 114, 145-152 (2005).
 Pseudopotentials for H to Kr optimized for gradient-corrected 
 exchange-correlation functionals.
 https://doi.org/10.1007/s00214-005-0655-y

 M. Frigo, S. G. Johnson.
 Proc. IEEE 93, 216-231 (2005).
 The design and implementation of FFTW3.
 https://doi.org/10.1109/JPROC.2004.840301

 A. M. N. Niklasson, C. J. Tymczak, M. Challacombe.
 J. Chem. Phys. 118, 8611-8620 (2003).
 Trace resetting density matrix purification in O(N) self-consistent-field 
 theory.
 https://doi.org/10.1063/1.1559913

 C. Hartwigsen, S. Goedecker, J. Hutter.
 Phys. Rev. B 58, 3641-3662 (1998).
 Relativistic separable dual-space Gaussian pseudopotentials from H to Rn.
 https://doi.org/10.1103/PhysRevB.58.3641

 G. Lippert, J. Hutter, M. Parrinello.
 Mol. Phys. 92, 477-487 (1997).
 A hybrid Gaussian and plane wave density functional scheme.
 https://doi.org/10.1080/002689797170220

 S. Goedecker, M. Teter, J. Hutter.
 Phys. Rev. B 54, 1703-1710 (1996).
 Separable dual-space Gaussian pseudopotentials.
 https://doi.org/10.1103/PhysRevB.54.1703

 J. P. Perdew, K. Burke, M. Ernzerhof.
 Phys. Rev. Lett. 77, 3865-3868 (1996).
 Generalized gradient approximation made simple.
 https://doi.org/10.1103/PhysRevLett.77.3865


 -------------------------------------------------------------------------------
 -                                                                             -
 -                                T I M I N G                                  -
 -                                                                             -
 -------------------------------------------------------------------------------
 SUBROUTINE                       CALLS  ASD         SELF TIME        TOTAL TIME
                                MAXIMUM       AVERAGE  MAXIMUM  AVERAGE  MAXIMUM
 CP2K                                 1  1.0    0.012    0.014   20.349   20.350
 qs_energies                          1  2.0    0.000    0.000   20.197   20.198
 ls_scf                               1  3.0    0.000    0.000   19.210   19.211
 ls_scf_main                          1  4.0    0.000    0.000   16.671   16.671
 ls_scf_dm_to_ks                      8  5.0    0.000    0.000   12.391   12.395
 qs_ks_update_qs_env                  9  6.1    0.000    0.000    7.809    7.809
 rebuild_ks_matrix                    9  7.1    0.000    0.000    7.802    7.803
 qs_ks_build_kohn_sham_matrix         9  8.1    0.002    0.002    7.802    7.803
 qs_rho_update_rho_low                9  6.1    0.000    0.000    6.136    6.140
 calculate_rho_elec                   9  7.1    0.003    0.003    6.136    6.140
 sum_up_and_integrate                 9  9.1    0.000    0.000    5.896    5.897
 integrate_v_rspace                   9 10.1    0.000    0.000    5.888    5.890
 grid_collocate_task_list             9  8.1    5.443    5.544    5.443    5.544
 grid_integrate_task_list             9 11.1    5.210    5.282    5.210    5.282
 dbcsr_multiply_generic             246  6.2    0.012    0.013    4.630    4.636
 density_matrix_trs4                  8  5.0    0.004    0.006    4.274    4.278
 multiply_cannon                    246  7.2    0.018    0.023    3.768    3.793
 multiply_cannon_loop               246  8.2    0.019    0.022    3.692    3.727
 ls_scf_init_scf                      1  4.0    0.000    0.000    2.477    2.477
 multiply_cannon_multrec           1968  9.2    2.098    2.153    2.105    2.160
 mp_waitall_1                     16729 10.5    1.727    1.831    1.727    1.831
 fft_wrap_pw1pw2                    172 11.3    0.003    0.004    1.768    1.797
 fft_wrap_pw1pw2_200                100 12.8    0.103    0.110    1.695    1.720
 qs_vxc_create                        9  9.1    0.000    0.000    1.557    1.586
 xc_vxc_pw_create                     9 10.1    0.013    0.019    1.556    1.586
 ls_scf_initial_guess                 1  5.0    0.000    0.000    1.557    1.558
 ls_scf_qs_atomic_guess               1  6.0    0.000    0.000    1.557    1.558
 multiply_cannon_metrocomm3        1968  9.2    0.005    0.006    1.348    1.448
 fft3d_ps                           172 13.3    0.719    0.796    1.330    1.376
 xc_pw_derive                        54 12.1    0.001    0.001    1.106    1.194
 qs_energies_init_hamiltonians        1  3.0    0.000    0.000    0.986    0.986
 ls_scf_init_matrix_S                 1  5.0    0.000    0.000    0.920    0.920
 matrix_sqrt_Newton_Schulz            1  6.0    0.001    0.001    0.896    0.896
 build_core_hamiltonian_matrix        1  4.0    0.000    0.000    0.693    0.804
 xc_rho_set_and_dset_create           9 11.1    0.019    0.024    0.781    0.801
 xc_pw_divergence                     9 11.1    0.000    0.000    0.743    0.789
 density_rs2pw                        9  8.1    0.000    0.000    0.658    0.740
 make_m2s                           492  7.2    0.005    0.007    0.680    0.692
 make_images                        492  8.2    0.039    0.041    0.670    0.682
 mp_alltoall_z22v                   172 15.3    0.436    0.633    0.436    0.633
 potential_pw2rs                      9 11.1    0.001    0.001    0.599    0.601
 mp_waitany                        1406 12.5    0.465    0.568    0.465    0.568
 build_core_ppl                       1  5.0    0.474    0.568    0.474    0.568
 transfer_rs2pw                      46  9.0    0.001    0.001    0.402    0.493
 arnoldi_extremal                     9  6.1    0.000    0.000    0.452    0.454
 arnoldi_normal_ev                    9  7.1    0.000    0.001    0.451    0.453
 yz_to_x                             64 14.2    0.059    0.084    0.284    0.412
 -------------------------------------------------------------------------------

 The number of warnings for this run is : 1
 
 -------------------------------------------------------------------------------
  **** **** ******  **  PROGRAM ENDED AT                 2024-09-23 17:49:26.301
 ***** ** ***  *** **   PROGRAM RAN ON                                    moritz
 **    ****   ******    PROGRAM RAN BY                                       ole
 ***** **    ** ** **   PROGRAM PROCESS ID                                160104
  **** **  *******  **  PROGRAM STOPPED IN /home/ole/git/pao_ml_equivar/64H2O_MD
                                           /Frame5500
