     192
 i =     5500, time =     8250.000, E =     -1100.0700618602
  O         6.0432612152       -3.0998660104        3.1616268687
  H         6.0067343865       -4.0116313161        2.9824803451
  H         6.4536980768       -2.9977784894        4.0213198842
  O        -5.6287101599        1.9039668432        5.3759674348
  H        -4.9293809177        1.5073773654        4.8363349478
  H        -5.2104509533        1.9821781578        6.2816514048
  O         6.6500688667        5.0222574386        5.7398456425
  H         5.7884533317        5.0228680092        5.3408444432
  H         6.6765676660        4.1526385522        6.1644160895
  O        -2.3714806189        1.1669436963       -4.0655232662
  H        -1.8818980468        1.3234190940       -3.1694081941
  H        -2.1059928230        0.2582671037       -4.3573665931
  O        -3.7898698727        4.4999417316        3.7684458581
  H        -4.5849277318        4.5673583538        4.3525559728
  H        -3.7884438056        5.2637301646        3.1235516403
  O         8.5630567461       -0.3263439882        3.7558684939
  H         8.2765556787       -0.8813462117        4.5036061327
  H         7.8653106965       -0.4124284005        3.0815725908
  O         4.2441221976       -5.5406210164        0.3771235887
  H         4.0298192157       -4.5982421354        0.3259044643
  H         3.5147024759       -6.1426570297        0.3027211517
  O        -1.7721750402       -1.9866797697       -1.6309557567
  H        -2.3089534331       -2.7864641286       -1.5878338763
  H        -2.0290945933       -1.4369662703       -0.8786178465
  O         3.3437277124       -2.8079507472        3.7641550579
  H         4.2123228152       -2.5667428396        3.3551177773
  H         2.6802401232       -2.7029936818        3.0664418599
  O         3.9610608863        3.2910080107        6.5354988973
  H         4.1954877914        2.3850622451        6.7290510997
  H         3.6184811071        3.7368400630        7.3549961787
  O         4.7920334106       -3.1846468329       -5.8639000778
  H         4.4856357973       -2.3992865392       -5.4916789830
  H         4.2776667153       -3.4116548557       -6.6259669937
  O         1.7275438483       -2.4074750894        1.5581209700
  H         0.9542243291       -2.8620787107        1.1811380423
  H         2.5547546666       -2.7339290576        1.0861973503
  O         2.0235965115       -4.7501974052       -4.3127413191
  H         2.4323939260       -5.5374042482       -3.9315812147
  H         2.0421046262       -4.9060275894       -5.2619000088
  O         4.6681022301        4.2774827845       -1.8365731718
  H         4.8783886591        3.3135382356       -1.9409761060
  H         5.4993194214        4.7807460360       -1.8156675334
  O         2.5593997202       -0.3492249493        4.9945804043
  H         2.9178936824       -1.1338379572        4.4637487870
  H         2.2513702345        0.3138263308        4.3726737113
  O        -0.3784248947        2.4540830575        6.7437494048
  H         0.0068146448        1.9161367406        6.0866839398
  H        -1.0678550493        1.9135707023        7.1596969365
  O        -1.3519569819       -3.9009844216        2.5131737103
  H        -0.6958590875       -3.8703446068        1.8323559777
  H        -1.0316160007       -4.3881264121        3.3289116010
  O        -2.0083860542        2.8002943183        2.9671294108
  H        -1.6175999572        2.0419117296        3.4778137456
  H        -2.5452163757        3.2741932660        3.5910317211
  O         1.4063357792       -1.3160672414       -5.1676814408
  H         1.5036921311       -1.0177969295       -6.1035741241
  H         1.7070474889       -0.6222588778       -4.5617207166
  O        -1.2706755487       -0.1263075087        0.2040935751
  H        -1.6165247170       -0.0786256605        1.1682226712
  H        -0.2947314154       -0.2456693950        0.3899647444
  O        -3.6255425414        3.8657925526       -2.2434848970
  H        -4.3043866236        4.4482186170       -1.8919857319
  H        -3.5008980809        3.0711161141       -1.6866833406
  O         5.7934676062        6.3600345143        2.4755381710
  H         5.0932746409        6.5083253508        1.7071759477
  H         5.2173405665        6.1497419067        3.2127765455
  O         4.6444968525       -0.5346164512       -3.6917864568
  H         4.6550716618       -0.0592368045       -4.5813863738
  H         5.5809788163       -0.7634655417       -3.5278206929
  O        -5.5128392671        5.5219751420       -2.3162793524
  H        -5.2745695736        6.1783098741       -1.6501528131
  H        -5.4682937486        6.1077694009       -3.1083098399
  O         8.0884573356        0.4828639990       -0.5046023500
  H         8.5244078300        1.2963356175       -0.1539083126
  H         7.4428835403        0.8889597271       -1.0799390468
  O         1.3395075131        0.0725521686        0.7191571195
  H         2.0938097322        0.4243794704        0.2715177757
  H         1.6172634944       -0.8122436943        0.9517146352
  O        -5.2726096091       -5.0548302133       -0.0435760868
  H        -4.4917229410       -5.2042248224        0.5171802420
  H        -5.9231273648       -5.3779865549        0.6003332764
  O        -3.4529270439        2.9298053020        0.4477970509
  H        -4.2511461459        3.3360896335        0.7916721866
  H        -2.9167739366        2.8243696287        1.2621318439
  O         4.5881819505        0.6161439392       -6.0348401380
  H         5.3345788443        1.0235971140       -6.5196168622
  H         4.0483722664        0.1815077309       -6.7279591414
  O         3.6186684104       -3.0374927359       -0.1315543832
  H         4.4894879330       -2.7222756186       -0.4098848744
  H         3.1244756386       -3.0798472947       -0.9724798719
  O         3.1660171031        1.4659020136       -0.3772758164
  H         4.0649977626        1.4715716401        0.1182356772
  H         2.8057820170        2.3299644348       -0.1686099038
  O        -1.6469484014       -1.1257655677        2.6509044654
  H        -1.6039201060       -2.1250411271        2.7073321102
  H        -2.4263703944       -0.8158777116        3.1595500818
  O         3.5131501406       -8.8547584972        2.3756045402
  H         3.4133742654       -8.2657502580        1.6066420980
  H         3.7112185206       -8.3048953845        3.1408661797
  O         2.0365728833       -2.9846285757       -2.4193749579
  H         1.9054342095       -3.3164816155       -3.3536383530
  H         1.6736593976       -2.1014832321       -2.3423229319
  O        -5.5085214840        4.3703287165        0.8256603416
  H        -6.1957317222        3.7238957064        0.8321550723
  H        -5.6250002293        5.0685519396        1.5022419442
  O         2.3425430437       -4.9506295019       -7.0512686364
  H         1.4157431919       -4.9486117392       -7.3647619856
  H         2.7097969065       -4.2404334295       -7.6206186402
  O         0.8189399367        3.2957073940       -3.0797922219
  H         0.8204528646        2.9828146708       -4.0095671938
  H         0.1462748905        4.0258675282       -3.2346049250
  O        -3.3045544527       -5.7450468867        1.7609049158
  H        -2.7216464356       -4.9910709610        2.0069778643
  H        -2.8693195673       -6.2179403477        1.0439773470
  O         4.1016614505        5.3190564020        4.6523779242
  H         3.4923494224        6.0646017003        4.7511128109
  H         3.7547687188        4.5568755853        5.1679493203
  O        -4.6702934722        2.2387903198       -4.4772775722
  H        -3.8186254532        1.7663579635       -4.2979291532
  H        -4.6115385431        3.0657912297       -3.9605787762
  O         1.6968258293        1.5818731502        2.9892498901
  H         2.1897000781        2.4277240028        2.9239957262
  H         1.6127193576        1.2774091535        2.0545086407
  O        -7.0158002794        1.7382914400        1.2747888917
  H        -7.3812504823        2.1425344617        2.0755236901
  H        -6.8141728459        0.7912389739        1.3800962758
  O        -0.5760845737        0.9667315339        4.0434997595
  H         0.3127956677        1.2855397316        3.7510407508
  H        -0.8417346320        0.0573070228        3.7322037902
  O        -1.6943465959        5.5180526269       -0.3266152844
  H        -0.9846702467        5.1629372987        0.2887821159
  H        -2.2574777453        4.7468912401       -0.5744618031
  O        -1.2162241599       -1.4652080984       -4.3571805613
  H        -1.2603961034       -1.5647244110       -3.3289590627
  H        -0.2811419692       -1.2560637697       -4.6593230093
  O        -6.4186934263        1.7634910404       -2.4287020277
  H        -5.8791777093        1.6606455786       -3.2442231990
  H        -6.9984155039        0.9716027499       -2.4546830971
  O         6.2293339816       -2.5496976853       -0.4982761669
  H         6.6982583907       -3.4505373490       -0.4053861812
  H         6.6002270790       -1.8914300946       -1.1547687572
  O        -1.2350736369        1.8111566764       -1.5809029422
  H        -0.3626374162        2.0679224671       -1.8467329155
  H        -1.2104705553        1.1267650203       -0.8978841996
  O         0.7133226465        6.5965134904       -1.6463668268
  H         1.1200322643        6.8660716714       -2.5003311929
  H        -0.2392874485        6.3821277476       -1.8772633373
  O         7.3106627631       -2.3436814703        5.5471127348
  H         7.9082530514       -2.8579884762        6.1370307538
  H         6.4356526366       -2.4809547931        5.9199357073
  O        -1.3261320960       -7.2162602913       -3.4193222807
  H        -1.6827912870       -7.2265773781       -4.3488132598
  H        -1.9692030302       -7.7134436535       -2.8817369467
  O        -5.0543646182       -0.9202310145       -3.1911952762
  H        -4.4652897817       -1.6080019682       -3.3350778033
  H        -4.5099807113       -0.2879791160       -2.7009744349
  O         2.6980761272        4.4128459702       -0.0779981982
  H         1.9762097793        4.7301266621       -0.6204571234
  H         3.4988873831        4.3059756684       -0.7268781792
  O        -3.4532260286       -3.8049467967       -4.8406660487
  H        -2.5829791687       -4.1170630895       -4.6238738722
  H        -4.1340262296       -4.4864318347       -4.6566040478
  O        -0.2087464072        4.4425770697        1.5219357904
  H        -0.9399750910        3.9501387071        1.9923159109
  H         0.5009859564        3.7941197651        1.5265230172
  O        -0.7313606271       -3.9414130449       -4.8834199315
  H        -0.0381113531       -4.2132521724       -4.3046727290
  H        -1.0425166003       -3.0583307478       -4.6578281922
  O        -5.8368764724       -0.5876278148        1.7357795016
  H        -5.3054495600       -0.2918537599        0.9721514845
  H        -6.0637381703       -1.5163400612        1.5286556950
  O         3.0880458256        4.7994422420       -3.8197371201
  H         3.7498499453        4.7261044630       -3.1409604008
  H         2.3504727801        4.2392644180       -3.4618349057
  O         2.0324225187        0.0079280471       -2.8705605709
  H         2.2126315615        0.4979184390       -2.0503406070
  H         2.9180972439       -0.2322834018       -3.1815704460
  O        -1.5365808055        4.8494734608        6.2422913595
  H        -1.0922222581        3.9759281299        6.4327498162
  H        -2.3866616619        4.7306467781        5.7117815453
  O         0.0285060599       -3.8781734738        0.0661158054
  H         0.4728170048       -4.6331656900       -0.5183198080
  H        -0.5247043304       -3.3547942769       -0.5212410668
  O         6.6642159862        6.9726006993        7.5629545008
  H         5.8316323784        7.4288153428        7.6844015503
  H         6.6799665567        6.2061462924        6.9434460582
  O        -0.4118976625       -5.1473887141        4.9283706173
  H        -0.6894109355       -6.0365915739        5.1057939236
  H        -0.7045039995       -4.6799001700        5.7818821205
  O        -2.9673138529       -4.7735160070       -1.8110138553
  H        -2.5572363419       -5.3608486438       -1.1759112323
  H        -2.7138049981       -5.2390717645       -2.6450989664
