 DBCSR| CPU Multiplication driver                                           XSMM (U)
 DBCSR| Multrec recursion limit                                              512 (U)
 DBCSR| Multiplication stack size                                           1000 (D)
 DBCSR| Maximum elements for images                                    UNLIMITED (U)
 DBCSR| Multiplicative factor virtual images                                   1 (U)
 DBCSR| Use multiplication densification                                       T (D)
 DBCSR| Multiplication size stacks                                             3 (U)
 DBCSR| Use memory pool for CPU allocation                                     F (U)
 DBCSR| OMP: Current number of threads                                         1
 DBCSR| OMP: Max number of threads                                             1
 DBCSR| Split modifier for TAS multiplication algorithm                  1.0E+00 (U)


  **** **** ******  **  PROGRAM STARTED AT               2023-02-01 10:40:10.177
 ***** ** ***  *** **   PROGRAM STARTED ON                                moritz
 **    ****   ******    PROGRAM STARTED BY                                   ole
 ***** **    ** ** **   PROGRAM PROCESS ID                                148316
  **** **  *******  **  PROGRAM STARTED IN /home/ole/git/pao_ml_equivar/2H2O_rot
                                           ations/rand_18

 CP2K| version string:                 CP2K version 2023.1 (Development Version)
 CP2K| source code revision number:                                  git:03b4147
 CP2K| cp2kflags: omp libint fftw3 libxc quip xsmm spglib libvori libbqb libtorc
 CP2K|            h
 CP2K| is freely available from                            https://www.cp2k.org/
 CP2K| Program compiled at                           Mi 01 Feb 2023 10:36:52 CET
 CP2K| Program compiled on                                                moritz
 CP2K| Program compiled for                                                local
 CP2K| Data directory path                               /home/ole/git/cp2k/data
 CP2K| Input file name                                              2H2O_ref.inp

 GLOBAL| Force Environment number                                              1
 GLOBAL| Basis set file name                                        BASIS_MOLOPT
 GLOBAL| Potential file name                                      GTH_POTENTIALS
 GLOBAL| MM Potential file name                                     MM_POTENTIAL
 GLOBAL| Coordinate file name                                         coords.xyz
 GLOBAL| Method name                                                        CP2K
 GLOBAL| Project name                                                   2H2O_ref
 GLOBAL| Run type                                                         ENERGY
 GLOBAL| FFT library                                                       FFTW3
 GLOBAL| Diagonalization library                                       ScaLAPACK
 GLOBAL| DGEMM library                                                      BLAS
 GLOBAL| Orthonormality check for eigenvectors                          DISABLED
 GLOBAL| Matrix multiplication library                                 ScaLAPACK
 GLOBAL| All-to-all communication in single precision                          F
 GLOBAL| FFTs using library dependent lengths                                  F
 GLOBAL| Grid backend                                                       AUTO
 GLOBAL| Global print level                                                  LOW
 GLOBAL| MPI I/O enabled                                                       T
 GLOBAL| Total number of message passing processes                             1
 GLOBAL| Number of threads for this process                                    1
 GLOBAL| This output is from process                                           0
 GLOBAL| Stack size for threads created by OpenMP (OMP_STACKSIZE)        default
 GLOBAL| CPU model name           AMD Ryzen Threadripper 3970X 32-Core Processor
 GLOBAL| CPUID                                                              1002
 GLOBAL| Compiled for CPUID                                                    0

 *** HINT in environment.F:884 :: The compiler target flags (generic) used ***
 *** to build this binary cannot exploit all extensions of this CPU model  ***
 *** (x86_avx2). Consider compiler target flags as part of FCFLAGS and     ***
 *** CFLAGS (ARCH file).                                                   ***


 MEMORY| system memory details [Kb]
 MEMORY|                        rank 0           min           max       average
 MEMORY| MemTotal            131773860     131773860     131773860     131773860
 MEMORY| MemFree             120378128     120378128     120378128     120378128
 MEMORY| Buffers                301220        301220        301220        301220
 MEMORY| Cached                6997988       6997988       6997988       6997988
 MEMORY| Slab                   773712        773712        773712        773712
 MEMORY| SReclaimable           330352        330352        330352        330352
 MEMORY| MemLikelyFree       128007688     128007688     128007688     128007688


 GENERATE|  Preliminary Number of Bonds generated:                             0
 GENERATE|  Achieved consistency in connectivity generation.

 *******************************************************************************
 *******************************************************************************
 **                                                                           **
 **     #####                         ##              ##                      **
 **    ##   ##            ##          ##              ##                      **
 **   ##     ##                       ##            ######                    **
 **   ##     ##  ##   ##  ##   #####  ##  ##   ####   ##    #####    #####    **
 **   ##     ##  ##   ##  ##  ##      ## ##   ##      ##   ##   ##  ##   ##   **
 **   ##  ## ##  ##   ##  ##  ##      ####     ###    ##   ######   ######    **
 **    ##  ###   ##   ##  ##  ##      ## ##      ##   ##   ##       ##        **
 **     #######   #####   ##   #####  ##  ##  ####    ##    #####   ##        **
 **           ##                                                    ##        **
 **                                                                           **
 **                                                ... make the atoms dance   **
 **                                                                           **
 **            Copyright (C) by CP2K developers group (2000-2023)             **
 **                      J. Chem. Phys. 152, 194103 (2020)                    **
 **                                                                           **
 *******************************************************************************


 TOTAL NUMBERS AND MAXIMUM NUMBERS

  Total number of            - Atomic kinds:                                   2
                             - Atoms:                                          6
                             - Shell sets:                                     6
                             - Shells:                                        22
                             - Primitive Cartesian functions:                 42
                             - Cartesian basis functions:                     48
                             - Spherical basis functions:                     46

  Maximum angular momentum of- Orbital basis functions:                        2
                             - Local part of the GTH pseudopotential:          2
                             - Non-local part of the GTH pseudopotential:      0

 ------------------------------ Linear scaling SCF -----------------------------
 eps_scf:                                                              0.100E-07
 eps_filter:                                                           0.100E-07
 mixing_fraction:                                                      0.450E+00
 max_scf:                                                                     25
 fixed chemical potential (mu)                                                 F
 has unit metric:                                                              F
 Computing inv(S):                                                             T
 Computing sqrt(S):                                                            T
 Computing S preconditioner                                                    F
 S sqrt method:                                                     NEWTONSCHULZ
 S sqrt order:                                                                 3
 Extrapolation order:                                                          4
 Use single precision matrices                                                 F
 S preconditioner type                                                      NONE
 Polarized Atomic Orbitals (PAO)                                               F
 Purification method                                   Trace resetting 4th order
 Cluster type                                                             ATOMIC
 Computing Chebyshev                                                       FALSE
 Using PAO                                                                     F
 -------------------------------------------------------------------------------


     Lanczos converged:  T threshold:   0.100E-02
     Est. extremal eigenvalues:    0.407E+01   0.112E-01
     Est. condition number :    0.362E+03

 Order=           3
     NS sqrt iter    1 1.00000000   0.105E+01       0.001      469.936
     NS sqrt iter    2 1.00000000   0.617E+00       0.001      778.688
     NS sqrt iter    3 1.00000000   0.343E+00       0.001      778.688
     NS sqrt iter    4 1.00000000   0.234E+00       0.001      778.688
     NS sqrt iter    5 1.00000000   0.117E+00       0.001      778.688
     NS sqrt iter    6 1.00000000   0.146E-01       0.001      778.688
     NS sqrt iter    7 1.00000000   0.363E-04       0.001      632.684
     Symmetrizing Results
     Final NS sqrt iter    7 1.00000000   0.315E-08



 Guess for atomic kind: O

 Electronic structure
    Total number of core electrons                                          2.00
    Total number of valence electrons                                       6.00
    Total number of electrons                                               8.00
    Multiplicity                                                   not specified
    S   [  2.00] 2.00
    P      4.00


 *******************************************************************************
                  Iteration          Convergence                     Energy [au]
 *******************************************************************************
                          1        0.708315                     -15.576645311500
                          2        0.608879                     -15.587933561584
                          3        0.102828E-01                 -15.656849565404
                          4        0.113889E-02                 -15.656866888140
                          5        0.434197E-03                 -15.656867072159
                          6        0.263771E-03                 -15.656867091904
                          7        0.478536E-06                 -15.656867103452

 Energy components [Hartree]           Total Energy ::          -15.656867103452
                                        Band Energy ::           -3.000198112285
                                     Kinetic Energy ::           11.759971203220
                                   Potential Energy ::          -27.416838306672
                                      Virial (-V/T) ::            2.331369510426
                                        Core Energy ::          -26.140716385623
                                          XC Energy ::           -3.154051012914
                                     Coulomb Energy ::           13.637900295084
                       Total Pseudopotential Energy ::          -37.935781716540
                       Local Pseudopotential Energy ::          -39.218907440693
                    Nonlocal Pseudopotential Energy ::            1.283125724153
                                        Confinement ::            0.350941276976

 Orbital energies  State     L     Occupation   Energy[a.u.]          Energy[eV]

                       1     0          2.000      -0.864471          -23.523463

                       1     1          4.000      -0.317814           -8.648154


 Total Electron Density at R=0:                                         0.000068

 Guess for atomic kind: H

 Electronic structure
    Total number of core electrons                                          0.00
    Total number of valence electrons                                       1.00
    Total number of electrons                                               1.00
    Multiplicity                                                   not specified
    S      1.00


 *******************************************************************************
                  Iteration          Convergence                     Energy [au]
 *******************************************************************************
                          1        0.437545E-02                  -0.424159432110
                          2        0.531356E-03                  -0.424178438213
                          3        0.259176E-06                  -0.424178722480

 Energy components [Hartree]           Total Energy ::           -0.424178722480
                                        Band Energy ::           -0.199015229016
                                     Kinetic Energy ::            0.464007633961
                                   Potential Energy ::           -0.888186356441
                                      Virial (-V/T) ::            1.914163240935
                                        Core Energy ::           -0.479160803564
                                          XC Energy ::           -0.244352904054
                                     Coulomb Energy ::            0.299334985138
                       Total Pseudopotential Energy ::           -0.962295316385
                       Local Pseudopotential Energy ::           -0.962295316385
                    Nonlocal Pseudopotential Energy ::            0.000000000000
                                        Confinement ::            0.191268788606

 Orbital energies  State     L     Occupation   Energy[a.u.]          Energy[eV]

                       1     0          1.000      -0.199015           -5.415480


 Total Electron Density at R=0:                                         0.242907
 Re-scaling the density matrix to get the right number of electrons
                  # Electrons              Trace(P)               Scaling factor
                           16                15.990                        1.001
 Energy with the initial guess:       -34.130435955

     Est. extremal eigenvalues     -1.07103     3.85178  converged:  T
     TRS4 it   1 1.00000000   0.180E+01       0.000      117.484   0.100E-07
     TRS4 it   2 1.00000000   0.159E+01       0.000      117.484   0.100E-07
     TRS4 it   3 1.00000000   0.917E+00       0.000      234.968   0.100E-07
     TRS4 it   4 1.00000000   0.558E+00       0.000      234.968   0.100E-07
     TRS4 it   5 1.00000000   0.332E+00       0.000      234.968   0.100E-07
     TRS4 it   6 1.00000000   0.151E+00       0.000      234.968   0.100E-07
     TRS4 it   7 1.00000000   0.418E-01       0.000      234.968   0.100E-07
     TRS4 it   8 1.00000000   0.405E-02       0.000      234.968   0.100E-07
     TRS4 it   9 1.00000000   0.472E-04       0.000      234.968   0.100E-07
     TRS4 it  10 1.00000000   0.685E-08       0.000      234.968   0.100E-07
     Final TRS4 iteration   10 1.00000000   0.685E-08
     Chemical potential (mu):      -0.22603

 SCF     1       -34.245342953       -34.245342953    1.476469

*********************************************************
 Using MIXING_FRACTION=0.450 to mix KS matrix:  iscf=  2
 KS_nw=0.450*KS + 0.550*KS_old
*********************************************************
     Est. extremal eigenvalues     -0.92885     3.97850  converged:  T
     TRS4 it   1 1.00000000   0.176E+01       0.000      117.484   0.100E-07
     TRS4 it   2 1.00000000   0.161E+01       0.000      117.484   0.100E-07
     TRS4 it   3 1.00000000   0.981E+00       0.000      234.968   0.100E-07
     TRS4 it   4 1.00000000   0.595E+00       0.000      234.968   0.100E-07
     TRS4 it   5 1.00000000   0.397E+00       0.000      234.968   0.100E-07
     TRS4 it   6 1.00000000   0.230E+00       0.000      234.968   0.100E-07
     TRS4 it   7 1.00000000   0.105E+00       0.000      234.968   0.100E-07
     TRS4 it   8 1.00000000   0.294E-01       0.000      234.968   0.100E-07
     TRS4 it   9 1.00000000   0.316E-02       0.000      234.968   0.100E-07
     TRS4 it  10 1.00000000   0.433E-04       0.000      234.968   0.100E-07
     TRS4 it  11 1.00000000   0.838E-08       0.000      234.968   0.100E-07
     Final TRS4 iteration   11 1.00000000   0.838E-08
     Chemical potential (mu):      -0.11276

 SCF     2       -34.439037655        -0.193694702    1.421051

*********************************************************
 Using MIXING_FRACTION=0.450 to mix KS matrix:  iscf=  3
 KS_nw=0.450*KS + 0.550*KS_old
*********************************************************
     Est. extremal eigenvalues     -0.95202     3.96627  converged:  T
     TRS4 it   1 1.00000000   0.177E+01       0.000      117.484   0.100E-07
     TRS4 it   2 1.00000000   0.161E+01       0.000      117.484   0.100E-07
     TRS4 it   3 1.00000000   0.970E+00       0.000      234.968   0.100E-07
     TRS4 it   4 1.00000000   0.592E+00       0.000      234.968   0.100E-07
     TRS4 it   5 1.00000000   0.391E+00       0.000      234.968   0.100E-07
     TRS4 it   6 1.00000000   0.221E+00       0.000      234.968   0.100E-07
     TRS4 it   7 1.00000000   0.963E-01       0.000      234.968   0.100E-07
     TRS4 it   8 1.00000000   0.247E-01       0.000      234.968   0.100E-07
     TRS4 it   9 1.00000000   0.231E-02       0.000      234.968   0.100E-07
     TRS4 it  10 1.00000000   0.241E-04       0.000      234.968   0.100E-07
     TRS4 it  11 1.00000000   0.262E-08       0.000      234.968   0.100E-07
     Final TRS4 iteration   11 1.00000000   0.262E-08
     Chemical potential (mu):      -0.12362

 SCF     3       -34.448886696        -0.009849041    1.392415

*********************************************************
 Using MIXING_FRACTION=0.450 to mix KS matrix:  iscf=  4
 KS_nw=0.450*KS + 0.550*KS_old
*********************************************************
     Est. extremal eigenvalues     -0.94023     3.97863  converged:  T
     TRS4 it   1 1.00000000   0.177E+01       0.000      117.484   0.100E-07
     TRS4 it   2 1.00000000   0.161E+01       0.000      117.484   0.100E-07
     TRS4 it   3 1.00000000   0.975E+00       0.000      234.968   0.100E-07
     TRS4 it   4 1.00000000   0.595E+00       0.000      234.968   0.100E-07
     TRS4 it   5 1.00000000   0.396E+00       0.000      234.968   0.100E-07
     TRS4 it   6 1.00000000   0.228E+00       0.000      234.968   0.100E-07
     TRS4 it   7 1.00000000   0.103E+00       0.000      234.968   0.100E-07
     TRS4 it   8 1.00000000   0.287E-01       0.000      234.968   0.100E-07
     TRS4 it   9 1.00000000   0.323E-02       0.000      234.968   0.100E-07
     TRS4 it  10 1.00000000   0.482E-04       0.000      234.968   0.100E-07
     TRS4 it  11 1.00000000   0.106E-07       0.000      234.968   0.100E-07
     Final TRS4 iteration   11 1.00000000   0.106E-07
     Chemical potential (mu):      -0.11330

 SCF     4       -34.449639921        -0.000753225    1.276527

*********************************************************
 Using MIXING_FRACTION=0.450 to mix KS matrix:  iscf=  5
 KS_nw=0.450*KS + 0.550*KS_old
*********************************************************
     Est. extremal eigenvalues     -0.94062     3.98008  converged:  T
     TRS4 it   1 1.00000000   0.177E+01       0.000      117.484   0.100E-07
     TRS4 it   2 1.00000000   0.161E+01       0.000      117.484   0.100E-07
     TRS4 it   3 1.00000000   0.974E+00       0.000      234.968   0.100E-07
     TRS4 it   4 1.00000000   0.596E+00       0.000      234.968   0.100E-07
     TRS4 it   5 1.00000000   0.397E+00       0.000      234.968   0.100E-07
     TRS4 it   6 1.00000000   0.228E+00       0.000      234.968   0.100E-07
     TRS4 it   7 1.00000000   0.104E+00       0.000      234.968   0.100E-07
     TRS4 it   8 1.00000000   0.292E-01       0.000      234.968   0.100E-07
     TRS4 it   9 1.00000000   0.339E-02       0.000      234.968   0.100E-07
     TRS4 it  10 1.00000000   0.537E-04       0.000      234.968   0.100E-07
     TRS4 it  11 1.00000000   0.131E-07       0.000      234.968   0.100E-07
     Final TRS4 iteration   11 1.00000000   0.131E-07
     Chemical potential (mu):      -0.11215

 SCF     5       -34.449703481        -0.000063561    1.169540

*********************************************************
 Using MIXING_FRACTION=0.450 to mix KS matrix:  iscf=  6
 KS_nw=0.450*KS + 0.550*KS_old
*********************************************************
     Est. extremal eigenvalues     -0.93899     3.98217  converged:  T
     TRS4 it   1 1.00000000   0.177E+01       0.000      117.484   0.100E-07
     TRS4 it   2 1.00000000   0.161E+01       0.000      117.484   0.100E-07
     TRS4 it   3 1.00000000   0.975E+00       0.000      234.968   0.100E-07
     TRS4 it   4 1.00000000   0.596E+00       0.000      234.968   0.100E-07
     TRS4 it   5 1.00000000   0.398E+00       0.000      234.968   0.100E-07
     TRS4 it   6 1.00000000   0.229E+00       0.000      234.968   0.100E-07
     TRS4 it   7 1.00000000   0.105E+00       0.000      234.968   0.100E-07
     TRS4 it   8 1.00000000   0.300E-01       0.000      234.968   0.100E-07
     TRS4 it   9 1.00000000   0.359E-02       0.000      234.968   0.100E-07
     TRS4 it  10 1.00000000   0.605E-04       0.000      234.968   0.100E-07
     TRS4 it  11 1.00000000   0.167E-07       0.000      234.968   0.100E-07
     Final TRS4 iteration   11 1.00000000   0.167E-07
     Chemical potential (mu):      -0.11044

 SCF     6       -34.449710792        -0.000007310    1.196178

*********************************************************
 Using MIXING_FRACTION=0.450 to mix KS matrix:  iscf=  7
 KS_nw=0.450*KS + 0.550*KS_old
*********************************************************
     Est. extremal eigenvalues     -0.93865     3.98290  converged:  T
     TRS4 it   1 1.00000000   0.177E+01       0.000      117.484   0.100E-07
     TRS4 it   2 1.00000000   0.161E+01       0.000      117.484   0.100E-07
     TRS4 it   3 1.00000000   0.975E+00       0.000      234.968   0.100E-07
     TRS4 it   4 1.00000000   0.596E+00       0.000      234.968   0.100E-07
     TRS4 it   5 1.00000000   0.398E+00       0.000      234.968   0.100E-07
     TRS4 it   6 1.00000000   0.229E+00       0.000      234.968   0.100E-07
     TRS4 it   7 1.00000000   0.105E+00       0.000      234.968   0.100E-07
     TRS4 it   8 1.00000000   0.302E-01       0.000      234.968   0.100E-07
     TRS4 it   9 1.00000000   0.367E-02       0.000      234.968   0.100E-07
     TRS4 it  10 1.00000000   0.634E-04       0.000      234.968   0.100E-07
     TRS4 it  11 1.00000000   0.183E-07       0.000      234.968   0.100E-07
     Final TRS4 iteration   11 1.00000000   0.183E-07
     Chemical potential (mu):      -0.10983

 SCF     7       -34.449712054        -0.000001263    1.171576

*********************************************************
 Using MIXING_FRACTION=0.450 to mix KS matrix:  iscf=  8
 KS_nw=0.450*KS + 0.550*KS_old
*********************************************************
     Est. extremal eigenvalues     -0.93832     3.98338  converged:  T
     TRS4 it   1 1.00000000   0.177E+01       0.000      117.484   0.100E-07
     TRS4 it   2 1.00000000   0.161E+01       0.000      117.484   0.100E-07
     TRS4 it   3 1.00000000   0.975E+00       0.000      234.968   0.100E-07
     TRS4 it   4 1.00000000   0.596E+00       0.000      234.968   0.100E-07
     TRS4 it   5 1.00000000   0.398E+00       0.000      234.968   0.100E-07
     TRS4 it   6 1.00000000   0.230E+00       0.000      234.968   0.100E-07
     TRS4 it   7 1.00000000   0.106E+00       0.000      234.968   0.100E-07
     TRS4 it   8 1.00000000   0.304E-01       0.000      234.968   0.100E-07
     TRS4 it   9 1.00000000   0.372E-02       0.000      234.968   0.100E-07
     TRS4 it  10 1.00000000   0.652E-04       0.000      234.968   0.100E-07
     TRS4 it  11 1.00000000   0.194E-07       0.000      234.968   0.100E-07
     Final TRS4 iteration   11 1.00000000   0.194E-07
     Chemical potential (mu):      -0.10944

 SCF     8       -34.449712349        -0.000000295    1.181373

*********************************************************
 Using MIXING_FRACTION=0.450 to mix KS matrix:  iscf=  9
 KS_nw=0.450*KS + 0.550*KS_old
*********************************************************
     Est. extremal eigenvalues     -0.93819     3.98360  converged:  T
     TRS4 it   1 1.00000000   0.177E+01       0.000      117.484   0.100E-07
     TRS4 it   2 1.00000000   0.161E+01       0.000      117.484   0.100E-07
     TRS4 it   3 1.00000000   0.975E+00       0.000      234.968   0.100E-07
     TRS4 it   4 1.00000000   0.596E+00       0.000      234.968   0.100E-07
     TRS4 it   5 1.00000000   0.398E+00       0.000      234.968   0.100E-07
     TRS4 it   6 1.00000000   0.230E+00       0.000      234.968   0.100E-07
     TRS4 it   7 1.00000000   0.106E+00       0.000      234.968   0.100E-07
     TRS4 it   8 1.00000000   0.305E-01       0.000      234.968   0.100E-07
     TRS4 it   9 1.00000000   0.374E-02       0.000      234.968   0.100E-07
     TRS4 it  10 1.00000000   0.662E-04       0.000      234.968   0.100E-07
     TRS4 it  11 1.00000000   0.200E-07       0.000      234.968   0.100E-07
     Final TRS4 iteration   11 1.00000000   0.200E-07
     Chemical potential (mu):      -0.10925

 SCF     9       -34.449712427        -0.000000078    1.090680


 SCF run converged in     9 steps.

 Writing restart DM 2H2O_ref_LS_DM_SPIN_1_RESTART.dm with checksum:       0.69325246E+02

 ENERGY| Total FORCE_EVAL ( QS ) energy [a.u.]:              -34.449712427220518

 -------------------------------------------------------------------------------
 -                                                                             -
 -                                DBCSR STATISTICS                             -
 -                                                                             -
 -------------------------------------------------------------------------------
 COUNTER                                    TOTAL       BLAS       SMM       ACC
 flops     5 x     5 x     5              2778000       0.0%    100.0%      0.0%
 flops     5 x    13 x     5              3120000       0.0%    100.0%      0.0%
 flops    13 x     5 x     5              3120000       0.0%    100.0%      0.0%
 flops     5 x     5 x    13              3601000       0.0%    100.0%      0.0%
 flops    13 x     5 x    13              4062760       0.0%    100.0%      0.0%
 flops     5 x    13 x    13              4062760       0.0%    100.0%      0.0%
 flops    13 x    13 x     5              5313360       0.0%    100.0%      0.0%
 flops    13 x    13 x    13              6942520       0.0%    100.0%      0.0%
 flops inhomo. stacks                           0       0.0%      0.0%      0.0%
 flops total                        33.000400E+06       0.0%    100.0%      0.0%
 flops max/rank                     33.000400E+06       0.0%    100.0%      0.0%
 matmuls inhomo. stacks                         0       0.0%      0.0%      0.0%
 matmuls total                              35784       0.0%    100.0%      0.0%
 number of processed stacks                  1960       0.0%    100.0%      0.0%
 average stack size                                     0.0      18.3       0.0
 marketing flops                    47.889312E+06
 -------------------------------------------------------------------------------
 # multiplications                            246
 max memory usage/rank             505.225216E+06
 # max total images/rank                        1
 # max 3D layers                                1
 # MPI messages exchanged                       0
 -------------------------------------------------------------------------------

 -------------------------------------------------------------------------------
 -                                                                             -
 -                                DBM STATISTICS                               -
 -                                                                             -
 -------------------------------------------------------------------------------
    M  x    N  x    K                                          COUNT     PERCENT
 -------------------------------------------------------------------------------

 -------------------------------------------------------------------------------
 -                                                                             -
 -                                GRID STATISTICS                              -
 -                                                                             -
 -------------------------------------------------------------------------------
 LP    KERNEL             BACKEND                              COUNT     PERCENT
 2     collocate ortho    REF                                  38100      30.72%
 2     integrate ortho    REF                                  38100      30.72%
 3     collocate ortho    REF                                  19660      15.85%
 3     integrate ortho    REF                                  19660      15.85%
 4     collocate ortho    REF                                   4240       3.42%
 4     integrate ortho    REF                                   4240       3.42%
 0     collocate general  REF                                      6       0.00%
 -------------------------------------------------------------------------------

 MEMORY| Estimated peak process memory [MiB]                                 482

 -------------------------------------------------------------------------------
 -                                                                             -
 -                           R E F E R E N C E S                               -
 -                                                                             -
 -------------------------------------------------------------------------------
 
 CP2K version 2023.1 (Development Version), the CP2K developers group (2023).
 CP2K is freely available from https://www.cp2k.org/ .

 Kuehne,Thomas D.; Iannuzzi,Marcella; Del Ben,Mauro;
 Rybkin,Vladimir V.; Seewald,Patrick; Stein,Frederick; Laino,Teodoro;
 Khaliullin,Rustam Z.; Schuett,Ole; Schiffmann,Florian; Golze,Dorothea;
 Wilhelm,Jan; Chulkov,Sergey; Bani-Hashemian,Mohammad Hossein;
 Weber,Valery; Borstnik,Urban; Taillefumier,Mathieu;
 Jakobovits,Alice Shoshana; Lazzaro,Alfio; Pabst,Hans; Mueller,Tiziano;
 Schade,Robert; Guidon,Manuel; Andermatt,Samuel; Holmberg,Nico;
 Schenter,Gregory K.; Hehn,Anna; Bussy,Augustin; Belleflamme,Fabian;
 Tabacchi,Gloria; Gloess,Andreas; Lass,Michael; Bethune,Iain;
 Mundy,Christopher J.; Plessl,Christian; Watkins,Matt;
 VandeVondele,Joost; Krack,Matthias; Hutter,Juerg. 
 The Journal of Chemical Physics, 152 (19), (2020). 
 CP2K: An electronic structure and molecular dynamics software package -
 Quickstep: Efficient and accurate electronic structure calculations.
 https://doi.org/10.1063/5.0007045

 Schuett, Ole; Messmer, Peter; Hutter, Juerg; VandeVondele, Joost. 
 Electronic Structure Calculations on Graphics Processing Units, John
 Wiley & Sons, Ltd, 173-190 (2016). 
 GPU-Accelerated Sparse Matrix-Matrix Multiplication for
 Linear Scaling Density Functional Theory.
 https://doi.org/10.1002/9781118670712.ch8

 Heinecke, A; Henry, G; Hutchinson, M; Pabst, H. 
 Proceedings of Intl. Supercomputing Conference, 981-991 (2016). 
 LIBXSMM: Accelerating Small Matrix Multiplications
 by Runtime Code Generation.
 https://doi.org/10.1109/SC.2016.83

 Borstnik, U; VandeVondele, J; Weber, V; Hutter, J. 
 PARALLEL COMPUTING, 40 (5-6), 47-58 (2014). 
 Sparse matrix multiplication: The distributed block-compressed sparse
 row library.
 https://doi.org/10.1016/j.parco.2014.03.012

 Hutter, J; Iannuzzi, M; Schiffmann, F; VandeVondele, J. 
 WIREs Comput Mol Sci., 4 (1), 15-25 (2014). 
 CP2K: atomistic simulations of condensed matter systems.
 https://doi.org/10.1002/wcms.1159

 VandeVondele, J; Borstnik, U; Hutter, J. 
 JOURNAL OF CHEMICAL THEORY AND COMPUTATION, 8 (10), 3565-3573 (2012). 
 Linear Scaling Self-Consistent Field Calculations with Millions of Atoms
 in the Condensed Phase.
 https://doi.org/10.1021/ct200897x

 VandeVondele, J; Hutter, J. 
 JOURNAL OF CHEMICAL PHYSICS, 127 (11), 114105 (2007). 
 Gaussian basis sets for accurate calculations on molecular systems in
 gas and condensed phases.
 https://doi.org/10.1063/1.2770708

 Krack, M. 
 THEORETICAL CHEMISTRY ACCOUNTS, 114 (1-3), 145-152 (2005). 
 Pseudopotentials for H to Kr optimized for gradient-corrected
 exchange-correlation functionals.
 https://doi.org/10.1007/s00214-005-0655-y

 VandeVondele, J; Krack, M; Mohamed, F; Parrinello, M; Chassaing, T;
 Hutter, J. COMPUTER PHYSICS COMMUNICATIONS, 167 (2), 103-128 (2005). 
 QUICKSTEP: Fast and accurate density functional calculations using a
 mixed Gaussian and plane waves approach.
 https://doi.org/10.1016/j.cpc.2004.12.014

 Frigo, M; Johnson, SG. 
 PROCEEDINGS OF THE IEEE, 93 (2), 216-231 (2005). 
 The design and implementation of FFTW3.
 https://doi.org/10.1109/JPROC.2004.840301

 Niklasson, AMN; Tymczak, CJ; Challacombe, M. 
 JOURNAL OF CHEMICAL PHYSICS, 118 (19), 8611-8620 (2003). 
 Trace resetting density matrix purification in O(N)
 self-consistent-field theory.
 https://doi.org/10.1063/1.1559913

 Hartwigsen, C; Goedecker, S; Hutter, J. 
 PHYSICAL REVIEW B, 58 (7), 3641-3662 (1998). 
 Relativistic separable dual-space Gaussian pseudopotentials from H to Rn.
 https://doi.org/10.1103/PhysRevB.58.3641

 Lippert, G; Hutter, J; Parrinello, M. 
 MOLECULAR PHYSICS, 92 (3), 477-487 (1997). 
 A hybrid Gaussian and plane wave density functional scheme.
 https://doi.org/10.1080/002689797170220

 Perdew, JP; Burke, K; Ernzerhof, M. 
 PHYSICAL REVIEW LETTERS, 77 (18), 3865-3868 (1996). 
 Generalized gradient approximation made simple.
 https://doi.org/10.1103/PhysRevLett.77.3865

 Goedecker, S; Teter, M; Hutter, J. 
 PHYSICAL REVIEW B, 54 (3), 1703-1710 (1996). 
 Separable dual-space Gaussian pseudopotentials.
 https://doi.org/10.1103/PhysRevB.54.1703


 -------------------------------------------------------------------------------
 -                                                                             -
 -                                T I M I N G                                  -
 -                                                                             -
 -------------------------------------------------------------------------------
 SUBROUTINE                       CALLS  ASD         SELF TIME        TOTAL TIME
                                MAXIMUM       AVERAGE  MAXIMUM  AVERAGE  MAXIMUM
 CP2K                                 1  1.0    0.008    0.008   13.428   13.428
 qs_energies                          1  2.0    0.000    0.000   13.139   13.139
 ls_scf                               1  3.0    0.000    0.000   13.048   13.048
 ls_scf_main                          1  4.0    0.001    0.001   11.377   11.377
 ls_scf_dm_to_ks                      9  5.0    0.000    0.000   11.313   11.313
 qs_ks_update_qs_env                 10  6.1    0.000    0.000    9.725    9.725
 rebuild_ks_matrix                   10  7.1    0.000    0.000    9.725    9.725
 qs_ks_build_kohn_sham_matrix        10  8.1    0.001    0.001    9.725    9.725
 qs_vxc_create                       10  9.1    0.000    0.000    5.818    5.818
 xc_vxc_pw_create                    10 10.1    0.092    0.092    5.818    5.818
 pw_transfer                        191 11.2    0.014    0.014    4.768    4.768
 fft_wrap_pw1pw2                    171 12.4    0.002    0.002    4.636    4.636
 fft_wrap_pw1pw2_200                111 13.8    0.385    0.385    4.501    4.501
 xc_rho_set_and_dset_create          10 11.1    0.080    0.080    3.586    3.586
 qs_rho_update_rho_low               10  6.1    0.000    0.000    3.248    3.248
 calculate_rho_elec                  10  7.1    0.030    0.030    3.248    3.248
 xc_pw_derive                        60 12.1    0.001    0.001    3.107    3.107
 sum_up_and_integrate                10  9.1    0.068    0.068    3.098    3.098
 integrate_v_rspace                  10 10.1    0.000    0.000    3.030    3.030
 grid_integrate_task_list            10 11.1    2.493    2.493    2.493    2.493
 grid_collocate_task_list            10  8.1    2.161    2.161    2.161    2.161
 xc_pw_divergence                    10 11.1    0.000    0.000    2.074    2.074
 fft3d_s                            172 14.3    1.915    1.915    1.927    1.927
 xc_functional_eval                  10 12.1    0.000    0.000    1.850    1.850
 pbe_lda_eval                        10 13.1    1.850    1.850    1.850    1.850
 ls_scf_init_scf                      1  4.0    0.000    0.000    1.671    1.671
 ls_scf_initial_guess                 1  5.0    0.000    0.000    1.661    1.661
 ls_scf_qs_atomic_guess               1  6.0    0.000    0.000    1.661    1.661
 pw_gather_s                         81 13.9    1.164    1.164    1.164    1.164
 pw_scatter_s                        90 14.8    1.145    1.145    1.145    1.145
 density_rs2pw                       10  8.1    0.001    0.001    1.057    1.057
 potential_pw2rs                     10 11.1    0.001    0.001    0.536    0.536
 pw_derive                           60 13.1    0.517    0.517    0.517    0.517
 pw_copy                            120 11.9    0.383    0.383    0.383    0.383
 pw_poisson_solve                    10  9.1    0.057    0.057    0.303    0.303
 pw_axpy                             90 10.4    0.272    0.272    0.272    0.272
 -------------------------------------------------------------------------------

 The number of warnings for this run is : 0
 
 -------------------------------------------------------------------------------
  **** **** ******  **  PROGRAM ENDED AT                 2023-02-01 10:40:23.749
 ***** ** ***  *** **   PROGRAM RAN ON                                    moritz
 **    ****   ******    PROGRAM RAN BY                                       ole
 ***** **    ** ** **   PROGRAM PROCESS ID                                148316
  **** **  *******  **  PROGRAM STOPPED IN /home/ole/git/pao_ml_equivar/2H2O_rot
                                           ations/rand_18
