 DBCSR| CPU Multiplication driver                                           XSMM (U)
 DBCSR| Multrec recursion limit                                              512 (U)
 DBCSR| Multiplication stack size                                           1000 (D)
 DBCSR| Maximum elements for images                                    UNLIMITED (U)
 DBCSR| Multiplicative factor virtual images                                   1 (U)
 DBCSR| Use multiplication densification                                       T (D)
 DBCSR| Multiplication size stacks                                             3 (U)
 DBCSR| Use memory pool for CPU allocation                                     F (U)
 DBCSR| OMP: Current number of threads                                         1
 DBCSR| OMP: Max number of threads                                             1
 DBCSR| Split modifier for TAS multiplication algorithm                  1.0E+00 (U)


  **** **** ******  **  PROGRAM STARTED AT               2023-02-01 10:43:54.934
 ***** ** ***  *** **   PROGRAM STARTED ON                                moritz
 **    ****   ******    PROGRAM STARTED BY                                   ole
 ***** **    ** ** **   PROGRAM PROCESS ID                                148523
  **** **  *******  **  PROGRAM STARTED IN /home/ole/git/pao_ml_equivar/2H2O_rot
                                           ations/rand_18

 CP2K| version string:                 CP2K version 2023.1 (Development Version)
 CP2K| source code revision number:                                  git:03b4147
 CP2K| cp2kflags: omp libint fftw3 libxc quip xsmm spglib libvori libbqb libtorc
 CP2K|            h
 CP2K| is freely available from                            https://www.cp2k.org/
 CP2K| Program compiled at                           Mi 01 Feb 2023 10:36:52 CET
 CP2K| Program compiled on                                                moritz
 CP2K| Program compiled for                                                local
 CP2K| Data directory path                               /home/ole/git/cp2k/data
 CP2K| Input file name                                            2H2O_pao44.inp

 GLOBAL| Force Environment number                                              1
 GLOBAL| Basis set file name                                        BASIS_MOLOPT
 GLOBAL| Potential file name                                      GTH_POTENTIALS
 GLOBAL| MM Potential file name                                     MM_POTENTIAL
 GLOBAL| Coordinate file name                                         coords.xyz
 GLOBAL| Method name                                                        CP2K
 GLOBAL| Project name                                                 2H2O_pao44
 GLOBAL| Run type                                                         ENERGY
 GLOBAL| FFT library                                                       FFTW3
 GLOBAL| Diagonalization library                                       ScaLAPACK
 GLOBAL| DGEMM library                                                      BLAS
 GLOBAL| Orthonormality check for eigenvectors                          DISABLED
 GLOBAL| Matrix multiplication library                                 ScaLAPACK
 GLOBAL| All-to-all communication in single precision                          F
 GLOBAL| FFTs using library dependent lengths                                  F
 GLOBAL| Grid backend                                                       AUTO
 GLOBAL| Global print level                                                  LOW
 GLOBAL| MPI I/O enabled                                                       T
 GLOBAL| Total number of message passing processes                             1
 GLOBAL| Number of threads for this process                                    1
 GLOBAL| This output is from process                                           0
 GLOBAL| Stack size for threads created by OpenMP (OMP_STACKSIZE)        default
 GLOBAL| CPU model name           AMD Ryzen Threadripper 3970X 32-Core Processor
 GLOBAL| CPUID                                                              1002
 GLOBAL| Compiled for CPUID                                                    0

 *** HINT in environment.F:884 :: The compiler target flags (generic) used ***
 *** to build this binary cannot exploit all extensions of this CPU model  ***
 *** (x86_avx2). Consider compiler target flags as part of FCFLAGS and     ***
 *** CFLAGS (ARCH file).                                                   ***


 MEMORY| system memory details [Kb]
 MEMORY|                        rank 0           min           max       average
 MEMORY| MemTotal            131773860     131773860     131773860     131773860
 MEMORY| MemFree             115402780     115402780     115402780     115402780
 MEMORY| Buffers                301492        301492        301492        301492
 MEMORY| Cached                7000768       7000768       7000768       7000768
 MEMORY| Slab                   776600        776600        776600        776600
 MEMORY| SReclaimable           330700        330700        330700        330700
 MEMORY| MemLikelyFree       123035740     123035740     123035740     123035740


 GENERATE|  Preliminary Number of Bonds generated:                             0
 GENERATE|  Achieved consistency in connectivity generation.

 *******************************************************************************
 *******************************************************************************
 **                                                                           **
 **     #####                         ##              ##                      **
 **    ##   ##            ##          ##              ##                      **
 **   ##     ##                       ##            ######                    **
 **   ##     ##  ##   ##  ##   #####  ##  ##   ####   ##    #####    #####    **
 **   ##     ##  ##   ##  ##  ##      ## ##   ##      ##   ##   ##  ##   ##   **
 **   ##  ## ##  ##   ##  ##  ##      ####     ###    ##   ######   ######    **
 **    ##  ###   ##   ##  ##  ##      ## ##      ##   ##   ##       ##        **
 **     #######   #####   ##   #####  ##  ##  ####    ##    #####   ##        **
 **           ##                                                    ##        **
 **                                                                           **
 **                                                ... make the atoms dance   **
 **                                                                           **
 **            Copyright (C) by CP2K developers group (2000-2023)             **
 **                      J. Chem. Phys. 152, 194103 (2020)                    **
 **                                                                           **
 *******************************************************************************


 TOTAL NUMBERS AND MAXIMUM NUMBERS

  Total number of            - Atomic kinds:                                   2
                             - Atoms:                                          6
                             - Shell sets:                                     6
                             - Shells:                                        22
                             - Primitive Cartesian functions:                 42
                             - Cartesian basis functions:                     48
                             - Spherical basis functions:                     46

  Maximum angular momentum of- Orbital basis functions:                        2
                             - Local part of the GTH pseudopotential:          2
                             - Non-local part of the GTH pseudopotential:      0

 ------------------------------ Linear scaling SCF -----------------------------
 eps_scf:                                                              0.100E-07
 eps_filter:                                                           0.100E-07
 mixing_fraction:                                                      0.450E+00
 max_scf:                                                                     25
 fixed chemical potential (mu)                                                 F
 has unit metric:                                                              F
 Computing inv(S):                                                             T
 Computing sqrt(S):                                                            T
 Computing S preconditioner                                                    F
 S sqrt method:                                                     NEWTONSCHULZ
 S sqrt order:                                                                 3
 Extrapolation order:                                                          1
 Use single precision matrices                                                 F
 S preconditioner type                                                      NONE
 Polarized Atomic Orbitals (PAO)                                               T
 Purification method                                   Trace resetting 4th order
 Cluster type                                                             ATOMIC
 Computing Chebyshev                                                       FALSE
 Using PAO                                                                     T
 -------------------------------------------------------------------------------

 
 PAO|                                  EPS_PAO                           0.1E-04
 PAO|                                  MIXING                            0.5E+00
 PAO|                                  MAX_PAO                              1000
 PAO|                                  MAX_CYCLES                           1000
 PAO|                                  PARAMETERIZATION              EQUIVARIANT
 PAO|                                  PRECONDITION                            F
 PAO|                                  REGULARIZATION                    0.0E+00
 PAO|                                  EPS_PGF                           0.1E-09
 PAO|                                  PENALTY_DISTANCE                  0.1E+00
 PAO|                                  PENALTY_STRENGTH                  0.5E-02
 PAO|                                  LINPOT_PRECONDITION_DELTA         0.0E+00
 PAO|                                  LINPOT_INITGUESS_DELT             0.0E+00
 PAO|                                  LINPOT_REGULARIZATION_DELTA       0.0E+00
 PAO|                                  LINPOT_REGULARIZATION_STRENGTH    0.0E+00
 PAO|                                  OPTIMIZER                              CG
 PAO|                                  CG_INIT_STEPS                           2
 PAO|                                  CG_RESET_LIMIT                    0.1E+00
 PAO|                                  CHECK_UNITARY_TOL                -0.1E+01
 PAO|                                  CHECK_GRADIENT_TOL               -0.1E+01
 PAO|                                  NUM_GRADIENT_ORDER                      2
 PAO|                                  NUM_GRADIENT_EPS                  0.1E-07
 PAO|                                  PRINT%RESTART%WRITE_CYCLES            100
 PAO|                                  RESTART_FILE 
 PAO|                                  PREOPT_DM_FILE 2H2O_ref_LS_DM_SPIN_1_RESTART.dm
 PAO|                                  MACHINE_LEARNING%METHOD       GAUSSIAN_PR
 PAO|                                  MACHINE_LEARNING%PRIOR               ZERO
 PAO|                                  MACHINE_LEARNING%DESCRIPTOR     POTENTIAL
 PAO|                                  MACHINE_LEARNING%TOLERANCE        0.1E-01
 PAO|                                  MACHINE_LEARNING%GP_NOISE_VAR     0.1E+00
 PAO|                                  MACHINE_LEARNING%GP_SCALE         0.5E-01
 

 Calculating atomic Fock matrix for atomic kind: O

 Electronic structure
    Total number of core electrons                                          2.00
    Total number of valence electrons                                       6.00
    Total number of electrons                                               8.00
    Multiplicity                                                   not specified
    S   [  2.00] 2.00
    P      4.00


 *******************************************************************************
                  Iteration          Convergence                     Energy [au]
 *******************************************************************************
                          1        0.708315                     -15.576645311500
                          2        0.608879                     -15.587933561584
                          3        0.102828E-01                 -15.656849565404
                          4        0.113889E-02                 -15.656866888140
                          5        0.434197E-03                 -15.656867072159
                          6        0.263771E-03                 -15.656867091904
                          7        0.478536E-06                 -15.656867103452

 Energy components [Hartree]           Total Energy ::          -15.656867103452
                                        Band Energy ::           -3.000198112285
                                     Kinetic Energy ::           11.759971203220
                                   Potential Energy ::          -27.416838306672
                                      Virial (-V/T) ::            2.331369510426
                                        Core Energy ::          -26.140716385623
                                          XC Energy ::           -3.154051012914
                                     Coulomb Energy ::           13.637900295084
                       Total Pseudopotential Energy ::          -37.935781716540
                       Local Pseudopotential Energy ::          -39.218907440693
                    Nonlocal Pseudopotential Energy ::            1.283125724153
                                        Confinement ::            0.350941276976

 Orbital energies  State     L     Occupation   Energy[a.u.]          Energy[eV]

                       1     0          2.000      -0.864471          -23.523463

                       1     1          4.000      -0.317814           -8.648154


 Total Electron Density at R=0:                                         0.000068

 Calculating atomic Fock matrix for atomic kind: H

 Electronic structure
    Total number of core electrons                                          0.00
    Total number of valence electrons                                       1.00
    Total number of electrons                                               1.00
    Multiplicity                                                   not specified
    S      1.00


 *******************************************************************************
                  Iteration          Convergence                     Energy [au]
 *******************************************************************************
                          1        0.437545E-02                  -0.424159432110
                          2        0.531356E-03                  -0.424178438213
                          3        0.259176E-06                  -0.424178722480

 Energy components [Hartree]           Total Energy ::           -0.424178722480
                                        Band Energy ::           -0.199015229016
                                     Kinetic Energy ::            0.464007633961
                                   Potential Energy ::           -0.888186356441
                                      Virial (-V/T) ::            1.914163240935
                                        Core Energy ::           -0.479160803564
                                          XC Energy ::           -0.244352904054
                                     Coulomb Energy ::            0.299334985138
                       Total Pseudopotential Energy ::           -0.962295316385
                       Local Pseudopotential Energy ::           -0.962295316385
                    Nonlocal Pseudopotential Energy ::            0.000000000000
                                        Confinement ::            0.191268788606

 Orbital energies  State     L     Occupation   Energy[a.u.]          Energy[eV]

                       1     0          1.000      -0.199015           -5.415480


 Total Electron Density at R=0:                                         0.242907
 PAO| Made initial guess for matrix_X with norm:   4.8989794855663558     

     Lanczos converged:  T threshold:   0.100E-02
     Est. extremal eigenvalues:    0.337E+01   0.110E+00
     Est. condition number :    0.307E+02

 Order=           3
     NS sqrt iter    1 1.00000000   0.821E+00       0.001       58.407
     NS sqrt iter    2 1.00000000   0.440E+00       0.001      103.509
     NS sqrt iter    3 1.00000000   0.171E+00       0.001      104.253
     NS sqrt iter    4 1.00000000   0.214E-01       0.001      102.473
     NS sqrt iter    5 1.00000000   0.660E-04       0.001       93.984
     Symmetrizing Results
     Final NS sqrt iter    5 1.00000000   0.207E-08

 PAO| Read restart DM 2H2O_ref_LS_DM_SPIN_1_RESTART.dm with checksum:    69.325246305230039     
 PAO| Quickstep energy from restart density:  -34.449712427220518     
 PAO| ======================= Iteration:         1 =============================

     Lanczos converged:  T threshold:   0.100E-02
     Est. extremal eigenvalues:    0.337E+01   0.110E+00
     Est. condition number :    0.307E+02

 Order=           3
     NS sqrt iter    1 1.00000000   0.821E+00       0.001       59.930
     NS sqrt iter    2 1.00000000   0.440E+00       0.001      100.337
     NS sqrt iter    3 1.00000000   0.171E+00       0.001      100.775
     NS sqrt iter    4 1.00000000   0.214E-01       0.001      101.610
     NS sqrt iter    5 1.00000000   0.660E-04       0.001       93.583
     Symmetrizing Results
     Final NS sqrt iter    5 1.00000000   0.207E-08

     Est. extremal eigenvalues     -0.92072     1.95868  converged:  T
     TRS4 it   1 1.00000000   0.904E+00       0.000       16.128   0.100E-07
     TRS4 it   2 1.00000000   0.711E+00       0.001       32.256   0.100E-07
     TRS4 it   3 1.00000000   0.507E+00       0.001       32.256   0.100E-07
     TRS4 it   4 1.00000000   0.320E+00       0.001       32.256   0.100E-07
     TRS4 it   5 1.00000000   0.160E+00       0.001       32.256   0.100E-07
     TRS4 it   6 1.00000000   0.517E-01       0.001       32.256   0.100E-07
     TRS4 it   7 1.00000000   0.750E-02       0.001       32.256   0.100E-07
     TRS4 it   8 1.00000000   0.224E-03       0.001       32.256   0.100E-07
     TRS4 it   9 1.00000000   0.224E-06       0.001       32.256   0.100E-07
     TRS4 it  10 1.00000000   0.226E-12       0.001       32.256   0.100E-07
     Final TRS4 iteration   10 1.00000000   0.226E-12
     Chemical potential (mu):      -0.06512
 
 PAO| energy:  -7.6214333699545938      penalty:   2.5884498452564445E-033
 PAO|CG| warming up with steepest descent
 PAO|CG| beta:    0.0000000000000000     
 PAO| norm of gradient:  0.78372269515616144     
 PAO|LS| adapt:  T F F
 PAO|LS| adapt: scan_steps:    0.0000000000000000        0.0000000000000000        0.0000000000000000     
 PAO|LS| adapt: energies:   -7.6214333699545938        0.0000000000000000        0.0000000000000000     
 PAO| ======================= Iteration:         2 =============================

     Lanczos converged:  T threshold:   0.100E-02
     Est. extremal eigenvalues:    0.328E+01   0.122E+00
     Est. condition number :    0.268E+02

 Order=           3
     NS sqrt iter    1 1.00000000   0.805E+00       0.001       59.916
     NS sqrt iter    2 1.00000000   0.425E+00       0.001       99.599
     NS sqrt iter    3 1.00000000   0.153E+00       0.001      101.351
     NS sqrt iter    4 1.00000000   0.149E-01       0.001      102.390
     NS sqrt iter    5 1.00000000   0.224E-04       0.001       78.528
     Symmetrizing Results
     Final NS sqrt iter    5 1.00000000   0.787E-09

     Est. extremal eigenvalues     -0.92440     1.89729  converged:  T
     TRS4 it   1 1.00000000   0.901E+00       0.000       16.128   0.100E-07
     TRS4 it   2 1.00000000   0.691E+00       0.001       32.256   0.100E-07
     TRS4 it   3 1.00000000   0.492E+00       0.001       32.256   0.100E-07
     TRS4 it   4 1.00000000   0.300E+00       0.001       32.256   0.100E-07
     TRS4 it   5 1.00000000   0.142E+00       0.001       32.256   0.100E-07
     TRS4 it   6 1.00000000   0.404E-01       0.001       32.256   0.100E-07
     TRS4 it   7 1.00000000   0.464E-02       0.001       32.256   0.100E-07
     TRS4 it   8 1.00000000   0.865E-04       0.001       32.256   0.100E-07
     TRS4 it   9 1.00000000   0.333E-07       0.001       32.256   0.100E-07
     Final TRS4 iteration    9 1.00000000   0.333E-07
     Chemical potential (mu):      -0.05329
 
 PAO| energy:  -7.6769475203577864      penalty:   2.2566820154307845E-008
 PAO|LS| adapt:  T T F
 PAO|LS| adapt: scan_steps:    0.0000000000000000       0.10000000000000001        0.0000000000000000     
 PAO|LS| adapt: energies:   -7.6214333699545938       -7.6769475203577864        0.0000000000000000     
 PAO| ======================= Iteration:         3 =============================

     Lanczos converged:  T threshold:   0.100E-02
     Est. extremal eigenvalues:    0.319E+01   0.134E+00
     Est. condition number :    0.238E+02

 Order=           3
     NS sqrt iter    1 1.00000000   0.787E+00       0.001       59.068
     NS sqrt iter    2 1.00000000   0.408E+00       0.001       99.639
     NS sqrt iter    3 1.00000000   0.136E+00       0.001       99.916
     NS sqrt iter    4 1.00000000   0.103E-01       0.001      100.396
     NS sqrt iter    5 1.00000000   0.778E-05       0.001       77.082
     Symmetrizing Results
     Final NS sqrt iter    5 1.00000000   0.955E-10

     Est. extremal eigenvalues     -0.92784     1.84594  converged:  T
     TRS4 it   1 1.00000000   0.898E+00       0.000       16.128   0.100E-07
     TRS4 it   2 1.00000000   0.673E+00       0.001       32.256   0.100E-07
     TRS4 it   3 1.00000000   0.477E+00       0.001       32.256   0.100E-07
     TRS4 it   4 1.00000000   0.281E+00       0.001       32.256   0.100E-07
     TRS4 it   5 1.00000000   0.123E+00       0.001       32.256   0.100E-07
     TRS4 it   6 1.00000000   0.306E-01       0.001       32.256   0.100E-07
     TRS4 it   7 1.00000000   0.266E-02       0.001       32.256   0.100E-07
     TRS4 it   8 1.00000000   0.285E-04       0.001       32.256   0.100E-07
     TRS4 it   9 1.00000000   0.361E-08       0.001       32.256   0.100E-07
     Final TRS4 iteration    9 1.00000000   0.361E-08
     Chemical potential (mu):      -0.04050
 
 PAO| energy:  -7.7199912415942009      penalty:   3.6106888559816484E-007
 PAO|LS| adapt:  T T F
 PAO|LS| adapt: scan_steps:    0.0000000000000000       0.20000000000000001        0.0000000000000000     
 PAO|LS| adapt: energies:   -7.6214333699545938       -7.7199912415942009        0.0000000000000000     
 PAO| ======================= Iteration:         4 =============================

     Lanczos converged:  T threshold:   0.100E-02
     Est. extremal eigenvalues:    0.299E+01   0.153E+00
     Est. condition number :    0.195E+02

 Order=           3
     NS sqrt iter    1 1.00000000   0.750E+00       0.001       59.656
     NS sqrt iter    2 1.00000000   0.373E+00       0.001       99.750
     NS sqrt iter    3 1.00000000   0.107E+00       0.001       98.879
     NS sqrt iter    4 1.00000000   0.506E-02       0.001      100.030
     NS sqrt iter    5 1.00000000   0.104E-05       0.001       76.963
     Symmetrizing Results
     Final NS sqrt iter    5 1.00000000   0.179E-11

     Est. extremal eigenvalues     -0.93317     1.76706  converged:  T
     TRS4 it   1 1.00000000   0.892E+00       0.000       16.128   0.100E-07
     TRS4 it   2 1.00000000   0.643E+00       0.001       32.256   0.100E-07
     TRS4 it   3 1.00000000   0.447E+00       0.001       32.256   0.100E-07
     TRS4 it   4 1.00000000   0.244E+00       0.001       32.256   0.100E-07
     TRS4 it   5 1.00000000   0.908E-01       0.001       32.256   0.100E-07
     TRS4 it   6 1.00000000   0.161E-01       0.001       32.256   0.100E-07
     TRS4 it   7 1.00000000   0.709E-03       0.001       32.256   0.100E-07
     TRS4 it   8 1.00000000   0.196E-05       0.001       32.256   0.100E-07
     TRS4 it   9 1.00000000   0.172E-10       0.001       32.256   0.100E-07
     Final TRS4 iteration    9 1.00000000   0.172E-10
     Chemical potential (mu):      -0.01226
 
 PAO| energy:  -7.7670978653468170      penalty:   5.7771002746073058E-006
 PAO|LS| Need extra step
 PAO|LS| adapt:  T T F
 PAO|LS| adapt: scan_steps:    0.0000000000000000       0.40000000000000002        0.0000000000000000     
 PAO|LS| adapt: energies:   -7.6214333699545938       -7.7670978653468170        0.0000000000000000     
 PAO| ======================= Iteration:         5 =============================

     Lanczos converged:  T threshold:   0.100E-02
     Est. extremal eigenvalues:    0.263E+01   0.184E+00
     Est. condition number :    0.143E+02

 Order=           3
     NS sqrt iter    1 1.00000000   0.685E+00       0.001       58.807
     NS sqrt iter    2 1.00000000   0.311E+00       0.001       98.379
     NS sqrt iter    3 1.00000000   0.656E-01       0.001       99.738
     NS sqrt iter    4 1.00000000   0.134E-02       0.001       99.491
     NS sqrt iter    5 1.00000000   0.214E-07       0.001       54.348
     Symmetrizing Results
     Final NS sqrt iter    5 1.00000000   0.228E-08

     Est. extremal eigenvalues     -0.93433     1.67053  converged:  T
     TRS4 it   1 1.00000000   0.881E+00       0.000       16.128   0.100E-07
     TRS4 it   2 1.00000000   0.600E+00       0.001       32.256   0.100E-07
     TRS4 it   3 1.00000000   0.395E+00       0.001       32.256   0.100E-07
     TRS4 it   4 1.00000000   0.183E+00       0.001       32.256   0.100E-07
     TRS4 it   5 1.00000000   0.479E-01       0.001       32.256   0.100E-07
     TRS4 it   6 1.00000000   0.409E-02       0.001       32.256   0.100E-07
     TRS4 it   7 1.00000000   0.387E-04       0.001       32.256   0.100E-07
     TRS4 it   8 1.00000000   0.437E-08       0.001       32.256   0.100E-07
     Final TRS4 iteration    8 1.00000000   0.437E-08
     Chemical potential (mu):       0.03737
 
 PAO| energy:  -7.7120956979300352      penalty:   9.2433589234017631E-005
 PAO|LS| Need extra step
 PAO|LS| adapt:  T T T
 PAO|LS| adapt: scan_steps:    0.0000000000000000       0.40000000000000002       0.80000000000000004     
 PAO|LS| adapt: energies:   -7.6214333699545938       -7.7670978653468170       -7.7120956979300352     
 PAO|LS| adapt: suggested step_size:   0.49036112596513759     
 PAO|LS| adapt: predicted energy  -7.7722180841208681     
 PAO| ======================= Iteration:         6 =============================

     Lanczos converged:  T threshold:   0.100E-02
     Est. extremal eigenvalues:    0.290E+01   0.161E+00
     Est. condition number :    0.180E+02

 Order=           3
     NS sqrt iter    1 1.00000000   0.733E+00       0.001       59.763
     NS sqrt iter    2 1.00000000   0.358E+00       0.001       98.705
     NS sqrt iter    3 1.00000000   0.953E-01       0.001       99.764
     NS sqrt iter    4 1.00000000   0.371E-02       0.001      102.577
     NS sqrt iter    5 1.00000000   0.431E-06       0.001       77.284
     Symmetrizing Results
     Final NS sqrt iter    5 1.00000000   0.116E-09

     Est. extremal eigenvalues     -0.93463     1.73945  converged:  T
     TRS4 it   1 1.00000000   0.889E+00       0.000       16.128   0.100E-07
     TRS4 it   2 1.00000000   0.631E+00       0.001       32.256   0.100E-07
     TRS4 it   3 1.00000000   0.434E+00       0.001       32.256   0.100E-07
     TRS4 it   4 1.00000000   0.228E+00       0.001       32.256   0.100E-07
     TRS4 it   5 1.00000000   0.784E-01       0.001       32.256   0.100E-07
     TRS4 it   6 1.00000000   0.118E-01       0.001       32.256   0.100E-07
     TRS4 it   7 1.00000000   0.363E-03       0.001       32.256   0.100E-07
     TRS4 it   8 1.00000000   0.493E-06       0.001       32.256   0.100E-07
     TRS4 it   9 1.00000000   0.107E-11       0.001       32.256   0.100E-07
     Final TRS4 iteration    9 1.00000000   0.107E-11
     Chemical potential (mu):       0.00139
 
 PAO| energy:  -7.7714668129098463      penalty:   1.3047702583510138E-005
 PAO|CG| warming up with steepest descent
 PAO|CG| beta:    0.0000000000000000     
 PAO| norm of gradient:  0.41561270081641649     
 PAO| energy improvement: -0.15003344295525256     
 PAO| step      6                   -7.771466813  0.260E-01  0.490E+00     0.092
 PAO|LS| adapt:  T F F
 PAO|LS| adapt: scan_steps:    0.0000000000000000        0.0000000000000000        0.0000000000000000     
 PAO|LS| adapt: energies:   -7.7714668129098463        0.0000000000000000        0.0000000000000000     
 PAO| ======================= Iteration:         7 =============================

     Lanczos converged:  T threshold:   0.100E-02
     Est. extremal eigenvalues:    0.281E+01   0.174E+00
     Est. condition number :    0.161E+02

 Order=           3
     NS sqrt iter    1 1.00000000   0.716E+00       0.001       59.068
     NS sqrt iter    2 1.00000000   0.337E+00       0.001      100.482
     NS sqrt iter    3 1.00000000   0.798E-01       0.001       99.599
     NS sqrt iter    4 1.00000000   0.228E-02       0.001       99.865
     NS sqrt iter    5 1.00000000   0.112E-06       0.001       73.300
     Symmetrizing Results
     Final NS sqrt iter    5 1.00000000   0.953E-09

     Est. extremal eigenvalues     -0.93635     1.72579  converged:  T
     TRS4 it   1 1.00000000   0.888E+00       0.000       16.128   0.100E-07
     TRS4 it   2 1.00000000   0.629E+00       0.001       32.256   0.100E-07
     TRS4 it   3 1.00000000   0.434E+00       0.001       32.256   0.100E-07
     TRS4 it   4 1.00000000   0.229E+00       0.001       32.256   0.100E-07
     TRS4 it   5 1.00000000   0.792E-01       0.001       32.256   0.100E-07
     TRS4 it   6 1.00000000   0.118E-01       0.001       32.256   0.100E-07
     TRS4 it   7 1.00000000   0.345E-03       0.001       32.256   0.100E-07
     TRS4 it   8 1.00000000   0.427E-06       0.001       32.256   0.100E-07
     TRS4 it   9 1.00000000   0.794E-12       0.001       32.256   0.100E-07
     Final TRS4 iteration    9 1.00000000   0.794E-12
     Chemical potential (mu):       0.00280
 
 PAO| energy:  -7.7657799092799475      penalty:   1.9650801495334355E-005
 PAO|LS| adapt:  T F T
 PAO|LS| adapt: scan_steps:    0.0000000000000000        0.0000000000000000       0.49036112596513759     
 PAO|LS| adapt: energies:   -7.7714668129098463        0.0000000000000000       -7.7657799092799475     
 PAO| ======================= Iteration:         8 =============================

     Lanczos converged:  T threshold:   0.100E-02
     Est. extremal eigenvalues:    0.286E+01   0.168E+00
     Est. condition number :    0.171E+02

 Order=           3
     NS sqrt iter    1 1.00000000   0.724E+00       0.001       58.795
     NS sqrt iter    2 1.00000000   0.348E+00       0.001       98.712
     NS sqrt iter    3 1.00000000   0.874E-01       0.001       99.125
     NS sqrt iter    4 1.00000000   0.292E-02       0.001       99.504
     NS sqrt iter    5 1.00000000   0.223E-06       0.001       73.226
     Symmetrizing Results
     Final NS sqrt iter    5 1.00000000   0.736E-09

     Est. extremal eigenvalues     -0.93645     1.73199  converged:  T
     TRS4 it   1 1.00000000   0.888E+00       0.000       16.128   0.100E-07
     TRS4 it   2 1.00000000   0.630E+00       0.001       32.256   0.100E-07
     TRS4 it   3 1.00000000   0.433E+00       0.001       32.256   0.100E-07
     TRS4 it   4 1.00000000   0.228E+00       0.001       32.256   0.100E-07
     TRS4 it   5 1.00000000   0.786E-01       0.001       32.256   0.100E-07
     TRS4 it   6 1.00000000   0.118E-01       0.001       32.256   0.100E-07
     TRS4 it   7 1.00000000   0.363E-03       0.001       32.256   0.100E-07
     TRS4 it   8 1.00000000   0.489E-06       0.001       32.256   0.100E-07
     TRS4 it   9 1.00000000   0.105E-11       0.001       32.256   0.100E-07
     Final TRS4 iteration    9 1.00000000   0.105E-11
     Chemical potential (mu):       0.00160
 
 PAO| energy:  -7.7909884176176050      penalty:   1.4128679085809684E-005
 PAO|LS| adapt:  T T T
 PAO|LS| adapt: scan_steps:    0.0000000000000000       0.24518056298256879       0.49036112596513759     
 PAO|LS| adapt: energies:   -7.7714668129098463       -7.7909884176176050       -7.7657799092799475     
 PAO|LS| adapt: suggested step_size:   0.22959466191195785     
 PAO|LS| adapt: predicted energy  -7.7910787954153955     
 PAO| ======================= Iteration:         9 =============================

     Lanczos converged:  T threshold:   0.100E-02
     Est. extremal eigenvalues:    0.286E+01   0.167E+00
     Est. condition number :    0.171E+02

 Order=           3
     NS sqrt iter    1 1.00000000   0.725E+00       0.001       58.975
     NS sqrt iter    2 1.00000000   0.348E+00       0.001       99.946
     NS sqrt iter    3 1.00000000   0.879E-01       0.001       99.626
     NS sqrt iter    4 1.00000000   0.297E-02       0.001      101.196
     NS sqrt iter    5 1.00000000   0.233E-06       0.001       76.893
     Symmetrizing Results
     Final NS sqrt iter    5 1.00000000   0.705E-09

     Est. extremal eigenvalues     -0.93639     1.73243  converged:  T
     TRS4 it   1 1.00000000   0.888E+00       0.000       16.128   0.100E-07
     TRS4 it   2 1.00000000   0.630E+00       0.001       32.256   0.100E-07
     TRS4 it   3 1.00000000   0.433E+00       0.001       32.256   0.100E-07
     TRS4 it   4 1.00000000   0.228E+00       0.001       32.256   0.100E-07
     TRS4 it   5 1.00000000   0.786E-01       0.001       32.256   0.100E-07
     TRS4 it   6 1.00000000   0.118E-01       0.001       32.256   0.100E-07
     TRS4 it   7 1.00000000   0.364E-03       0.001       32.256   0.100E-07
     TRS4 it   8 1.00000000   0.491E-06       0.001       32.256   0.100E-07
     TRS4 it   9 1.00000000   0.106E-11       0.001       32.256   0.100E-07
     Final TRS4 iteration    9 1.00000000   0.106E-11
     Chemical potential (mu):       0.00155
 
 PAO| energy:  -7.7911015948855908      penalty:   1.3964500338162954E-005
 PAO|CG| trace_G_new    3.6525072979363069E-002
 PAO|CG| trace_G_prev   0.17273391707991612     
 PAO|CG| trace_G_mix   -1.4173717427443276E-003
 PAO|CG| trace_D   0.17273391707991612     
 PAO|CG| trace_D_Gnew   1.4173717427443276E-003
 PAO|CG| beta:   0.21965833556911207     
 PAO| norm of gradient:  0.19111533946641507     
 PAO| energy improvement:  -1.9634781975744531E-002
 PAO| step      9                   -7.791101595  0.119E-01  0.230E+00     0.058
 PAO|LS| adapt:  T F F
 PAO|LS| adapt: scan_steps:    0.0000000000000000        0.0000000000000000        0.0000000000000000     
 PAO|LS| adapt: energies:   -7.7911015948855908        0.0000000000000000        0.0000000000000000     
 PAO| ======================= Iteration:        10 =============================

     Lanczos converged:  T threshold:   0.100E-02
     Est. extremal eigenvalues:    0.282E+01   0.173E+00
     Est. condition number :    0.163E+02

 Order=           3
     NS sqrt iter    1 1.00000000   0.717E+00       0.001       58.041
     NS sqrt iter    2 1.00000000   0.340E+00       0.001       99.964
     NS sqrt iter    3 1.00000000   0.823E-01       0.001       99.853
     NS sqrt iter    4 1.00000000   0.244E-02       0.001       99.323
     NS sqrt iter    5 1.00000000   0.128E-06       0.001       72.502
     Symmetrizing Results
     Final NS sqrt iter    5 1.00000000   0.107E-08

     Est. extremal eigenvalues     -0.93727     1.72328  converged:  T
     TRS4 it   1 1.00000000   0.885E+00       0.000       16.128   0.100E-07
     TRS4 it   2 1.00000000   0.627E+00       0.001       32.256   0.100E-07
     TRS4 it   3 1.00000000   0.430E+00       0.001       32.256   0.100E-07
     TRS4 it   4 1.00000000   0.224E+00       0.001       32.256   0.100E-07
     TRS4 it   5 1.00000000   0.761E-01       0.001       32.256   0.100E-07
     TRS4 it   6 1.00000000   0.110E-01       0.001       32.256   0.100E-07
     TRS4 it   7 1.00000000   0.313E-03       0.001       32.256   0.100E-07
     TRS4 it   8 1.00000000   0.354E-06       0.001       32.256   0.100E-07
     TRS4 it   9 1.00000000   0.546E-12       0.001       32.256   0.100E-07
     Final TRS4 iteration    9 1.00000000   0.546E-12
     Chemical potential (mu):       0.00462
 
 PAO| energy:  -7.7960694010538729      penalty:   1.4492271815841676E-005
 PAO|LS| adapt:  T T F
 PAO|LS| adapt: scan_steps:    0.0000000000000000       0.22959466191195785        0.0000000000000000     
 PAO|LS| adapt: energies:   -7.7911015948855908       -7.7960694010538729        0.0000000000000000     
 PAO| ======================= Iteration:        11 =============================

     Lanczos converged:  T threshold:   0.100E-02
     Est. extremal eigenvalues:    0.279E+01   0.179E+00
     Est. condition number :    0.155E+02

 Order=           3
     NS sqrt iter    1 1.00000000   0.709E+00       0.001       59.263
     NS sqrt iter    2 1.00000000   0.332E+00       0.001      100.447
     NS sqrt iter    3 1.00000000   0.769E-01       0.001      100.117
     NS sqrt iter    4 1.00000000   0.200E-02       0.001       99.375
     NS sqrt iter    5 1.00000000   0.692E-07       0.001       69.036
     Symmetrizing Results
     Final NS sqrt iter    5 1.00000000   0.548E-09

     Est. extremal eigenvalues     -0.93718     1.71514  converged:  T
     TRS4 it   1 1.00000000   0.882E+00       0.000       16.128   0.100E-07
     TRS4 it   2 1.00000000   0.625E+00       0.001       32.256   0.100E-07
     TRS4 it   3 1.00000000   0.428E+00       0.001       32.256   0.100E-07
     TRS4 it   4 1.00000000   0.221E+00       0.001       32.256   0.100E-07
     TRS4 it   5 1.00000000   0.736E-01       0.001       32.256   0.100E-07
     TRS4 it   6 1.00000000   0.103E-01       0.001       32.256   0.100E-07
     TRS4 it   7 1.00000000   0.267E-03       0.001       32.256   0.100E-07
     TRS4 it   8 1.00000000   0.251E-06       0.001       32.256   0.100E-07
     TRS4 it   9 1.00000000   0.272E-12       0.001       32.256   0.100E-07
     Final TRS4 iteration    9 1.00000000   0.272E-12
     Chemical potential (mu):       0.00782
 
 PAO| energy:  -7.7945879970056318      penalty:   1.5680206854805927E-005
 PAO|LS| adapt:  T T T
 PAO|LS| adapt: scan_steps:    0.0000000000000000       0.22959466191195785       0.45918932382391570     
 PAO|LS| adapt: energies:   -7.7911015948855908       -7.7960694010538729       -7.7945879970056318     
 PAO|LS| adapt: suggested step_size:   0.29165337058834034     
 PAO|LS| adapt: predicted energy  -7.7963049919117946     
 PAO| ======================= Iteration:        12 =============================

     Lanczos converged:  T threshold:   0.100E-02
     Est. extremal eigenvalues:    0.281E+01   0.175E+00
     Est. condition number :    0.161E+02

 Order=           3
     NS sqrt iter    1 1.00000000   0.715E+00       0.001       58.522
     NS sqrt iter    2 1.00000000   0.338E+00       0.001       98.234
     NS sqrt iter    3 1.00000000   0.808E-01       0.001       99.874
     NS sqrt iter    4 1.00000000   0.231E-02       0.001      101.903
     NS sqrt iter    5 1.00000000   0.109E-06       0.001       73.619
     Symmetrizing Results
     Final NS sqrt iter    5 1.00000000   0.901E-09

     Est. extremal eigenvalues     -0.93734     1.72098  converged:  T
     TRS4 it   1 1.00000000   0.884E+00       0.000       16.128   0.100E-07
     TRS4 it   2 1.00000000   0.626E+00       0.001       32.256   0.100E-07
     TRS4 it   3 1.00000000   0.430E+00       0.001       32.256   0.100E-07
     TRS4 it   4 1.00000000   0.223E+00       0.001       32.256   0.100E-07
     TRS4 it   5 1.00000000   0.754E-01       0.001       32.256   0.100E-07
     TRS4 it   6 1.00000000   0.108E-01       0.001       32.256   0.100E-07
     TRS4 it   7 1.00000000   0.300E-03       0.001       32.256   0.100E-07
     TRS4 it   8 1.00000000   0.323E-06       0.001       32.256   0.100E-07
     TRS4 it   9 1.00000000   0.454E-12       0.001       32.256   0.100E-07
     Final TRS4 iteration    9 1.00000000   0.454E-12
     Chemical potential (mu):       0.00547
 
 PAO| energy:  -7.7962892761745630      penalty:   1.4740923399697563E-005
 PAO|CG| trace_G_new    1.1674553695349119E-002
 PAO|CG| trace_G_prev    3.6525072979363069E-002
 PAO|CG| trace_G_mix   -4.6212815472892175E-004
 PAO|CG| trace_D    4.4236772198656397E-002
 PAO|CG| trace_D_Gnew   2.1453464162411446E-004
 PAO|CG| beta:   0.33228357563954369     
 PAO| norm of gradient:  0.10804884865351004     
 PAO| energy improvement:  -5.1876812889721791E-003
 PAO| step     12                   -7.796289276  0.675E-02  0.292E+00     0.058
 PAO|LS| adapt:  T F F
 PAO|LS| adapt: scan_steps:    0.0000000000000000        0.0000000000000000        0.0000000000000000     
 PAO|LS| adapt: energies:   -7.7962892761745630        0.0000000000000000        0.0000000000000000     
 PAO| ======================= Iteration:        13 =============================

     Lanczos converged:  T threshold:   0.100E-02
     Est. extremal eigenvalues:    0.278E+01   0.179E+00
     Est. condition number :    0.155E+02

 Order=           3
     NS sqrt iter    1 1.00000000   0.708E+00       0.001       59.228
     NS sqrt iter    2 1.00000000   0.331E+00       0.001       99.869
     NS sqrt iter    3 1.00000000   0.764E-01       0.001       99.095
     NS sqrt iter    4 1.00000000   0.197E-02       0.001       99.899
     NS sqrt iter    5 1.00000000   0.677E-07       0.001       69.496
     Symmetrizing Results
     Final NS sqrt iter    5 1.00000000   0.538E-09

     Est. extremal eigenvalues     -0.93782     1.71223  converged:  T
     TRS4 it   1 1.00000000   0.883E+00       0.000       16.128   0.100E-07
     TRS4 it   2 1.00000000   0.623E+00       0.001       32.256   0.100E-07
     TRS4 it   3 1.00000000   0.425E+00       0.001       32.256   0.100E-07
     TRS4 it   4 1.00000000   0.218E+00       0.001       32.256   0.100E-07
     TRS4 it   5 1.00000000   0.717E-01       0.001       32.256   0.100E-07
     TRS4 it   6 1.00000000   0.972E-02       0.001       32.256   0.100E-07
     TRS4 it   7 1.00000000   0.239E-03       0.001       32.256   0.100E-07
     TRS4 it   8 1.00000000   0.200E-06       0.001       32.256   0.100E-07
     TRS4 it   9 1.00000000   0.172E-12       0.001       32.256   0.100E-07
     Final TRS4 iteration    9 1.00000000   0.172E-12
     Chemical potential (mu):       0.00990
 
 PAO| energy:  -7.7983281536875735      penalty:   1.5029299578289992E-005
 PAO|LS| adapt:  T T F
 PAO|LS| adapt: scan_steps:    0.0000000000000000       0.29165337058834034        0.0000000000000000     
 PAO|LS| adapt: energies:   -7.7962892761745630       -7.7983281536875735        0.0000000000000000     
 PAO| ======================= Iteration:        14 =============================

     Lanczos converged:  T threshold:   0.100E-02
     Est. extremal eigenvalues:    0.274E+01   0.183E+00
     Est. condition number :    0.150E+02

 Order=           3
     NS sqrt iter    1 1.00000000   0.701E+00       0.001       59.102
     NS sqrt iter    2 1.00000000   0.324E+00       0.001       97.456
     NS sqrt iter    3 1.00000000   0.723E-01       0.001      100.833
     NS sqrt iter    4 1.00000000   0.168E-02       0.001      100.203
     NS sqrt iter    5 1.00000000   0.421E-07       0.001       65.699
     Symmetrizing Results
     Final NS sqrt iter    5 1.00000000   0.705E-09

     Est. extremal eigenvalues     -0.93781     1.70384  converged:  T
     TRS4 it   1 1.00000000   0.882E+00       0.000       16.128   0.100E-07
     TRS4 it   2 1.00000000   0.619E+00       0.001       32.256   0.100E-07
     TRS4 it   3 1.00000000   0.421E+00       0.001       32.256   0.100E-07
     TRS4 it   4 1.00000000   0.213E+00       0.001       32.256   0.100E-07
     TRS4 it   5 1.00000000   0.681E-01       0.001       32.256   0.100E-07
     TRS4 it   6 1.00000000   0.872E-02       0.001       32.256   0.100E-07
     TRS4 it   7 1.00000000   0.190E-03       0.001       32.256   0.100E-07
     TRS4 it   8 1.00000000   0.124E-06       0.001       32.256   0.100E-07
     TRS4 it   9 1.00000000   0.637E-13       0.001       32.256   0.100E-07
     Final TRS4 iteration    9 1.00000000   0.637E-13
     Chemical potential (mu):       0.01425
 
 PAO| energy:  -7.7977249360785068      penalty:   1.5781702162834197E-005
 PAO|LS| adapt:  T T T
 PAO|LS| adapt: scan_steps:    0.0000000000000000       0.29165337058834034       0.58330674117668069     
 PAO|LS| adapt: energies:   -7.7962892761745630       -7.7983281536875735       -7.7977249360785068     
 PAO|LS| adapt: suggested step_size:   0.37089257861400698     
 PAO|LS| adapt: predicted energy  -7.7984256671789769     
 PAO| ======================= Iteration:        15 =============================

     Lanczos converged:  T threshold:   0.100E-02
     Est. extremal eigenvalues:    0.277E+01   0.180E+00
     Est. condition number :    0.154E+02

 Order=           3
     NS sqrt iter    1 1.00000000   0.706E+00       0.001       57.587
     NS sqrt iter    2 1.00000000   0.329E+00       0.001       98.862
     NS sqrt iter    3 1.00000000   0.753E-01       0.001       98.205
     NS sqrt iter    4 1.00000000   0.189E-02       0.001      101.070
     NS sqrt iter    5 1.00000000   0.595E-07       0.001       69.046
     Symmetrizing Results
     Final NS sqrt iter    5 1.00000000   0.508E-09

     Est. extremal eigenvalues     -0.93786     1.70992  converged:  T
     TRS4 it   1 1.00000000   0.883E+00       0.000       16.128   0.100E-07
     TRS4 it   2 1.00000000   0.622E+00       0.001       32.256   0.100E-07
     TRS4 it   3 1.00000000   0.424E+00       0.001       32.256   0.100E-07
     TRS4 it   4 1.00000000   0.217E+00       0.001       32.256   0.100E-07
     TRS4 it   5 1.00000000   0.707E-01       0.001       32.256   0.100E-07
     TRS4 it   6 1.00000000   0.943E-02       0.001       32.256   0.100E-07
     TRS4 it   7 1.00000000   0.224E-03       0.001       32.256   0.100E-07
     TRS4 it   8 1.00000000   0.176E-06       0.001       32.256   0.100E-07
     TRS4 it   9 1.00000000   0.132E-12       0.001       32.256   0.100E-07
     Final TRS4 iteration    9 1.00000000   0.132E-12
     Chemical potential (mu):       0.01109
 
 PAO| energy:  -7.7984225939599057      penalty:   1.5184801020162295E-005
 PAO|CG| trace_G_new    2.5968879795114416E-003
 PAO|CG| trace_G_prev    1.1674553695349119E-002
 PAO|CG| trace_G_mix    6.4592635387813782E-005
 PAO|CG| trace_D    1.6416268084567857E-002
 PAO|CG| trace_D_Gnew   3.2673512461783922E-005
 PAO|CG| beta:   0.21690725060714208     
 PAO| norm of gradient:   5.0959670127576781E-002
 PAO| energy improvement:  -2.1333177853426477E-003
 PAO| step     15                   -7.798422594  0.318E-02  0.371E+00     0.058
 PAO|LS| adapt:  T F F
 PAO|LS| adapt: scan_steps:    0.0000000000000000        0.0000000000000000        0.0000000000000000     
 PAO|LS| adapt: energies:   -7.7984225939599057        0.0000000000000000        0.0000000000000000     
 PAO| ======================= Iteration:        16 =============================

     Lanczos converged:  T threshold:   0.100E-02
     Est. extremal eigenvalues:    0.276E+01   0.181E+00
     Est. condition number :    0.153E+02

 Order=           3
     NS sqrt iter    1 1.00000000   0.704E+00       0.001       59.942
     NS sqrt iter    2 1.00000000   0.328E+00       0.001      100.266
     NS sqrt iter    3 1.00000000   0.746E-01       0.001      100.470
     NS sqrt iter    4 1.00000000   0.183E-02       0.001       99.659
     NS sqrt iter    5 1.00000000   0.545E-07       0.001       68.278
     Symmetrizing Results
     Final NS sqrt iter    5 1.00000000   0.448E-09

     Est. extremal eigenvalues     -0.93789     1.70849  converged:  T
     TRS4 it   1 1.00000000   0.883E+00       0.000       16.128   0.100E-07
     TRS4 it   2 1.00000000   0.621E+00       0.001       32.256   0.100E-07
     TRS4 it   3 1.00000000   0.423E+00       0.001       32.256   0.100E-07
     TRS4 it   4 1.00000000   0.215E+00       0.001       32.256   0.100E-07
     TRS4 it   5 1.00000000   0.694E-01       0.001       32.256   0.100E-07
     TRS4 it   6 1.00000000   0.912E-02       0.001       32.256   0.100E-07
     TRS4 it   7 1.00000000   0.211E-03       0.001       32.256   0.100E-07
     TRS4 it   8 1.00000000   0.157E-06       0.001       32.256   0.100E-07
     TRS4 it   9 1.00000000   0.105E-12       0.001       32.256   0.100E-07
     Final TRS4 iteration    9 1.00000000   0.105E-12
     Chemical potential (mu):       0.01189
 
 PAO| energy:  -7.7985456859982198      penalty:   1.4961770616567364E-005
 PAO|LS| adapt:  T T F
 PAO|LS| adapt: scan_steps:    0.0000000000000000       0.37089257861400698        0.0000000000000000     
 PAO|LS| adapt: energies:   -7.7984225939599057       -7.7985456859982198        0.0000000000000000     
 PAO| ======================= Iteration:        17 =============================

     Lanczos converged:  T threshold:   0.100E-02
     Est. extremal eigenvalues:    0.275E+01   0.181E+00
     Est. condition number :    0.152E+02

 Order=           3
     NS sqrt iter    1 1.00000000   0.702E+00       0.001       58.634
     NS sqrt iter    2 1.00000000   0.326E+00       0.001       99.207
     NS sqrt iter    3 1.00000000   0.739E-01       0.001       99.161
     NS sqrt iter    4 1.00000000   0.178E-02       0.001       97.779
     NS sqrt iter    5 1.00000000   0.500E-07       0.001       67.589
     Symmetrizing Results
     Final NS sqrt iter    5 1.00000000   0.458E-09

     Est. extremal eigenvalues     -0.93780     1.70711  converged:  T
     TRS4 it   1 1.00000000   0.883E+00       0.000       16.128   0.100E-07
     TRS4 it   2 1.00000000   0.620E+00       0.001       32.256   0.100E-07
     TRS4 it   3 1.00000000   0.421E+00       0.001       32.256   0.100E-07
     TRS4 it   4 1.00000000   0.213E+00       0.001       32.256   0.100E-07
     TRS4 it   5 1.00000000   0.682E-01       0.001       32.256   0.100E-07
     TRS4 it   6 1.00000000   0.882E-02       0.001       32.256   0.100E-07
     TRS4 it   7 1.00000000   0.198E-03       0.001       32.256   0.100E-07
     TRS4 it   8 1.00000000   0.140E-06       0.001       32.256   0.100E-07
     TRS4 it   9 1.00000000   0.844E-13       0.001       32.256   0.100E-07
     Final TRS4 iteration    9 1.00000000   0.844E-13
     Chemical potential (mu):       0.01268
 
 PAO| energy:  -7.7969886780915880      penalty:   1.4863694799440453E-005
 PAO|LS| adapt:  T T T
 PAO|LS| adapt: scan_steps:    0.0000000000000000       0.37089257861400698       0.74178515722801397     
 PAO|LS| adapt: energies:   -7.7984225939599057       -7.7985456859982198       -7.7969886780915880     
 PAO|LS| adapt: suggested step_size:   0.21261962719950989     
 PAO|LS| adapt: predicted energy  -7.7986986616235390     
 PAO| ======================= Iteration:        18 =============================

     Lanczos converged:  T threshold:   0.100E-02
     Est. extremal eigenvalues:    0.276E+01   0.181E+00
     Est. condition number :    0.153E+02

 Order=           3
     NS sqrt iter    1 1.00000000   0.705E+00       0.001       60.358
     NS sqrt iter    2 1.00000000   0.328E+00       0.001       99.575
     NS sqrt iter    3 1.00000000   0.749E-01       0.001       98.280
     NS sqrt iter    4 1.00000000   0.186E-02       0.001      102.379
     NS sqrt iter    5 1.00000000   0.565E-07       0.001       68.340
     Symmetrizing Results
     Final NS sqrt iter    5 1.00000000   0.444E-09

     Est. extremal eigenvalues     -0.93790     1.70909  converged:  T
     TRS4 it   1 1.00000000   0.883E+00       0.000       16.128   0.100E-07
     TRS4 it   2 1.00000000   0.621E+00       0.001       32.256   0.100E-07
     TRS4 it   3 1.00000000   0.423E+00       0.001       32.256   0.100E-07
     TRS4 it   4 1.00000000   0.216E+00       0.001       32.256   0.100E-07
     TRS4 it   5 1.00000000   0.699E-01       0.001       32.256   0.100E-07
     TRS4 it   6 1.00000000   0.925E-02       0.001       32.256   0.100E-07
     TRS4 it   7 1.00000000   0.216E-03       0.001       32.256   0.100E-07
     TRS4 it   8 1.00000000   0.165E-06       0.001       32.256   0.100E-07
     TRS4 it   9 1.00000000   0.116E-12       0.001       32.256   0.100E-07
     Final TRS4 iteration    9 1.00000000   0.116E-12
     Chemical potential (mu):       0.01155
 
 PAO| energy:  -7.7986982337163600      penalty:   1.5041940608178686E-005
 PAO|CG| trace_G_new    7.1173126730264622E-004
 PAO|CG| trace_G_prev    2.5968879795114416E-003
 PAO|CG| trace_G_mix    9.5968924853897539E-007
 PAO|CG| trace_D    3.3550787171325916E-003
 PAO|CG| trace_D_Gnew  -1.6279280359885419E-006
 PAO|CG| beta:   0.27370128540847816     
 PAO| norm of gradient:   2.6678292061199236E-002
 PAO| energy improvement:  -2.7563975645428229E-004
 PAO| step     18                   -7.798698234  0.167E-02  0.213E+00     0.058
 PAO|LS| adapt:  T F F
 PAO|LS| adapt: scan_steps:    0.0000000000000000        0.0000000000000000        0.0000000000000000     
 PAO|LS| adapt: energies:   -7.7986982337163600        0.0000000000000000        0.0000000000000000     
 PAO| ======================= Iteration:        19 =============================

     Lanczos converged:  T threshold:   0.100E-02
     Est. extremal eigenvalues:    0.276E+01   0.180E+00
     Est. condition number :    0.153E+02

 Order=           3
     NS sqrt iter    1 1.00000000   0.705E+00       0.001       59.409
     NS sqrt iter    2 1.00000000   0.328E+00       0.001       99.930
     NS sqrt iter    3 1.00000000   0.751E-01       0.001      100.566
     NS sqrt iter    4 1.00000000   0.187E-02       0.001       99.950
     NS sqrt iter    5 1.00000000   0.574E-07       0.001       69.172
     Symmetrizing Results
     Final NS sqrt iter    5 1.00000000   0.426E-09

     Est. extremal eigenvalues     -0.93790     1.70928  converged:  T
     TRS4 it   1 1.00000000   0.883E+00       0.000       16.128   0.100E-07
     TRS4 it   2 1.00000000   0.621E+00       0.001       32.256   0.100E-07
     TRS4 it   3 1.00000000   0.423E+00       0.001       32.256   0.100E-07
     TRS4 it   4 1.00000000   0.216E+00       0.001       32.256   0.100E-07
     TRS4 it   5 1.00000000   0.699E-01       0.001       32.256   0.100E-07
     TRS4 it   6 1.00000000   0.925E-02       0.001       32.256   0.100E-07
     TRS4 it   7 1.00000000   0.217E-03       0.001       32.256   0.100E-07
     TRS4 it   8 1.00000000   0.167E-06       0.001       32.256   0.100E-07
     TRS4 it   9 1.00000000   0.120E-12       0.001       32.256   0.100E-07
     Final TRS4 iteration    9 1.00000000   0.120E-12
     Chemical potential (mu):       0.01125
 
 PAO| energy:  -7.7988137038048073      penalty:   1.4753499809448131E-005
 PAO|LS| adapt:  T T F
 PAO|LS| adapt: scan_steps:    0.0000000000000000       0.21261962719950989        0.0000000000000000     
 PAO|LS| adapt: energies:   -7.7986982337163600       -7.7988137038048073        0.0000000000000000     
 PAO| ======================= Iteration:        20 =============================

     Lanczos converged:  T threshold:   0.100E-02
     Est. extremal eigenvalues:    0.276E+01   0.180E+00
     Est. condition number :    0.153E+02

 Order=           3
     NS sqrt iter    1 1.00000000   0.704E+00       0.001       58.540
     NS sqrt iter    2 1.00000000   0.329E+00       0.001       99.782
     NS sqrt iter    3 1.00000000   0.753E-01       0.001       98.114
     NS sqrt iter    4 1.00000000   0.188E-02       0.001       99.187
     NS sqrt iter    5 1.00000000   0.583E-07       0.001       67.964
     Symmetrizing Results
     Final NS sqrt iter    5 1.00000000   0.513E-09

     Est. extremal eigenvalues     -0.93789     1.70948  converged:  T
     TRS4 it   1 1.00000000   0.883E+00       0.000       16.128   0.100E-07
     TRS4 it   2 1.00000000   0.621E+00       0.001       32.256   0.100E-07
     TRS4 it   3 1.00000000   0.423E+00       0.001       32.256   0.100E-07
     TRS4 it   4 1.00000000   0.216E+00       0.001       32.256   0.100E-07
     TRS4 it   5 1.00000000   0.698E-01       0.001       32.256   0.100E-07
     TRS4 it   6 1.00000000   0.924E-02       0.001       32.256   0.100E-07
     TRS4 it   7 1.00000000   0.218E-03       0.001       32.256   0.100E-07
     TRS4 it   8 1.00000000   0.170E-06       0.001       32.256   0.100E-07
     TRS4 it   9 1.00000000   0.126E-12       0.001       32.256   0.100E-07
     Final TRS4 iteration    9 1.00000000   0.126E-12
     Chemical potential (mu):       0.01095
 
 PAO| energy:  -7.7988569054784911      penalty:   1.4477301068991624E-005
 PAO|LS| adapt:  T T F
 PAO|LS| adapt: scan_steps:    0.0000000000000000       0.42523925439901977        0.0000000000000000     
 PAO|LS| adapt: energies:   -7.7986982337163600       -7.7988569054784911        0.0000000000000000     
 PAO| ======================= Iteration:        21 =============================

     Lanczos converged:  T threshold:   0.100E-02
     Est. extremal eigenvalues:    0.276E+01   0.180E+00
     Est. condition number :    0.154E+02

 Order=           3
     NS sqrt iter    1 1.00000000   0.704E+00       0.001       59.194
     NS sqrt iter    2 1.00000000   0.329E+00       0.001       99.350
     NS sqrt iter    3 1.00000000   0.757E-01       0.001      100.927
     NS sqrt iter    4 1.00000000   0.190E-02       0.001       99.728
     NS sqrt iter    5 1.00000000   0.603E-07       0.001       68.441
     Symmetrizing Results
     Final NS sqrt iter    5 1.00000000   0.500E-09

     Est. extremal eigenvalues     -0.93789     1.70988  converged:  T
     TRS4 it   1 1.00000000   0.883E+00       0.000       16.128   0.100E-07
     TRS4 it   2 1.00000000   0.621E+00       0.001       32.256   0.100E-07
     TRS4 it   3 1.00000000   0.423E+00       0.001       32.256   0.100E-07
     TRS4 it   4 1.00000000   0.215E+00       0.001       32.256   0.100E-07
     TRS4 it   5 1.00000000   0.696E-01       0.001       32.256   0.100E-07
     TRS4 it   6 1.00000000   0.923E-02       0.001       32.256   0.100E-07
     TRS4 it   7 1.00000000   0.220E-03       0.001       32.256   0.100E-07
     TRS4 it   8 1.00000000   0.176E-06       0.001       32.256   0.100E-07
     TRS4 it   9 1.00000000   0.135E-12       0.001       32.256   0.100E-07
     Final TRS4 iteration    9 1.00000000   0.135E-12
     Chemical potential (mu):       0.01033
 
 PAO| energy:  -7.7987242451818704      penalty:   1.3961045159754527E-005
 PAO|LS| Need extra step
 PAO|LS| adapt:  T T T
 PAO|LS| adapt: scan_steps:    0.0000000000000000       0.42523925439901977       0.85047850879803955     
 PAO|LS| adapt: energies:   -7.7986982337163600       -7.7988569054784911       -7.7987242451818704     
 PAO|LS| adapt: suggested step_size:   0.44422291216544735     
 PAO|LS| adapt: predicted energy  -7.7988571957813937     
 PAO| ======================= Iteration:        22 =============================

     Lanczos converged:  T threshold:   0.100E-02
     Est. extremal eigenvalues:    0.276E+01   0.180E+00
     Est. condition number :    0.153E+02

 Order=           3
     NS sqrt iter    1 1.00000000   0.704E+00       0.001       59.609
     NS sqrt iter    2 1.00000000   0.329E+00       0.001      100.085
     NS sqrt iter    3 1.00000000   0.753E-01       0.001       99.497
     NS sqrt iter    4 1.00000000   0.188E-02       0.001      102.079
     NS sqrt iter    5 1.00000000   0.584E-07       0.001       69.717
     Symmetrizing Results
     Final NS sqrt iter    5 1.00000000   0.514E-09

     Est. extremal eigenvalues     -0.93789     1.70949  converged:  T
     TRS4 it   1 1.00000000   0.883E+00       0.000       16.128   0.100E-07
     TRS4 it   2 1.00000000   0.621E+00       0.001       32.256   0.100E-07
     TRS4 it   3 1.00000000   0.423E+00       0.001       32.256   0.100E-07
     TRS4 it   4 1.00000000   0.216E+00       0.001       32.256   0.100E-07
     TRS4 it   5 1.00000000   0.698E-01       0.001       32.256   0.100E-07
     TRS4 it   6 1.00000000   0.924E-02       0.001       32.256   0.100E-07
     TRS4 it   7 1.00000000   0.218E-03       0.001       32.256   0.100E-07
     TRS4 it   8 1.00000000   0.170E-06       0.001       32.256   0.100E-07
     TRS4 it   9 1.00000000   0.126E-12       0.001       32.256   0.100E-07
     Final TRS4 iteration    9 1.00000000   0.126E-12
     Chemical potential (mu):       0.01092
 
 PAO| energy:  -7.7988572290125413      penalty:   1.4453230103041529E-005
 PAO|CG| trace_G_new    2.1516715301744566E-004
 PAO|CG| trace_G_prev    7.1173126730264622E-004
 PAO|CG| trace_G_mix    2.7886946778418052E-006
 PAO|CG| trace_D    9.6395937682639357E-004
 PAO|CG| trace_D_Gnew  -1.7438969453055940E-006
 PAO|CG| beta:   0.29839697663485554     
 PAO| norm of gradient:   1.4668577061782293E-002
 PAO| energy improvement:  -1.5899529618135233E-004
 PAO| step     22                   -7.798857229  0.917E-03  0.444E+00     0.075
 PAO|LS| adapt:  T F F
 PAO|LS| adapt: scan_steps:    0.0000000000000000        0.0000000000000000        0.0000000000000000     
 PAO|LS| adapt: energies:   -7.7988572290125413        0.0000000000000000        0.0000000000000000     
 PAO| ======================= Iteration:        23 =============================

     Lanczos converged:  T threshold:   0.100E-02
     Est. extremal eigenvalues:    0.277E+01   0.180E+00
     Est. condition number :    0.153E+02

 Order=           3
     NS sqrt iter    1 1.00000000   0.704E+00       0.001       58.985
     NS sqrt iter    2 1.00000000   0.329E+00       0.001       98.525
     NS sqrt iter    3 1.00000000   0.754E-01       0.001      100.105
     NS sqrt iter    4 1.00000000   0.188E-02       0.001       99.728
     NS sqrt iter    5 1.00000000   0.584E-07       0.001       68.165
     Symmetrizing Results
     Final NS sqrt iter    5 1.00000000   0.520E-09

     Est. extremal eigenvalues     -0.93789     1.70932  converged:  T
     TRS4 it   1 1.00000000   0.882E+00       0.000       16.128   0.100E-07
     TRS4 it   2 1.00000000   0.621E+00       0.001       32.256   0.100E-07
     TRS4 it   3 1.00000000   0.423E+00       0.001       32.256   0.100E-07
     TRS4 it   4 1.00000000   0.216E+00       0.001       32.256   0.100E-07
     TRS4 it   5 1.00000000   0.699E-01       0.001       32.256   0.100E-07
     TRS4 it   6 1.00000000   0.929E-02       0.001       32.256   0.100E-07
     TRS4 it   7 1.00000000   0.221E-03       0.001       32.256   0.100E-07
     TRS4 it   8 1.00000000   0.175E-06       0.001       32.256   0.100E-07
     TRS4 it   9 1.00000000   0.133E-12       0.001       32.256   0.100E-07
     Final TRS4 iteration    9 1.00000000   0.133E-12
     Chemical potential (mu):       0.01056
 
 PAO| energy:  -7.7989052767584459      penalty:   1.3775819959566073E-005
 PAO|LS| adapt:  T T F
 PAO|LS| adapt: scan_steps:    0.0000000000000000       0.44422291216544735        0.0000000000000000     
 PAO|LS| adapt: energies:   -7.7988572290125413       -7.7989052767584459        0.0000000000000000     
 PAO| ======================= Iteration:        24 =============================

     Lanczos converged:  T threshold:   0.100E-02
     Est. extremal eigenvalues:    0.277E+01   0.180E+00
     Est. condition number :    0.153E+02

 Order=           3
     NS sqrt iter    1 1.00000000   0.704E+00       0.001       59.049
     NS sqrt iter    2 1.00000000   0.329E+00       0.001       99.893
     NS sqrt iter    3 1.00000000   0.754E-01       0.001       99.706
     NS sqrt iter    4 1.00000000   0.188E-02       0.001       99.240
     NS sqrt iter    5 1.00000000   0.585E-07       0.001       68.270
     Symmetrizing Results
     Final NS sqrt iter    5 1.00000000   0.498E-09

     Est. extremal eigenvalues     -0.93789     1.70915  converged:  T
     TRS4 it   1 1.00000000   0.882E+00       0.000       16.128   0.100E-07
     TRS4 it   2 1.00000000   0.621E+00       0.001       32.256   0.100E-07
     TRS4 it   3 1.00000000   0.423E+00       0.001       32.256   0.100E-07
     TRS4 it   4 1.00000000   0.216E+00       0.001       32.256   0.100E-07
     TRS4 it   5 1.00000000   0.700E-01       0.001       32.256   0.100E-07
     TRS4 it   6 1.00000000   0.934E-02       0.001       32.256   0.100E-07
     TRS4 it   7 1.00000000   0.224E-03       0.001       32.256   0.100E-07
     TRS4 it   8 1.00000000   0.181E-06       0.001       32.256   0.100E-07
     TRS4 it   9 1.00000000   0.141E-12       0.001       32.256   0.100E-07
     Final TRS4 iteration    9 1.00000000   0.141E-12
     Chemical potential (mu):       0.01021
 
 PAO| energy:  -7.7988572084223735      penalty:   1.3126204687437284E-005
 PAO|LS| adapt:  T T T
 PAO|LS| adapt: scan_steps:    0.0000000000000000       0.44422291216544735       0.88844582433089470     
 PAO|LS| adapt: energies:   -7.7988572290125413       -7.7989052767584459       -7.7988572084223735     
 PAO|LS| adapt: suggested step_size:   0.44417533103172424     
 PAO|LS| adapt: predicted energy  -7.7989052767589984     
 PAO| ======================= Iteration:        25 =============================

     Lanczos converged:  T threshold:   0.100E-02
     Est. extremal eigenvalues:    0.277E+01   0.180E+00
     Est. condition number :    0.153E+02

 Order=           3
     NS sqrt iter    1 1.00000000   0.704E+00       0.001       59.297
     NS sqrt iter    2 1.00000000   0.329E+00       0.001       99.643
     NS sqrt iter    3 1.00000000   0.754E-01       0.001       98.680
     NS sqrt iter    4 1.00000000   0.188E-02       0.001      102.487
     NS sqrt iter    5 1.00000000   0.584E-07       0.001       68.776
     Symmetrizing Results
     Final NS sqrt iter    5 1.00000000   0.520E-09

     Est. extremal eigenvalues     -0.93789     1.70932  converged:  T
     TRS4 it   1 1.00000000   0.882E+00       0.000       16.128   0.100E-07
     TRS4 it   2 1.00000000   0.621E+00       0.001       32.256   0.100E-07
     TRS4 it   3 1.00000000   0.423E+00       0.001       32.256   0.100E-07
     TRS4 it   4 1.00000000   0.216E+00       0.001       32.256   0.100E-07
     TRS4 it   5 1.00000000   0.699E-01       0.001       32.256   0.100E-07
     TRS4 it   6 1.00000000   0.929E-02       0.001       32.256   0.100E-07
     TRS4 it   7 1.00000000   0.221E-03       0.001       32.256   0.100E-07
     TRS4 it   8 1.00000000   0.175E-06       0.001       32.256   0.100E-07
     TRS4 it   9 1.00000000   0.133E-12       0.001       32.256   0.100E-07
     Final TRS4 iteration    9 1.00000000   0.133E-12
     Chemical potential (mu):       0.01056
 
 PAO| energy:  -7.7989052767433389      penalty:   1.3775891018466738E-005
 PAO|CG| trace_G_new    7.5559064612878009E-005
 PAO|CG| trace_G_prev    2.1516715301744566E-004
 PAO|CG| trace_G_mix    6.3328994757988341E-007
 PAO|CG| trace_D    3.0203957151234302E-004
 PAO|CG| trace_D_Gnew  -3.2931005631919549E-007
 PAO|CG| beta:   0.34822124852496972     
 PAO| norm of gradient:   8.6924717205682078E-003
 PAO| energy improvement:  -4.8047730797584620E-005
 PAO| step     25                   -7.798905277  0.543E-03  0.444E+00     0.058
 PAO|LS| adapt:  T F F
 PAO|LS| adapt: scan_steps:    0.0000000000000000        0.0000000000000000        0.0000000000000000     
 PAO|LS| adapt: energies:   -7.7989052767433389        0.0000000000000000        0.0000000000000000     
 PAO| ======================= Iteration:        26 =============================

     Lanczos converged:  T threshold:   0.100E-02
     Est. extremal eigenvalues:    0.276E+01   0.180E+00
     Est. condition number :    0.153E+02

 Order=           3
     NS sqrt iter    1 1.00000000   0.704E+00       0.001       58.918
     NS sqrt iter    2 1.00000000   0.328E+00       0.001       99.156
     NS sqrt iter    3 1.00000000   0.753E-01       0.001      100.277
     NS sqrt iter    4 1.00000000   0.187E-02       0.001       99.466
     NS sqrt iter    5 1.00000000   0.576E-07       0.001       67.938
     Symmetrizing Results
     Final NS sqrt iter    5 1.00000000   0.513E-09

     Est. extremal eigenvalues     -0.93790     1.70879  converged:  T
     TRS4 it   1 1.00000000   0.882E+00       0.000       16.128   0.100E-07
     TRS4 it   2 1.00000000   0.621E+00       0.001       32.256   0.100E-07
     TRS4 it   3 1.00000000   0.423E+00       0.001       32.256   0.100E-07
     TRS4 it   4 1.00000000   0.216E+00       0.001       32.256   0.100E-07
     TRS4 it   5 1.00000000   0.698E-01       0.001       32.256   0.100E-07
     TRS4 it   6 1.00000000   0.927E-02       0.001       32.256   0.100E-07
     TRS4 it   7 1.00000000   0.220E-03       0.001       32.256   0.100E-07
     TRS4 it   8 1.00000000   0.174E-06       0.001       32.256   0.100E-07
     TRS4 it   9 1.00000000   0.130E-12       0.001       32.256   0.100E-07
     Final TRS4 iteration    9 1.00000000   0.130E-12
     Chemical potential (mu):       0.01064
 
 PAO| energy:  -7.7989081723595310      penalty:   1.3057702800271783E-005
 PAO|LS| adapt:  T T F
 PAO|LS| adapt: scan_steps:    0.0000000000000000       0.44417533103172424        0.0000000000000000     
 PAO|LS| adapt: energies:   -7.7989052767433389       -7.7989081723595310        0.0000000000000000     
 PAO| ======================= Iteration:        27 =============================

     Lanczos converged:  T threshold:   0.100E-02
     Est. extremal eigenvalues:    0.276E+01   0.181E+00
     Est. condition number :    0.153E+02

 Order=           3
     NS sqrt iter    1 1.00000000   0.704E+00       0.001       59.532
     NS sqrt iter    2 1.00000000   0.328E+00       0.001       98.448
     NS sqrt iter    3 1.00000000   0.752E-01       0.001      100.066
     NS sqrt iter    4 1.00000000   0.187E-02       0.001       99.909
     NS sqrt iter    5 1.00000000   0.567E-07       0.001       68.961
     Symmetrizing Results
     Final NS sqrt iter    5 1.00000000   0.507E-09

     Est. extremal eigenvalues     -0.93790     1.70825  converged:  T
     TRS4 it   1 1.00000000   0.882E+00       0.000       16.128   0.100E-07
     TRS4 it   2 1.00000000   0.621E+00       0.001       32.256   0.100E-07
     TRS4 it   3 1.00000000   0.423E+00       0.001       32.256   0.100E-07
     TRS4 it   4 1.00000000   0.215E+00       0.001       32.256   0.100E-07
     TRS4 it   5 1.00000000   0.697E-01       0.001       32.256   0.100E-07
     TRS4 it   6 1.00000000   0.926E-02       0.001       32.256   0.100E-07
     TRS4 it   7 1.00000000   0.219E-03       0.001       32.256   0.100E-07
     TRS4 it   8 1.00000000   0.172E-06       0.001       32.256   0.100E-07
     TRS4 it   9 1.00000000   0.127E-12       0.001       32.256   0.100E-07
     Final TRS4 iteration    9 1.00000000   0.127E-12
     Chemical potential (mu):       0.01072
 
 PAO| energy:  -7.7988495360295342      penalty:   1.2362784432051875E-005
 PAO|LS| adapt:  T T T
 PAO|LS| adapt: scan_steps:    0.0000000000000000       0.44417533103172424       0.88835066206344848     
 PAO|LS| adapt: energies:   -7.7989052767433389       -7.7989081723595310       -7.7988495360295342     
 PAO|LS| adapt: suggested step_size:   0.24298999934976603     
 PAO|LS| adapt: predicted energy  -7.7989144841767413     
 PAO| ======================= Iteration:        28 =============================

     Lanczos converged:  T threshold:   0.100E-02
     Est. extremal eigenvalues:    0.276E+01   0.180E+00
     Est. condition number :    0.153E+02

 Order=           3
     NS sqrt iter    1 1.00000000   0.704E+00       0.001       58.398
     NS sqrt iter    2 1.00000000   0.329E+00       0.001       99.692
     NS sqrt iter    3 1.00000000   0.753E-01       0.001      100.393
     NS sqrt iter    4 1.00000000   0.188E-02       0.001      102.369
     NS sqrt iter    5 1.00000000   0.580E-07       0.001       67.915
     Symmetrizing Results
     Final NS sqrt iter    5 1.00000000   0.516E-09

     Est. extremal eigenvalues     -0.93790     1.70903  converged:  T
     TRS4 it   1 1.00000000   0.882E+00       0.000       16.128   0.100E-07
     TRS4 it   2 1.00000000   0.621E+00       0.001       32.256   0.100E-07
     TRS4 it   3 1.00000000   0.423E+00       0.001       32.256   0.100E-07
     TRS4 it   4 1.00000000   0.216E+00       0.001       32.256   0.100E-07
     TRS4 it   5 1.00000000   0.698E-01       0.001       32.256   0.100E-07
     TRS4 it   6 1.00000000   0.928E-02       0.001       32.256   0.100E-07
     TRS4 it   7 1.00000000   0.221E-03       0.001       32.256   0.100E-07
     TRS4 it   8 1.00000000   0.174E-06       0.001       32.256   0.100E-07
     TRS4 it   9 1.00000000   0.132E-12       0.001       32.256   0.100E-07
     Final TRS4 iteration    9 1.00000000   0.132E-12
     Chemical potential (mu):       0.01060
 
 PAO| energy:  -7.7989144753435919      penalty:   1.3380098580110074E-005
 PAO|CG| trace_G_new    2.8669695586714122E-005
 PAO|CG| trace_G_prev    7.5559064612878009E-005
 PAO|CG| trace_G_mix    3.7437120429812289E-008
 PAO|CG| trace_D    1.1241313594788421E-004
 PAO|CG| trace_D_Gnew  -2.1358285311082697E-008
 PAO|CG| beta:   0.37893876284705003     
 PAO| norm of gradient:   5.3544089857531542E-003
 PAO| energy improvement:  -9.1986002530575206E-006
 PAO| step     28                   -7.798914475  0.335E-03  0.243E+00     0.058
 PAO|LS| adapt:  T F F
 PAO|LS| adapt: scan_steps:    0.0000000000000000        0.0000000000000000        0.0000000000000000     
 PAO|LS| adapt: energies:   -7.7989144753435919        0.0000000000000000        0.0000000000000000     
 PAO| ======================= Iteration:        29 =============================

     Lanczos converged:  T threshold:   0.100E-02
     Est. extremal eigenvalues:    0.276E+01   0.180E+00
     Est. condition number :    0.153E+02

 Order=           3
     NS sqrt iter    1 1.00000000   0.704E+00       0.001       58.878
     NS sqrt iter    2 1.00000000   0.328E+00       0.001       99.034
     NS sqrt iter    3 1.00000000   0.752E-01       0.001       99.781
     NS sqrt iter    4 1.00000000   0.187E-02       0.001      100.372
     NS sqrt iter    5 1.00000000   0.575E-07       0.001       68.149
     Symmetrizing Results
     Final NS sqrt iter    5 1.00000000   0.512E-09

     Est. extremal eigenvalues     -0.93790     1.70879  converged:  T
     TRS4 it   1 1.00000000   0.882E+00       0.000       16.128   0.100E-07
     TRS4 it   2 1.00000000   0.621E+00       0.001       32.256   0.100E-07
     TRS4 it   3 1.00000000   0.423E+00       0.001       32.256   0.100E-07
     TRS4 it   4 1.00000000   0.215E+00       0.001       32.256   0.100E-07
     TRS4 it   5 1.00000000   0.698E-01       0.001       32.256   0.100E-07
     TRS4 it   6 1.00000000   0.926E-02       0.001       32.256   0.100E-07
     TRS4 it   7 1.00000000   0.219E-03       0.001       32.256   0.100E-07
     TRS4 it   8 1.00000000   0.172E-06       0.001       32.256   0.100E-07
     TRS4 it   9 1.00000000   0.128E-12       0.001       32.256   0.100E-07
     Final TRS4 iteration    9 1.00000000   0.128E-12
     Chemical potential (mu):       0.01071
 
 PAO| energy:  -7.7989206122452517      penalty:   1.2969949671260006E-005
 PAO|LS| adapt:  T T F
 PAO|LS| adapt: scan_steps:    0.0000000000000000       0.24298999934976603        0.0000000000000000     
 PAO|LS| adapt: energies:   -7.7989144753435919       -7.7989206122452517        0.0000000000000000     
 PAO| ======================= Iteration:        30 =============================

     Lanczos converged:  T threshold:   0.100E-02
     Est. extremal eigenvalues:    0.276E+01   0.180E+00
     Est. condition number :    0.153E+02

 Order=           3
     NS sqrt iter    1 1.00000000   0.704E+00       0.001       57.966
     NS sqrt iter    2 1.00000000   0.328E+00       0.001       99.638
     NS sqrt iter    3 1.00000000   0.752E-01       0.001       99.325
     NS sqrt iter    4 1.00000000   0.187E-02       0.001       99.424
     NS sqrt iter    5 1.00000000   0.571E-07       0.001       68.112
     Symmetrizing Results
     Final NS sqrt iter    5 1.00000000   0.508E-09

     Est. extremal eigenvalues     -0.93790     1.70856  converged:  T
     TRS4 it   1 1.00000000   0.882E+00       0.000       16.128   0.100E-07
     TRS4 it   2 1.00000000   0.621E+00       0.001       32.256   0.100E-07
     TRS4 it   3 1.00000000   0.423E+00       0.001       32.256   0.100E-07
     TRS4 it   4 1.00000000   0.215E+00       0.001       32.256   0.100E-07
     TRS4 it   5 1.00000000   0.697E-01       0.001       32.256   0.100E-07
     TRS4 it   6 1.00000000   0.924E-02       0.001       32.256   0.100E-07
     TRS4 it   7 1.00000000   0.218E-03       0.001       32.256   0.100E-07
     TRS4 it   8 1.00000000   0.170E-06       0.001       32.256   0.100E-07
     TRS4 it   9 1.00000000   0.125E-12       0.001       32.256   0.100E-07
     Final TRS4 iteration    9 1.00000000   0.125E-12
     Chemical potential (mu):       0.01082
 
 PAO| energy:  -7.7989250860904304      penalty:   1.2566844151533659E-005
 PAO|LS| adapt:  T T F
 PAO|LS| adapt: scan_steps:    0.0000000000000000       0.48597999869953207        0.0000000000000000     
 PAO|LS| adapt: energies:   -7.7989144753435919       -7.7989250860904304        0.0000000000000000     
 PAO| ======================= Iteration:        31 =============================

     Lanczos converged:  T threshold:   0.100E-02
     Est. extremal eigenvalues:    0.276E+01   0.181E+00
     Est. condition number :    0.153E+02

 Order=           3
     NS sqrt iter    1 1.00000000   0.704E+00       0.001       58.448
     NS sqrt iter    2 1.00000000   0.328E+00       0.001       98.926
     NS sqrt iter    3 1.00000000   0.750E-01       0.001       98.153
     NS sqrt iter    4 1.00000000   0.186E-02       0.001       98.528
     NS sqrt iter    5 1.00000000   0.562E-07       0.001       67.696
     Symmetrizing Results
     Final NS sqrt iter    5 1.00000000   0.437E-09

     Est. extremal eigenvalues     -0.93790     1.70808  converged:  T
     TRS4 it   1 1.00000000   0.882E+00       0.000       16.128   0.100E-07
     TRS4 it   2 1.00000000   0.621E+00       0.001       32.256   0.100E-07
     TRS4 it   3 1.00000000   0.423E+00       0.001       32.256   0.100E-07
     TRS4 it   4 1.00000000   0.215E+00       0.001       32.256   0.100E-07
     TRS4 it   5 1.00000000   0.695E-01       0.001       32.256   0.100E-07
     TRS4 it   6 1.00000000   0.919E-02       0.001       32.256   0.100E-07
     TRS4 it   7 1.00000000   0.216E-03       0.001       32.256   0.100E-07
     TRS4 it   8 1.00000000   0.167E-06       0.001       32.256   0.100E-07
     TRS4 it   9 1.00000000   0.120E-12       0.001       32.256   0.100E-07
     Final TRS4 iteration    9 1.00000000   0.120E-12
     Chemical potential (mu):       0.01103
 
 PAO| energy:  -7.7989290411301830      penalty:   1.1781639789024734E-005
 PAO|LS| Need extra step
 PAO|LS| adapt:  T T F
 PAO|LS| adapt: scan_steps:    0.0000000000000000       0.97195999739906414        0.0000000000000000     
 PAO|LS| adapt: energies:   -7.7989144753435919       -7.7989290411301830        0.0000000000000000     
 PAO| ======================= Iteration:        32 =============================

     Lanczos converged:  T threshold:   0.100E-02
     Est. extremal eigenvalues:    0.276E+01   0.181E+00
     Est. condition number :    0.153E+02

 Order=           3
[...]
     Symmetrizing Results
     Final NS sqrt iter    5 1.00000000   0.333E-09

     Est. extremal eigenvalues     -0.93762     1.63587  converged:  T
     TRS4 it   1 1.00000000   0.886E+00       0.000       16.128   0.100E-07
     TRS4 it   2 1.00000000   0.636E+00       0.001       32.256   0.100E-07
     TRS4 it   3 1.00000000   0.457E+00       0.001       32.256   0.100E-07
     TRS4 it   4 1.00000000   0.280E+00       0.001       32.256   0.100E-07
     TRS4 it   5 1.00000000   0.140E+00       0.001       32.256   0.100E-07
     TRS4 it   6 1.00000000   0.447E-01       0.001       32.256   0.100E-07
     TRS4 it   7 1.00000000   0.638E-02       0.001       32.256   0.100E-07
     TRS4 it   8 1.00000000   0.174E-03       0.001       32.256   0.100E-07
     TRS4 it   9 1.00000000   0.137E-06       0.001       32.256   0.100E-07
     TRS4 it  10 1.00000000   0.847E-13       0.001       32.256   0.100E-07
     Final TRS4 iteration   10 1.00000000   0.847E-13
     Chemical potential (mu):      -0.07605
 
 PAO| energy:  -7.7983324676550838      penalty:   3.4035026267781223E-008
 PAO|CG| warming up with steepest descent
 PAO|CG| beta:    0.0000000000000000     
 PAO| norm of gradient:   1.4587332933465585E-004
 PAO| energy improvement:  -5.8694498150657637E-009
 PAO| step    410                   -7.798332468  0.912E-05  0.265E+00     0.079
 PAO| converged after          410  steps :-)
 PAO| Recalculating energy after mixing.

     Lanczos converged:  T threshold:   0.100E-02
     Est. extremal eigenvalues:    0.248E+01   0.190E+00
     Est. condition number :    0.131E+02

 Order=           3
     NS sqrt iter    1 1.00000000   0.630E+00       0.001       55.069
     NS sqrt iter    2 1.00000000   0.273E+00       0.001       89.853
     NS sqrt iter    3 1.00000000   0.478E-01       0.001       97.878
     NS sqrt iter    4 1.00000000   0.752E-03       0.001       93.724
     NS sqrt iter    5 1.00000000   0.564E-08       0.001       34.131
     Symmetrizing Results
     Final NS sqrt iter    5 1.00000000   0.333E-09

     Est. extremal eigenvalues     -0.93762     1.63587  converged:  T
     TRS4 it   1 1.00000000   0.886E+00       0.001       16.128   0.100E-07
     TRS4 it   2 1.00000000   0.636E+00       0.001       32.256   0.100E-07
     TRS4 it   3 1.00000000   0.457E+00       0.001       32.256   0.100E-07
     TRS4 it   4 1.00000000   0.280E+00       0.001       32.256   0.100E-07
     TRS4 it   5 1.00000000   0.140E+00       0.001       32.256   0.100E-07
     TRS4 it   6 1.00000000   0.447E-01       0.001       32.256   0.100E-07
     TRS4 it   7 1.00000000   0.638E-02       0.001       32.256   0.100E-07
     TRS4 it   8 1.00000000   0.174E-03       0.001       32.256   0.100E-07
     TRS4 it   9 1.00000000   0.137E-06       0.001       32.256   0.100E-07
     TRS4 it  10 1.00000000   0.841E-13       0.001       32.256   0.100E-07
     Final TRS4 iteration   10 1.00000000   0.841E-13
     Chemical potential (mu):      -0.07605
 
 PAO| energy:  -7.7983324661877020      penalty:   3.4400324147328101E-008
 PAO| Writing restart file.
     Est. extremal eigenvalues     -0.93762     1.63587  converged:  T
     TRS4 it   1 1.00000000   0.886E+00       0.000       16.128   0.100E-07
     TRS4 it   2 1.00000000   0.636E+00       0.001       32.256   0.100E-07
     TRS4 it   3 1.00000000   0.457E+00       0.001       32.256   0.100E-07
     TRS4 it   4 1.00000000   0.280E+00       0.001       32.256   0.100E-07
     TRS4 it   5 1.00000000   0.140E+00       0.001       32.256   0.100E-07
     TRS4 it   6 1.00000000   0.447E-01       0.001       32.256   0.100E-07
     TRS4 it   7 1.00000000   0.638E-02       0.001       32.256   0.100E-07
     TRS4 it   8 1.00000000   0.174E-03       0.001       32.256   0.100E-07
     TRS4 it   9 1.00000000   0.137E-06       0.001       32.256   0.100E-07
     TRS4 it  10 1.00000000   0.841E-13       0.001       32.256   0.100E-07
     Final TRS4 iteration   10 1.00000000   0.841E-13
     Chemical potential (mu):      -0.07605

 SCF     1       -34.449168368       -34.449168368    2.166522

*********************************************************
 Using MIXING_FRACTION=0.450 to mix KS matrix:  iscf=  2
 KS_nw=0.450*KS + 0.550*KS_old
*********************************************************
     Est. extremal eigenvalues     -0.93763     1.63587  converged:  T
     TRS4 it   1 1.00000000   0.886E+00       0.000       16.128   0.100E-07
     TRS4 it   2 1.00000000   0.636E+00       0.000       32.256   0.100E-07
     TRS4 it   3 1.00000000   0.457E+00       0.000       32.256   0.100E-07
     TRS4 it   4 1.00000000   0.280E+00       0.000       32.256   0.100E-07
     TRS4 it   5 1.00000000   0.140E+00       0.000       32.256   0.100E-07
     TRS4 it   6 1.00000000   0.447E-01       0.000       32.256   0.100E-07
     TRS4 it   7 1.00000000   0.638E-02       0.000       32.256   0.100E-07
     TRS4 it   8 1.00000000   0.174E-03       0.000       32.256   0.100E-07
     TRS4 it   9 1.00000000   0.137E-06       0.000       32.256   0.100E-07
     TRS4 it  10 1.00000000   0.847E-13       0.000       32.256   0.100E-07
     Final TRS4 iteration   10 1.00000000   0.847E-13
     Chemical potential (mu):      -0.07605

 SCF     2       -34.449168368        -0.000000000    1.564426


 SCF run converged in     2 steps.

 PAO| Storing density matrix for ASPC guess in slot:           1

 ENERGY| Total FORCE_EVAL ( QS ) energy [a.u.]:              -34.449168368414426

 -------------------------------------------------------------------------------
 -                                                                             -
 -                                DBCSR STATISTICS                             -
 -                                                                             -
 -------------------------------------------------------------------------------
 COUNTER                                    TOTAL       BLAS       SMM       ACC
 flops     5 x     5 x     4                20000       0.0%    100.0%      0.0%
 flops    13 x     5 x     4                20800       0.0%    100.0%      0.0%
 flops     5 x    13 x     4                20800       0.0%    100.0%      0.0%
 flops    13 x    13 x     4                40560       0.0%    100.0%      0.0%
 flops     4 x     4 x     5              3221760       0.0%    100.0%      0.0%
 flops     5 x     4 x     5              3932800       0.0%    100.0%      0.0%
 flops     4 x     4 x    13              4188288       0.0%    100.0%      0.0%
 flops    13 x     4 x     5              5112640       0.0%    100.0%      0.0%
 flops     5 x     4 x    13              5112640       0.0%    100.0%      0.0%
 flops     5 x     4 x     4              6195840       0.0%    100.0%      0.0%
 flops    13 x     4 x    13              6646432       0.0%    100.0%      0.0%
 flops    13 x     4 x     4              8180640       0.0%    100.0%      0.0%
 flops     4 x     4 x     4            417223552       0.0%    100.0%      0.0%
 flops inhomo. stacks                           0       0.0%      0.0%      0.0%
 flops total                       459.916752E+06       0.0%    100.0%      0.0%
 flops max/rank                    459.916752E+06       0.0%    100.0%      0.0%
 matmuls inhomo. stacks                         0       0.0%      0.0%      0.0%
 matmuls total                            3392606       0.0%    100.0%      0.0%
 number of processed stacks                 27017       0.0%    100.0%      0.0%
 average stack size                                     0.0     125.6       0.0
 marketing flops                   748.275264E+06
 -------------------------------------------------------------------------------
 # multiplications                          22616
 max memory usage/rank             506.585088E+06
 # max total images/rank                        1
 # max 3D layers                                1
 # MPI messages exchanged                       0
 -------------------------------------------------------------------------------

 -------------------------------------------------------------------------------
 -                                                                             -
 -                                DBM STATISTICS                               -
 -                                                                             -
 -------------------------------------------------------------------------------
    M  x    N  x    K                                          COUNT     PERCENT
 -------------------------------------------------------------------------------

 -------------------------------------------------------------------------------
 -                                                                             -
 -                                GRID STATISTICS                              -
 -                                                                             -
 -------------------------------------------------------------------------------
 LP    KERNEL             BACKEND                              COUNT     PERCENT
 2     collocate ortho    REF                                  38100      30.72%
 2     integrate ortho    REF                                  38100      30.72%
 3     collocate ortho    REF                                  19660      15.85%
 3     integrate ortho    REF                                  19660      15.85%
 4     collocate ortho    REF                                   4240       3.42%
 4     integrate ortho    REF                                   4240       3.42%
 0     collocate general  REF                                      6       0.00%
 -------------------------------------------------------------------------------

 MEMORY| Estimated peak process memory [MiB]                                 484

 -------------------------------------------------------------------------------
 -                                                                             -
 -                           R E F E R E N C E S                               -
 -                                                                             -
 -------------------------------------------------------------------------------
 
 CP2K version 2023.1 (Development Version), the CP2K developers group (2023).
 CP2K is freely available from https://www.cp2k.org/ .

 Kuehne,Thomas D.; Iannuzzi,Marcella; Del Ben,Mauro;
 Rybkin,Vladimir V.; Seewald,Patrick; Stein,Frederick; Laino,Teodoro;
 Khaliullin,Rustam Z.; Schuett,Ole; Schiffmann,Florian; Golze,Dorothea;
 Wilhelm,Jan; Chulkov,Sergey; Bani-Hashemian,Mohammad Hossein;
 Weber,Valery; Borstnik,Urban; Taillefumier,Mathieu;
 Jakobovits,Alice Shoshana; Lazzaro,Alfio; Pabst,Hans; Mueller,Tiziano;
 Schade,Robert; Guidon,Manuel; Andermatt,Samuel; Holmberg,Nico;
 Schenter,Gregory K.; Hehn,Anna; Bussy,Augustin; Belleflamme,Fabian;
 Tabacchi,Gloria; Gloess,Andreas; Lass,Michael; Bethune,Iain;
 Mundy,Christopher J.; Plessl,Christian; Watkins,Matt;
 VandeVondele,Joost; Krack,Matthias; Hutter,Juerg. 
 The Journal of Chemical Physics, 152 (19), (2020). 
 CP2K: An electronic structure and molecular dynamics software package -
 Quickstep: Efficient and accurate electronic structure calculations.
 https://doi.org/10.1063/5.0007045

 Schuett, O; VandeVondele, J. 
 Journal of Chemical Theory and Computation, 14, (2018). 
 Machine Learning Adaptive Basis Sets for Efficient Large Scale
 Density Functional Theory Simulation.
 https://doi.org/10.1021/acs.jctc.8b00378

 Schuett, Ole; Messmer, Peter; Hutter, Juerg; VandeVondele, Joost. 
 Electronic Structure Calculations on Graphics Processing Units, John
 Wiley & Sons, Ltd, 173-190 (2016). 
 GPU-Accelerated Sparse Matrix-Matrix Multiplication for
 Linear Scaling Density Functional Theory.
 https://doi.org/10.1002/9781118670712.ch8

 Heinecke, A; Henry, G; Hutchinson, M; Pabst, H. 
 Proceedings of Intl. Supercomputing Conference, 981-991 (2016). 
 LIBXSMM: Accelerating Small Matrix Multiplications
 by Runtime Code Generation.
 https://doi.org/10.1109/SC.2016.83

 Borstnik, U; VandeVondele, J; Weber, V; Hutter, J. 
 PARALLEL COMPUTING, 40 (5-6), 47-58 (2014). 
 Sparse matrix multiplication: The distributed block-compressed sparse
 row library.
 https://doi.org/10.1016/j.parco.2014.03.012

 Hutter, J; Iannuzzi, M; Schiffmann, F; VandeVondele, J. 
 WIREs Comput Mol Sci., 4 (1), 15-25 (2014). 
 CP2K: atomistic simulations of condensed matter systems.
 https://doi.org/10.1002/wcms.1159

 VandeVondele, J; Borstnik, U; Hutter, J. 
 JOURNAL OF CHEMICAL THEORY AND COMPUTATION, 8 (10), 3565-3573 (2012). 
 Linear Scaling Self-Consistent Field Calculations with Millions of Atoms
 in the Condensed Phase.
 https://doi.org/10.1021/ct200897x

 VandeVondele, J; Hutter, J. 
 JOURNAL OF CHEMICAL PHYSICS, 127 (11), 114105 (2007). 
 Gaussian basis sets for accurate calculations on molecular systems in
 gas and condensed phases.
 https://doi.org/10.1063/1.2770708

 Krack, M. 
 THEORETICAL CHEMISTRY ACCOUNTS, 114 (1-3), 145-152 (2005). 
 Pseudopotentials for H to Kr optimized for gradient-corrected
 exchange-correlation functionals.
 https://doi.org/10.1007/s00214-005-0655-y

 VandeVondele, J; Krack, M; Mohamed, F; Parrinello, M; Chassaing, T;
 Hutter, J. COMPUTER PHYSICS COMMUNICATIONS, 167 (2), 103-128 (2005). 
 QUICKSTEP: Fast and accurate density functional calculations using a
 mixed Gaussian and plane waves approach.
 https://doi.org/10.1016/j.cpc.2004.12.014

 Frigo, M; Johnson, SG. 
 PROCEEDINGS OF THE IEEE, 93 (2), 216-231 (2005). 
 The design and implementation of FFTW3.
 https://doi.org/10.1109/JPROC.2004.840301

 Niklasson, AMN; Tymczak, CJ; Challacombe, M. 
 JOURNAL OF CHEMICAL PHYSICS, 118 (19), 8611-8620 (2003). 
 Trace resetting density matrix purification in O(N)
 self-consistent-field theory.
 https://doi.org/10.1063/1.1559913

 Hartwigsen, C; Goedecker, S; Hutter, J. 
 PHYSICAL REVIEW B, 58 (7), 3641-3662 (1998). 
 Relativistic separable dual-space Gaussian pseudopotentials from H to Rn.
 https://doi.org/10.1103/PhysRevB.58.3641

 Lippert, G; Hutter, J; Parrinello, M. 
 MOLECULAR PHYSICS, 92 (3), 477-487 (1997). 
 A hybrid Gaussian and plane wave density functional scheme.
 https://doi.org/10.1080/002689797170220

 Perdew, JP; Burke, K; Ernzerhof, M. 
 PHYSICAL REVIEW LETTERS, 77 (18), 3865-3868 (1996). 
 Generalized gradient approximation made simple.
 https://doi.org/10.1103/PhysRevLett.77.3865

 Goedecker, S; Teter, M; Hutter, J. 
 PHYSICAL REVIEW B, 54 (3), 1703-1710 (1996). 
 Separable dual-space Gaussian pseudopotentials.
 https://doi.org/10.1103/PhysRevB.54.1703


 -------------------------------------------------------------------------------
 -                                                                             -
 -                                T I M I N G                                  -
 -                                                                             -
 -------------------------------------------------------------------------------
 SUBROUTINE                       CALLS  ASD         SELF TIME        TOTAL TIME
                                MAXIMUM       AVERAGE  MAXIMUM  AVERAGE  MAXIMUM
 CP2K                                 1  1.0    0.010    0.010   38.871   38.871
 qs_energies                          1  2.0    0.000    0.000   38.233   38.233
 ls_scf                               1  3.0    0.000    0.000   37.978   37.978
 ls_scf_main                          4  4.0    0.001    0.001   25.981   25.981
 ls_scf_dm_to_ks                      9  5.0    0.000    0.000   25.884   25.884
 qs_ks_update_qs_env                 10  6.0    0.000    0.000   22.369   22.369
 rebuild_ks_matrix                   10  7.0    0.000    0.000   22.368   22.368
 qs_ks_build_kohn_sham_matrix        10  8.0    0.003    0.003   22.368   22.368
 qs_vxc_create                       10  9.0    0.000    0.000   13.800   13.800
 xc_vxc_pw_create                    10 10.0    0.236    0.236   13.800   13.800
 pw_transfer                        191 11.1    0.031    0.031   13.136   13.136
 fft_wrap_pw1pw2                    171 12.3    0.004    0.004   12.745   12.745
 fft_wrap_pw1pw2_200                111 13.7    1.202    1.202   12.337   12.337
 xc_pw_derive                        60 12.0    0.001    0.001    8.365    8.365
 pao_update                           4  4.0    0.008    0.008    8.108    8.108
 xc_rho_set_and_dset_create          10 11.0    0.275    0.275    7.809    7.809
 qs_rho_update_rho_low               10  6.0    0.000    0.000    7.352    7.352
 calculate_rho_elec                  10  7.0    0.061    0.061    7.352    7.352
 pao_calc_energy                    413  5.0    0.003    0.003    7.345    7.345
 sum_up_and_integrate                10  9.0    0.176    0.176    5.890    5.890
 dbcsr_multiply_generic           22616  8.4    0.365    0.365    5.825    5.825
 fft3d_s                            172 14.2    5.744    5.744    5.770    5.770
 integrate_v_rspace                  10 10.0    0.001    0.001    5.714    5.714
 xc_pw_divergence                    10 11.0    0.001    0.001    5.580    5.580
 grid_integrate_task_list            10 11.0    4.523    4.523    4.523    4.523
 grid_collocate_task_list            10  8.0    4.025    4.025    4.025    4.025
 pao_dm_trs4                        413  6.0    0.002    0.002    3.844    3.844
 pao_guess_initial_P                  1  4.0    0.000    0.000    3.842    3.842
 pao_read_preopt_dm                   1  5.0    0.000    0.000    3.842    3.842
 density_matrix_trs4                422  7.0    0.118    0.118    3.711    3.711
 ls_scf_init_matrix_S               417  7.0    0.003    0.003    3.483    3.483
 pao_rebuild_S                      413  6.0    0.001    0.001    3.450    3.450
 density_rs2pw                       10  8.0    0.001    0.001    3.265    3.265
 matrix_sqrt_Newton_Schulz          417  8.0    0.075    0.075    3.149    3.149
 xc_functional_eval                  10 12.0    0.000    0.000    3.027    3.027
 pbe_lda_eval                        10 13.0    3.027    3.027    3.027    3.027
 pw_gather_s                         81 13.8    2.977    2.977    2.977    2.977
 pw_scatter_s                        90 14.7    2.745    2.745    2.745    2.745
 make_m2s                         45232  9.4    0.139    0.139    2.187    2.187
 multiply_cannon                  22616  9.4    0.894    0.894    2.171    2.171
 make_images                      45232 10.4    0.541    0.541    1.938    1.938
 pw_derive                           60 13.0    1.527    1.527    1.527    1.527
 pw_copy                            120 11.8    1.232    1.232    1.232    1.232
 potential_pw2rs                     10 11.0    0.003    0.003    1.190    1.190
 arnoldi_extremal                   839  8.5    0.003    0.003    1.166    1.166
 arnoldi_normal_ev                  839  9.5    0.009    0.009    1.163    1.163
 pw_poisson_solve                    10  9.0    0.177    0.177    0.929    0.929
 build_subspace                     839 10.5    0.047    0.047    0.912    0.912
 dbcsr_matrix_vector_mult         20084 11.5    0.097    0.097    0.845    0.845
 pw_axpy                             90 10.3    0.842    0.842    0.842    0.842
 -------------------------------------------------------------------------------

 The number of warnings for this run is : 0
 
 -------------------------------------------------------------------------------
  **** **** ******  **  PROGRAM ENDED AT                 2023-02-01 10:44:34.081
 ***** ** ***  *** **   PROGRAM RAN ON                                    moritz
 **    ****   ******    PROGRAM RAN BY                                       ole
 ***** **    ** ** **   PROGRAM PROCESS ID                                148523
  **** **  *******  **  PROGRAM STOPPED IN /home/ole/git/pao_ml_equivar/2H2O_rot
                                           ations/rand_18
