6
Properties=species:S:1:pos:R:3 i=0 time=0.0 E=-34.4504806384 pbc="F F F"
O      -5.79631480      -2.36398223      -1.91032301 
H      -5.96757102      -1.76084039      -1.17944667 
H      -4.91937356      -2.13403958      -2.23316885 
O      -5.75627719      -5.18009077      -0.87735271 
H      -6.40821789      -5.72000093      -1.33297903 
H      -5.83603826      -4.29580990      -1.26737131 
