 DBCSR| CPU Multiplication driver                                           BLAS
 DBCSR| Multrec recursion limit                                              512
 DBCSR| Multiplication stack size                                           1000
 DBCSR| Maximum elements for images                                    UNLIMITED
 DBCSR| Multiplicative factor virtual images                                   1
 DBCSR| Use multiplication densification                                       T
 DBCSR| Multiplication size stacks                                             3


  **** **** ******  **  PROGRAM STARTED AT               2019-03-28 17:32:53.863
 ***** ** ***  *** **   PROGRAM STARTED ON        oleschuett.zrh.corp.google.com
 **    ****   ******    PROGRAM STARTED BY                            oleschuett
 ***** **    ** ** **   PROGRAM PROCESS ID                                 32508
  **** **  *******  **  PROGRAM STARTED IN /usr/local/google/home/oleschuett/git
                                           /pao_ml_equivar/2H2O_rotations/phi_26

 CP2K| version string:                    CP2K version 7.0 (Development Version)
 CP2K| source code revision number:                                git:d9814d431
 CP2K| cp2kflags: libint fftw3 libxc libderiv_max_am1=5 libint_max_am=6         
 CP2K| is freely available from                            https://www.cp2k.org/
 CP2K| Program compiled at                          Mon Mar 25 16:50:07 CET 2019
 CP2K| Program compiled on                        oleschuett.zrh.corp.google.com
 CP2K| Program compiled for                                                local
 CP2K| Data directory path       /usr/local/google/home/oleschuett/git/cp2k/data
 CP2K| Input file name                                            2H2O_pao44.inp

 GLOBAL| Force Environment number                                              1
 GLOBAL| Basis set file name                                        BASIS_MOLOPT
 GLOBAL| Potential file name                                      GTH_POTENTIALS
 GLOBAL| MM Potential file name                                     MM_POTENTIAL
 GLOBAL| Coordinate file name                                         coords.xyz
 GLOBAL| Method name                                                        CP2K
 GLOBAL| Project name                                                 2H2O_pao44
 GLOBAL| Preferred FFT library                                             FFTW3
 GLOBAL| Preferred diagonalization lib.                                       SL
 GLOBAL| Run type                                                         ENERGY
 GLOBAL| All-to-all communication in single precision                          F
 GLOBAL| FFTs using library dependent lengths                                  F
 GLOBAL| Global print level                                                  LOW
 GLOBAL| MPI I/O enabled                                                       T
 GLOBAL| Total number of message passing processes                             1
 GLOBAL| Number of threads for this process                                    1
 GLOBAL| This output is from process                                           0
 GLOBAL| CPU model name :  Intel(R) Xeon(R) CPU E5-1650 v4 @ 3.60GHz

 MEMORY| system memory details [Kb]
 MEMORY|                        rank 0           min           max       average
 MEMORY| MemTotal             65953612      65953612      65953612      65953612
 MEMORY| MemFree               5158384       5158384       5158384       5158384
 MEMORY| Buffers               2545912       2545912       2545912       2545912
 MEMORY| Cached               25381824      25381824      25381824      25381824
 MEMORY| Slab                  3623548       3623548       3623548       3623548
 MEMORY| SReclaimable          2422248       2422248       2422248       2422248
 MEMORY| MemLikelyFree        35508368      35508368      35508368      35508368


 GENERATE|  Preliminary Number of Bonds generated:                             0
 GENERATE|  Achieved consistency in connectivity generation.

 *******************************************************************************
 *******************************************************************************
 **                                                                           **
 **     #####                         ##              ##                      **
 **    ##   ##            ##          ##              ##                      **
 **   ##     ##                       ##            ######                    **
 **   ##     ##  ##   ##  ##   #####  ##  ##   ####   ##    #####    #####    **
 **   ##     ##  ##   ##  ##  ##      ## ##   ##      ##   ##   ##  ##   ##   **
 **   ##  ## ##  ##   ##  ##  ##      ####     ###    ##   ######   ######    **
 **    ##  ###   ##   ##  ##  ##      ## ##      ##   ##   ##       ##        **
 **     #######   #####   ##   #####  ##  ##  ####    ##    #####   ##        **
 **           ##                                                    ##        **
 **                                                                           **
 **                                                ... make the atoms dance   **
 **                                                                           **
 **            Copyright (C) by CP2K developers group (2000 - 2018)           **
 **                                                                           **
 *******************************************************************************


 TOTAL NUMBERS AND MAXIMUM NUMBERS

  Total number of            - Atomic kinds:                                   2
                             - Atoms:                                          6
                             - Shell sets:                                     6
                             - Shells:                                        22
                             - Primitive Cartesian functions:                 42
                             - Cartesian basis functions:                     48
                             - Spherical basis functions:                     46

  Maximum angular momentum of- Orbital basis functions:                        2
                             - Local part of the GTH pseudopotential:          2
                             - Non-local part of the GTH pseudopotential:      0

 ------------------------------ Linear scaling SCF -----------------------------
 eps_scf:                                                              0.100E-07
 eps_filter:                                                           0.100E-07
 mixing_fraction:                                                      0.450E+00
 max_scf:                                                                     25
 fixed chemical potential (mu)                                                 F
 has unit metric:                                                              F
 Computing inv(S):                                                             T
 Computing sqrt(S):                                                            T
 Computing s preconditioner                                                    F
 sign sqrt order:                                                              3
 Extrapolation order:                                                          1
 Use single precision matrices                                                 F
 S preconditioner type                                                      NONE
 Polarized Atomic Orbitals (PAO)                                               T
 Purification method                                   Trace resetting 4th order
 Cluster type                                                             ATOMIC
 Computing Chebyshev                                                       FALSE
 Using PAO                                                                     T
 -------------------------------------------------------------------------------

 
 PAO|                                  EPS_PAO                           0.1E-04
 PAO|                                  MIXING                            0.5E+00
 PAO|                                  MAX_PAO                              1000
 PAO|                                  MAX_CYCLES                           1000
 PAO|                                  PARAMETERIZATION                   DIRECT
 PAO|                                  PRECONDITION                            F
 PAO|                                  REGULARIZATION                    0.0E+00
 PAO|                                  EPS_PGF                           0.1E-09
 PAO|                                  PENALTY_DISTANCE                  0.1E+00
 PAO|                                  PENALTY_STRENGTH                  0.5E-02
 PAO|                                  LINPOT_PRECONDITION_DELTA         0.0E+00
 PAO|                                  LINPOT_INITGUESS_DELT             0.0E+00
 PAO|                                  LINPOT_REGULARIZATION_DELTA       0.0E+00
 PAO|                                  LINPOT_REGULARIZATION_STRENGTH    0.0E+00
 PAO|                                  OPTIMIZER                              CG
 PAO|                                  CG_INIT_STEPS                           2
 PAO|                                  CG_RESET_LIMIT                    0.1E+00
 PAO|                                  CHECK_UNITARY_TOL                -0.1E+01
 PAO|                                  CHECK_GRADIENT_TOL               -0.1E+01
 PAO|                                  NUM_GRADIENT_ORDER                      2
 PAO|                                  NUM_GRADIENT_EPS                  0.1E-07
 PAO|                                  PRINT%RESTART%WRITE_CYCLES            100
 PAO|                                  RESTART_FILE 
 PAO|                                  PREOPT_DM_FILE 2H2O_ref_LS_DM_SPIN_1_RESTART.dm
 PAO|                                  MACHINE_LEARNING%METHOD        GAUSSIAN_P
 PAO|                                  MACHINE_LEARNING%PRIOR               ZERO
 PAO|                                  MACHINE_LEARNING%DESCRIPTOR     POTENTIAL
 PAO|                                  MACHINE_LEARNING%TOLERANCE        0.1E-01
 PAO|                                  MACHINE_LEARNING%GP_NOISE_VAR     0.1E+00
 PAO|                                  MACHINE_LEARNING%GP_SCALE         0.5E-01
 

 Calculating atomic Fock matrix for atomic kind: O

 Electronic structure
    Total number of core electrons                                          2.00
    Total number of valence electrons                                       6.00
    Total number of electrons                                               8.00
    Multiplicity                                                   not specified
    S   [  2.00] 2.00
    P      4.00


 *******************************************************************************
                  Iteration          Convergence                     Energy [au]
 *******************************************************************************
                          1        0.708315                     -15.576645311500
                          2        0.608879                     -15.587933561584
                          3        0.102828E-01                 -15.656849565404
                          4        0.113889E-02                 -15.656866888140
                          5        0.434197E-03                 -15.656867072159
                          6        0.263771E-03                 -15.656867091904
                          7        0.478536E-06                 -15.656867103452

 Energy components [Hartree]           Total Energy ::          -15.656867103452
                                        Band Energy ::           -3.000198112285
                                     Kinetic Energy ::           11.759971203220
                                   Potential Energy ::          -27.416838306672
                                      Virial (-V/T) ::            2.331369510426
                                        Core Energy ::          -26.140716385623
                                          XC Energy ::           -3.154051012914
                                     Coulomb Energy ::           13.637900295084
                       Total Pseudopotential Energy ::          -37.935781716540
                       Local Pseudopotential Energy ::          -39.218907440693
                    Nonlocal Pseudopotential Energy ::            1.283125724153
                                        Confinement ::            0.350941276976

 Orbital energies  State     L     Occupation   Energy[a.u.]          Energy[eV]

                       1     0          2.000      -0.864471          -23.523463

                       1     1          4.000      -0.317814           -8.648154


 Total Electron Density at R=0:                                         0.000068

 Calculating atomic Fock matrix for atomic kind: H

 Electronic structure
    Total number of core electrons                                          0.00
    Total number of valence electrons                                       1.00
    Total number of electrons                                               1.00
    Multiplicity                                                   not specified
    S      1.00


 *******************************************************************************
                  Iteration          Convergence                     Energy [au]
 *******************************************************************************
                          1        0.437545E-02                  -0.424159432110
                          2        0.531356E-03                  -0.424178438213
                          3        0.259176E-06                  -0.424178722480

 Energy components [Hartree]           Total Energy ::           -0.424178722480
                                        Band Energy ::           -0.199015229016
                                     Kinetic Energy ::            0.464007633961
                                   Potential Energy ::           -0.888186356441
                                      Virial (-V/T) ::            1.914163240935
                                        Core Energy ::           -0.479160803564
                                          XC Energy ::           -0.244352904054
                                     Coulomb Energy ::            0.299334985138
                       Total Pseudopotential Energy ::           -0.962295316385
                       Local Pseudopotential Energy ::           -0.962295316385
                    Nonlocal Pseudopotential Energy ::            0.000000000000
                                        Confinement ::            0.191268788606

 Orbital energies  State     L     Occupation   Energy[a.u.]          Energy[eV]

                       1     0          1.000      -0.199015           -5.415480


 Total Electron Density at R=0:                                         0.242907
 PAO| Made initial guess for matrix_X with norm:   4.8989794855663558     

     Lanczos converged:  T threshold:   0.100E-02
     Est. extremal eigenvalues:    0.335E+01   0.114E+00
     Est. condition number :    0.293E+02
     NS sqrt iter    1 1.00000000   0.820E+00       0.002       37.523
     NS sqrt iter    2 1.00000000   0.440E+00       0.002       69.373
     NS sqrt iter    3 1.00000000   0.170E+00       0.002       71.254
     NS sqrt iter    4 1.00000000   0.206E-01       0.002       71.648
     NS sqrt iter    5 1.00000000   0.531E-04       0.001       61.652
     Final NS sqrt iter    5 1.00000000   0.421E-08

 PAO| Read restart DM 2H2O_ref_LS_DM_SPIN_1_RESTART.dm with checksum:    61.487977209042640     
 PAO| Quickstep energy from restart density:  -34.450448318245463     
 PAO| ======================= Iteration:         1 =============================

     Lanczos converged:  T threshold:   0.100E-02
     Est. extremal eigenvalues:    0.335E+01   0.114E+00
     Est. condition number :    0.293E+02
     NS sqrt iter    1 1.00000000   0.820E+00       0.002       42.075
     NS sqrt iter    2 1.00000000   0.440E+00       0.002       66.377
     NS sqrt iter    3 1.00000000   0.170E+00       0.002       67.075
     NS sqrt iter    4 1.00000000   0.206E-01       0.002       68.098
     NS sqrt iter    5 1.00000000   0.531E-04       0.002       51.604
     Final NS sqrt iter    5 1.00000000   0.421E-08

     Est. extremal eigenvalues     -0.91996     1.88441  converged:  T
     TRS4 it   1 1.00000000   0.882E+00       0.001       16.128   0.100E-07
     TRS4 it   2 1.00000000   0.691E+00       0.001       32.256   0.100E-07
     TRS4 it   3 1.00000000   0.499E+00       0.001       32.256   0.100E-07
     TRS4 it   4 1.00000000   0.312E+00       0.001       32.256   0.100E-07
     TRS4 it   5 1.00000000   0.155E+00       0.001       32.256   0.100E-07
     TRS4 it   6 1.00000000   0.485E-01       0.001       32.256   0.100E-07
     TRS4 it   7 1.00000000   0.670E-02       0.001       31.112   0.100E-07
     TRS4 it   8 1.00000000   0.179E-03       0.001       32.256   0.100E-07
     TRS4 it   9 1.00000000   0.143E-06       0.001       32.256   0.100E-07
     TRS4 it  10 1.00000000   0.928E-13       0.001       32.256   0.100E-07
     Final TRS4 iteration   10 1.00000000   0.928E-13
     Chemical potential (mu):      -0.06539
 
 PAO| energy:  -7.6235805163959043      penalty:   5.4234187233944576E-033
 PAO|CG| warming up with steepest descent
 PAO|CG| beta:    0.0000000000000000     
 PAO| norm of gradient:  0.78335659657809598     
 PAO|LS| adapt:  T F F
 PAO|LS| adapt: scan_steps:    0.0000000000000000        0.0000000000000000        0.0000000000000000     
 PAO|LS| adapt: energies:   -7.6235805163959043        0.0000000000000000        0.0000000000000000     
 PAO| ======================= Iteration:         2 =============================

     Lanczos converged:  T threshold:   0.100E-02
     Est. extremal eigenvalues:    0.327E+01   0.127E+00
     Est. condition number :    0.257E+02
     NS sqrt iter    1 1.00000000   0.804E+00       0.002       41.575
     NS sqrt iter    2 1.00000000   0.425E+00       0.002       66.154
     NS sqrt iter    3 1.00000000   0.153E+00       0.002       67.927
     NS sqrt iter    4 1.00000000   0.142E-01       0.002       62.955
     NS sqrt iter    5 1.00000000   0.167E-04       0.002       54.816
     Final NS sqrt iter    5 1.00000000   0.424E-09

     Est. extremal eigenvalues     -0.92362     1.82937  converged:  T
     TRS4 it   1 1.00000000   0.878E+00       0.001       16.128   0.100E-07
     TRS4 it   2 1.00000000   0.672E+00       0.001       32.256   0.100E-07
     TRS4 it   3 1.00000000   0.483E+00       0.001       32.256   0.100E-07
     TRS4 it   4 1.00000000   0.292E+00       0.001       31.882   0.100E-07
     TRS4 it   5 1.00000000   0.135E+00       0.001       32.256   0.100E-07
     TRS4 it   6 1.00000000   0.373E-01       0.001       32.256   0.100E-07
     TRS4 it   7 1.00000000   0.400E-02       0.001       32.256   0.100E-07
     TRS4 it   8 1.00000000   0.645E-04       0.001       32.256   0.100E-07
     TRS4 it   9 1.00000000   0.185E-07       0.001       32.256   0.100E-07
     Final TRS4 iteration    9 1.00000000   0.185E-07
     Chemical potential (mu):      -0.05334
 
 PAO| energy:  -7.6790681180237383      penalty:   2.2472718537083109E-008
 PAO|LS| adapt:  T T F
 PAO|LS| adapt: scan_steps:    0.0000000000000000       0.10000000000000001        0.0000000000000000     
 PAO|LS| adapt: energies:   -7.6235805163959043       -7.6790681180237383        0.0000000000000000     
 PAO| ======================= Iteration:         3 =============================

     Lanczos converged:  T threshold:   0.100E-02
     Est. extremal eigenvalues:    0.318E+01   0.139E+00
     Est. condition number :    0.229E+02
     NS sqrt iter    1 1.00000000   0.786E+00       0.001       43.035
     NS sqrt iter    2 1.00000000   0.408E+00       0.002       60.679
     NS sqrt iter    3 1.00000000   0.136E+00       0.002       68.098
     NS sqrt iter    4 1.00000000   0.976E-02       0.002       67.463
     NS sqrt iter    5 1.00000000   0.551E-05       0.002       54.897
     Final NS sqrt iter    5 1.00000000   0.463E-10

     Est. extremal eigenvalues     -0.92705     1.78483  converged:  T
     TRS4 it   1 1.00000000   0.875E+00       0.001       16.128   0.100E-07
     TRS4 it   2 1.00000000   0.656E+00       0.001       32.256   0.100E-07
     TRS4 it   3 1.00000000   0.467E+00       0.001       32.256   0.100E-07
     TRS4 it   4 1.00000000   0.272E+00       0.001       32.256   0.100E-07
     TRS4 it   5 1.00000000   0.117E+00       0.001       32.256   0.100E-07
     TRS4 it   6 1.00000000   0.277E-01       0.001       32.256   0.100E-07
     TRS4 it   7 1.00000000   0.221E-02       0.001       32.256   0.100E-07
     TRS4 it   8 1.00000000   0.197E-04       0.001       32.256   0.100E-07
     TRS4 it   9 1.00000000   0.173E-08       0.001       32.256   0.100E-07
     Final TRS4 iteration    9 1.00000000   0.173E-08
     Chemical potential (mu):      -0.04032
 
 PAO| energy:  -7.7221416211448668      penalty:   3.5956336501270592E-007
 PAO|LS| adapt:  T T F
 PAO|LS| adapt: scan_steps:    0.0000000000000000       0.20000000000000001        0.0000000000000000     
 PAO|LS| adapt: energies:   -7.6235805163959043       -7.7221416211448668        0.0000000000000000     
 PAO| ======================= Iteration:         4 =============================

     Lanczos converged:  T threshold:   0.100E-02
     Est. extremal eigenvalues:    0.298E+01   0.157E+00
     Est. condition number :    0.190E+02
     NS sqrt iter    1 1.00000000   0.750E+00       0.001       43.515
     NS sqrt iter    2 1.00000000   0.374E+00       0.001       92.250
     NS sqrt iter    3 1.00000000   0.106E+00       0.002       67.326
     NS sqrt iter    4 1.00000000   0.474E-02       0.002       64.503
     NS sqrt iter    5 1.00000000   0.774E-06       0.002       52.227
     Final NS sqrt iter    5 1.00000000   0.100E-11

     Est. extremal eigenvalues     -0.93239     1.71983  converged:  T
     TRS4 it   1 1.00000000   0.870E+00       0.000       16.128   0.100E-07
     TRS4 it   2 1.00000000   0.628E+00       0.001       32.256   0.100E-07
     TRS4 it   3 1.00000000   0.437E+00       0.001       32.256   0.100E-07
     TRS4 it   4 1.00000000   0.235E+00       0.001       32.256   0.100E-07
     TRS4 it   5 1.00000000   0.850E-01       0.001       32.256   0.100E-07
     TRS4 it   6 1.00000000   0.142E-01       0.001       32.256   0.100E-07
     TRS4 it   7 1.00000000   0.550E-03       0.001       32.256   0.100E-07
     TRS4 it   8 1.00000000   0.119E-05       0.001       32.256   0.100E-07
     TRS4 it   9 1.00000000   0.629E-11       0.001       32.256   0.100E-07
     Final TRS4 iteration    9 1.00000000   0.629E-11
     Chemical potential (mu):      -0.01159
 
 PAO| energy:  -7.7694177524953458      penalty:   5.7530127875686722E-006
 PAO|LS| Need extra step
 PAO|LS| adapt:  T T F
 PAO|LS| adapt: scan_steps:    0.0000000000000000       0.40000000000000002        0.0000000000000000     
 PAO|LS| adapt: energies:   -7.6235805163959043       -7.7694177524953458        0.0000000000000000     
 PAO| ======================= Iteration:         5 =============================

     Lanczos converged:  T threshold:   0.100E-02
     Est. extremal eigenvalues:    0.263E+01   0.184E+00
     Est. condition number :    0.143E+02
     NS sqrt iter    1 1.00000000   0.687E+00       0.001       59.430
     NS sqrt iter    2 1.00000000   0.313E+00       0.001       93.555
     NS sqrt iter    3 1.00000000   0.653E-01       0.001       96.573
     NS sqrt iter    4 1.00000000   0.130E-02       0.001       91.970
     NS sqrt iter    5 1.00000000   0.216E-07       0.001       41.675
     Final NS sqrt iter    5 1.00000000   0.226E-08

     Est. extremal eigenvalues     -0.93365     1.64715  converged:  T
     TRS4 it   1 1.00000000   0.864E+00       0.001       16.128   0.100E-07
     TRS4 it   2 1.00000000   0.591E+00       0.001       32.256   0.100E-07
     TRS4 it   3 1.00000000   0.388E+00       0.001       32.256   0.100E-07
     TRS4 it   4 1.00000000   0.178E+00       0.001       32.256   0.100E-07
     TRS4 it   5 1.00000000   0.452E-01       0.001       32.256   0.100E-07
     TRS4 it   6 1.00000000   0.360E-02       0.001       32.256   0.100E-07
     TRS4 it   7 1.00000000   0.296E-04       0.001       32.256   0.100E-07
     TRS4 it   8 1.00000000   0.253E-08       0.001       28.281   0.100E-07
     Final TRS4 iteration    8 1.00000000   0.253E-08
     Chemical potential (mu):       0.03823
 
 PAO| energy:  -7.7146821722173682      penalty:   9.2048196180067021E-005
 PAO|LS| Need extra step
 PAO|LS| adapt:  T T T
 PAO|LS| adapt: scan_steps:    0.0000000000000000       0.40000000000000002       0.80000000000000004     
 PAO|LS| adapt: energies:   -7.6235805163959043       -7.7694177524953458       -7.7146821722173682     
 PAO|LS| adapt: suggested step_size:   0.49084147838861403     
 PAO|LS| adapt: predicted energy  -7.7745901331818912     
 PAO| ======================= Iteration:         6 =============================

     Lanczos converged:  T threshold:   0.100E-02
     Est. extremal eigenvalues:    0.290E+01   0.164E+00
     Est. condition number :    0.177E+02
     NS sqrt iter    1 1.00000000   0.733E+00       0.002       41.002
     NS sqrt iter    2 1.00000000   0.359E+00       0.002       63.642
     NS sqrt iter    3 1.00000000   0.946E-01       0.002       64.391
     NS sqrt iter    4 1.00000000   0.348E-02       0.002       56.478
     NS sqrt iter    5 1.00000000   0.338E-06       0.002       50.877
     Final NS sqrt iter    5 1.00000000   0.161E-09

     Est. extremal eigenvalues     -0.93388     1.69811  converged:  T
     TRS4 it   1 1.00000000   0.868E+00       0.001       16.128   0.100E-07
     TRS4 it   2 1.00000000   0.618E+00       0.001       32.256   0.100E-07
     TRS4 it   3 1.00000000   0.425E+00       0.001       32.256   0.100E-07
     TRS4 it   4 1.00000000   0.220E+00       0.001       32.256   0.100E-07
     TRS4 it   5 1.00000000   0.732E-01       0.001       28.780   0.100E-07
     TRS4 it   6 1.00000000   0.102E-01       0.001       32.256   0.100E-07
     TRS4 it   7 1.00000000   0.274E-03       0.001       32.256   0.100E-07
     TRS4 it   8 1.00000000   0.283E-06       0.001       32.256   0.100E-07
     TRS4 it   9 1.00000000   0.354E-12       0.001       32.256   0.100E-07
     Final TRS4 iteration    9 1.00000000   0.354E-12
     Chemical potential (mu):       0.00232
 
 PAO| energy:  -7.7738753740730271      penalty:   1.3044288075517846E-005
 PAO|CG| warming up with steepest descent
 PAO|CG| beta:    0.0000000000000000     
 PAO| norm of gradient:  0.41763526918414845     
 PAO| energy improvement: -0.15029485767712281     
 PAO| step      6                   -7.773875374  0.261E-01  0.491E+00     0.122
 PAO|LS| adapt:  T F F
 PAO|LS| adapt: scan_steps:    0.0000000000000000        0.0000000000000000        0.0000000000000000     
 PAO|LS| adapt: energies:   -7.7738753740730271        0.0000000000000000        0.0000000000000000     
 PAO| ======================= Iteration:         7 =============================

     Lanczos converged:  T threshold:   0.100E-02
     Est. extremal eigenvalues:    0.281E+01   0.178E+00
     Est. condition number :    0.158E+02
     NS sqrt iter    1 1.00000000   0.716E+00       0.002       40.925
     NS sqrt iter    2 1.00000000   0.338E+00       0.002       63.361
     NS sqrt iter    3 1.00000000   0.791E-01       0.002       61.196
     NS sqrt iter    4 1.00000000   0.211E-02       0.002       65.469
     NS sqrt iter    5 1.00000000   0.849E-07       0.002       47.719
     Final NS sqrt iter    5 1.00000000   0.899E-09

     Est. extremal eigenvalues     -0.93561     1.68568  converged:  T
     TRS4 it   1 1.00000000   0.867E+00       0.001       16.128   0.100E-07
     TRS4 it   2 1.00000000   0.616E+00       0.001       28.240   0.100E-07
     TRS4 it   3 1.00000000   0.425E+00       0.001       32.256   0.100E-07
     TRS4 it   4 1.00000000   0.221E+00       0.001       32.256   0.100E-07
     TRS4 it   5 1.00000000   0.738E-01       0.001       32.256   0.100E-07
     TRS4 it   6 1.00000000   0.102E-01       0.001       32.256   0.100E-07
     TRS4 it   7 1.00000000   0.255E-03       0.001       32.256   0.100E-07
     TRS4 it   8 1.00000000   0.231E-06       0.001       32.256   0.100E-07
     TRS4 it   9 1.00000000   0.231E-12       0.001       32.256   0.100E-07
     Final TRS4 iteration    9 1.00000000   0.231E-12
     Chemical potential (mu):       0.00452
 
 PAO| energy:  -7.7679771566559515      penalty:   1.9785104914603970E-005
 PAO|LS| adapt:  T F T
 PAO|LS| adapt: scan_steps:    0.0000000000000000        0.0000000000000000       0.49084147838861403     
 PAO|LS| adapt: energies:   -7.7738753740730271        0.0000000000000000       -7.7679771566559515     
 PAO| ======================= Iteration:         8 =============================

     Lanczos converged:  T threshold:   0.100E-02
     Est. extremal eigenvalues:    0.285E+01   0.171E+00
     Est. condition number :    0.167E+02
     NS sqrt iter    1 1.00000000   0.725E+00       0.002       40.762
     NS sqrt iter    2 1.00000000   0.349E+00       0.002       63.868
     NS sqrt iter    3 1.00000000   0.866E-01       0.002       64.654
     NS sqrt iter    4 1.00000000   0.273E-02       0.002       64.473
     NS sqrt iter    5 1.00000000   0.173E-06       0.002       50.159
     Final NS sqrt iter    5 1.00000000   0.141E-08

     Est. extremal eigenvalues     -0.93569     1.69124  converged:  T
     TRS4 it   1 1.00000000   0.867E+00       0.001       16.128   0.100E-07
     TRS4 it   2 1.00000000   0.617E+00       0.001       32.256   0.100E-07
     TRS4 it   3 1.00000000   0.424E+00       0.001       32.256   0.100E-07
     TRS4 it   4 1.00000000   0.220E+00       0.001       32.256   0.100E-07
     TRS4 it   5 1.00000000   0.732E-01       0.001       32.256   0.100E-07
     TRS4 it   6 1.00000000   0.102E-01       0.001       32.256   0.100E-07
     TRS4 it   7 1.00000000   0.271E-03       0.001       32.256   0.100E-07
     TRS4 it   8 1.00000000   0.271E-06       0.001       31.318   0.100E-07
     TRS4 it   9 1.00000000   0.324E-12       0.001       32.256   0.100E-07
     Final TRS4 iteration    9 1.00000000   0.324E-12
     Chemical potential (mu):       0.00295
 
 PAO| energy:  -7.7935626928340502      penalty:   1.4152463103247957E-005
 PAO|LS| adapt:  T T T
 PAO|LS| adapt: scan_steps:    0.0000000000000000       0.24542073919430701       0.49084147838861403     
 PAO|LS| adapt: energies:   -7.7738753740730271       -7.7935626928340502       -7.7679771566559515     
 PAO|LS| adapt: suggested step_size:   0.22943384284798715     
 PAO|LS| adapt: predicted energy  -7.7936587464426248     
 PAO| ======================= Iteration:         9 =============================

     Lanczos converged:  T threshold:   0.100E-02
     Est. extremal eigenvalues:    0.286E+01   0.170E+00
     Est. condition number :    0.168E+02
     NS sqrt iter    1 1.00000000   0.725E+00       0.002       40.745
     NS sqrt iter    2 1.00000000   0.349E+00       0.002       64.682
     NS sqrt iter    3 1.00000000   0.872E-01       0.002       65.446
     NS sqrt iter    4 1.00000000   0.277E-02       0.002       57.686
     NS sqrt iter    5 1.00000000   0.181E-06       0.002       49.417
     Final NS sqrt iter    5 1.00000000   0.796E-09

     Est. extremal eigenvalues     -0.93563     1.69165  converged:  T
     TRS4 it   1 1.00000000   0.867E+00       0.001       16.128   0.100E-07
     TRS4 it   2 1.00000000   0.617E+00       0.001       32.256   0.100E-07
     TRS4 it   3 1.00000000   0.424E+00       0.001       29.453   0.100E-07
     TRS4 it   4 1.00000000   0.220E+00       0.001       32.256   0.100E-07
     TRS4 it   5 1.00000000   0.732E-01       0.001       32.256   0.100E-07
     TRS4 it   6 1.00000000   0.102E-01       0.001       32.256   0.100E-07
     TRS4 it   7 1.00000000   0.272E-03       0.001       32.256   0.100E-07
     TRS4 it   8 1.00000000   0.273E-06       0.001       32.256   0.100E-07
     TRS4 it   9 1.00000000   0.328E-12       0.001       32.256   0.100E-07
     Final TRS4 iteration    9 1.00000000   0.328E-12
     Chemical potential (mu):       0.00288
 
 PAO| energy:  -7.7936827372542439      penalty:   1.3980733692157560E-005
 PAO|CG| trace_G_new    3.6961051674635606E-002
 PAO|CG| trace_G_prev   0.17441921806651614     
 PAO|CG| trace_G_mix   -1.4532442103690826E-003
 PAO|CG| trace_D   0.17441921806651614     
 PAO|CG| trace_D_Gnew   1.4532442103690826E-003
 PAO|CG| beta:   0.22024118850455512     
 PAO| norm of gradient:  0.19225257260862755     
 PAO| energy improvement:  -1.9807363181216786E-002
 PAO| step      9                   -7.793682737  0.120E-01  0.229E+00     0.083
 PAO|LS| adapt:  T F F
 PAO|LS| adapt: scan_steps:    0.0000000000000000        0.0000000000000000        0.0000000000000000     
 PAO|LS| adapt: energies:   -7.7936827372542439        0.0000000000000000        0.0000000000000000     
 PAO| ======================= Iteration:        10 =============================

     Lanczos converged:  T threshold:   0.100E-02
     Est. extremal eigenvalues:    0.282E+01   0.176E+00
     Est. condition number :    0.160E+02
     NS sqrt iter    1 1.00000000   0.718E+00       0.002       40.915
     NS sqrt iter    2 1.00000000   0.341E+00       0.002       58.843
     NS sqrt iter    3 1.00000000   0.815E-01       0.002       64.509
     NS sqrt iter    4 1.00000000   0.228E-02       0.002       63.918
     NS sqrt iter    5 1.00000000   0.101E-06       0.002       47.910
     Final NS sqrt iter    5 1.00000000   0.104E-08

     Est. extremal eigenvalues     -0.93652     1.68789  converged:  T
     TRS4 it   1 1.00000000   0.865E+00       0.001       16.128   0.100E-07
     TRS4 it   2 1.00000000   0.615E+00       0.001       32.256   0.100E-07
     TRS4 it   3 1.00000000   0.422E+00       0.001       32.256   0.100E-07
     TRS4 it   4 1.00000000   0.217E+00       0.001       32.256   0.100E-07
     TRS4 it   5 1.00000000   0.713E-01       0.001       32.256   0.100E-07
     TRS4 it   6 1.00000000   0.964E-02       0.001       32.256   0.100E-07
     TRS4 it   7 1.00000000   0.237E-03       0.001       32.256   0.100E-07
     TRS4 it   8 1.00000000   0.201E-06       0.001       32.256   0.100E-07
     TRS4 it   9 1.00000000   0.176E-12       0.001       32.256   0.100E-07
     Final TRS4 iteration    9 1.00000000   0.176E-12
     Chemical potential (mu):       0.00609
 
 PAO| energy:  -7.7987341612701702      penalty:   1.4524805157004678E-005
 PAO|LS| adapt:  T T F
 PAO|LS| adapt: scan_steps:    0.0000000000000000       0.22943384284798715        0.0000000000000000     
 PAO|LS| adapt: energies:   -7.7936827372542439       -7.7987341612701702        0.0000000000000000     
 PAO| ======================= Iteration:        11 =============================

     Lanczos converged:  T threshold:   0.100E-02
     Est. extremal eigenvalues:    0.278E+01   0.182E+00
     Est. condition number :    0.153E+02
     NS sqrt iter    1 1.00000000   0.710E+00       0.002       41.243
     NS sqrt iter    2 1.00000000   0.333E+00       0.002       63.656
     NS sqrt iter    3 1.00000000   0.761E-01       0.002       63.420
     NS sqrt iter    4 1.00000000   0.186E-02       0.002       63.674
     NS sqrt iter    5 1.00000000   0.555E-07       0.002       43.079
     Final NS sqrt iter    5 1.00000000   0.532E-09

     Est. extremal eigenvalues     -0.93643     1.68560  converged:  T
     TRS4 it   1 1.00000000   0.864E+00       0.001       16.128   0.100E-07
     TRS4 it   2 1.00000000   0.614E+00       0.001       32.256   0.100E-07
     TRS4 it   3 1.00000000   0.421E+00       0.001       32.256   0.100E-07
     TRS4 it   4 1.00000000   0.215E+00       0.001       32.256   0.100E-07
     TRS4 it   5 1.00000000   0.694E-01       0.001       32.256   0.100E-07
     TRS4 it   6 1.00000000   0.908E-02       0.001       30.972   0.100E-07
     TRS4 it   7 1.00000000   0.206E-03       0.001       32.256   0.100E-07
     TRS4 it   8 1.00000000   0.148E-06       0.001       32.256   0.100E-07
     TRS4 it   9 1.00000000   0.937E-13       0.001       32.256   0.100E-07
     Final TRS4 iteration    9 1.00000000   0.937E-13
     Chemical potential (mu):       0.00942
 
 PAO| energy:  -7.7973185533656499      penalty:   1.5742254989385702E-005
 PAO|LS| adapt:  T T T
 PAO|LS| adapt: scan_steps:    0.0000000000000000       0.22943384284798715       0.45886768569597430     
 PAO|LS| adapt: energies:   -7.7936827372542439       -7.7987341612701702       -7.7973185533656499     
 PAO|LS| adapt: suggested step_size:   0.29392859659206050     
 PAO|LS| adapt: predicted energy  -7.7989896718150105     
 PAO| ======================= Iteration:        12 =============================

     Lanczos converged:  T threshold:   0.100E-02
     Est. extremal eigenvalues:    0.281E+01   0.178E+00
     Est. condition number :    0.158E+02
     NS sqrt iter    1 1.00000000   0.715E+00       0.002       41.583
     NS sqrt iter    2 1.00000000   0.339E+00       0.003       40.400
     NS sqrt iter    3 1.00000000   0.800E-01       0.002       65.184
     NS sqrt iter    4 1.00000000   0.215E-02       0.002       63.199
     NS sqrt iter    5 1.00000000   0.854E-07       0.002       48.320
     Final NS sqrt iter    5 1.00000000   0.956E-09

     Est. extremal eigenvalues     -0.93659     1.68710  converged:  T
     TRS4 it   1 1.00000000   0.865E+00       0.001       16.128   0.100E-07
     TRS4 it   2 1.00000000   0.615E+00       0.001       32.256   0.100E-07
     TRS4 it   3 1.00000000   0.422E+00       0.001       32.256   0.100E-07
     TRS4 it   4 1.00000000   0.216E+00       0.001       32.256   0.100E-07
     TRS4 it   5 1.00000000   0.707E-01       0.001       32.256   0.100E-07
     TRS4 it   6 1.00000000   0.948E-02       0.001       32.256   0.100E-07
     TRS4 it   7 1.00000000   0.227E-03       0.001       32.256   0.100E-07
     TRS4 it   8 1.00000000   0.185E-06       0.001       32.256   0.100E-07
     TRS4 it   9 1.00000000   0.148E-12       0.001       32.256   0.100E-07
     Final TRS4 iteration    9 1.00000000   0.148E-12
     Chemical potential (mu):       0.00702
 
 PAO| energy:  -7.7989734892968983      penalty:   1.4791308286859594E-005
 PAO|CG| trace_G_new    1.1858722366569752E-002
 PAO|CG| trace_G_prev    3.6961051674635606E-002
 PAO|CG| trace_G_mix   -4.5678155682712398E-004
 PAO|CG| trace_D    4.4781333391756571E-002
 PAO|CG| trace_D_Gnew   2.0899149793535284E-004
 PAO|CG| beta:   0.33320220517016158     
 PAO| norm of gradient:  0.10889776107234599     
 PAO| energy improvement:  -5.2907520426543897E-003
 PAO| step     12                   -7.798973489  0.681E-02  0.294E+00     0.083
 PAO|LS| adapt:  T F F
 PAO|LS| adapt: scan_steps:    0.0000000000000000        0.0000000000000000        0.0000000000000000     
 PAO|LS| adapt: energies:   -7.7989734892968983        0.0000000000000000        0.0000000000000000     
 PAO| ======================= Iteration:        13 =============================

     Lanczos converged:  T threshold:   0.100E-02
     Est. extremal eigenvalues:    0.277E+01   0.182E+00
     Est. condition number :    0.153E+02
     NS sqrt iter    1 1.00000000   0.708E+00       0.002       40.365
     NS sqrt iter    2 1.00000000   0.332E+00       0.002       64.543
     NS sqrt iter    3 1.00000000   0.757E-01       0.002       64.356
     NS sqrt iter    4 1.00000000   0.184E-02       0.002       64.590
     NS sqrt iter    5 1.00000000   0.537E-07       0.002       45.570
     Final NS sqrt iter    5 1.00000000   0.526E-09

     Est. extremal eigenvalues     -0.93707     1.68113  converged:  T
     TRS4 it   1 1.00000000   0.865E+00       0.001       16.128   0.100E-07
     TRS4 it   2 1.00000000   0.612E+00       0.001       32.256   0.100E-07
     TRS4 it   3 1.00000000   0.418E+00       0.001       32.256   0.100E-07
     TRS4 it   4 1.00000000   0.212E+00       0.001       32.256   0.100E-07
     TRS4 it   5 1.00000000   0.672E-01       0.001       32.256   0.100E-07
     TRS4 it   6 1.00000000   0.851E-02       0.001       32.256   0.100E-07
     TRS4 it   7 1.00000000   0.180E-03       0.001       31.765   0.100E-07
     TRS4 it   8 1.00000000   0.113E-06       0.001       32.256   0.100E-07
     TRS4 it   9 1.00000000   0.550E-13       0.001       32.256   0.100E-07
     Final TRS4 iteration    9 1.00000000   0.550E-13
     Chemical potential (mu):       0.01163
 
 PAO| energy:  -7.8010468636137960      penalty:   1.5103723725842116E-005
 PAO|LS| adapt:  T T F
 PAO|LS| adapt: scan_steps:    0.0000000000000000       0.29392859659206050        0.0000000000000000     
 PAO|LS| adapt: energies:   -7.7989734892968983       -7.8010468636137960        0.0000000000000000     
 PAO| ======================= Iteration:        14 =============================

     Lanczos converged:  T threshold:   0.100E-02
     Est. extremal eigenvalues:    0.274E+01   0.186E+00
     Est. condition number :    0.147E+02
     NS sqrt iter    1 1.00000000   0.702E+00       0.002       40.766
     NS sqrt iter    2 1.00000000   0.325E+00       0.002       63.869
     NS sqrt iter    3 1.00000000   0.716E-01       0.002       60.122
     NS sqrt iter    4 1.00000000   0.156E-02       0.002       63.743
     NS sqrt iter    5 1.00000000   0.336E-07       0.002       41.091
     Final NS sqrt iter    5 1.00000000   0.221E-08

     Est. extremal eigenvalues     -0.93705     1.67552  converged:  T
     TRS4 it   1 1.00000000   0.864E+00       0.001       16.128   0.100E-07
     TRS4 it   2 1.00000000   0.609E+00       0.001       31.708   0.100E-07
     TRS4 it   3 1.00000000   0.414E+00       0.001       32.256   0.100E-07
     TRS4 it   4 1.00000000   0.207E+00       0.001       32.256   0.100E-07
     TRS4 it   5 1.00000000   0.639E-01       0.001       32.256   0.100E-07
     TRS4 it   6 1.00000000   0.764E-02       0.001       32.256   0.100E-07
     TRS4 it   7 1.00000000   0.143E-03       0.001       32.256   0.100E-07
     TRS4 it   8 1.00000000   0.693E-07       0.001       32.256   0.100E-07
     Final TRS4 iteration    8 1.00000000   0.693E-07
     Chemical potential (mu):       0.01351
 
 PAO| energy:  -7.8003864324849195      penalty:   1.5899703401055133E-005
 PAO|LS| adapt:  T T T
 PAO|LS| adapt: scan_steps:    0.0000000000000000       0.29392859659206050       0.58785719318412100     
 PAO|LS| adapt: energies:   -7.7989734892968983       -7.8010468636137960       -7.8003864324849195     
 PAO|LS| adapt: suggested step_size:   0.36988579555099693     
 PAO|LS| adapt: predicted energy  -7.8011381470139955     
 PAO| ======================= Iteration:        15 =============================

     Lanczos converged:  T threshold:   0.100E-02
     Est. extremal eigenvalues:    0.276E+01   0.183E+00
     Est. condition number :    0.151E+02
     NS sqrt iter    1 1.00000000   0.707E+00       0.002       38.011
     NS sqrt iter    2 1.00000000   0.330E+00       0.002       65.078
     NS sqrt iter    3 1.00000000   0.746E-01       0.002       64.981
     NS sqrt iter    4 1.00000000   0.176E-02       0.002       65.040
     NS sqrt iter    5 1.00000000   0.476E-07       0.002       44.742
     Final NS sqrt iter    5 1.00000000   0.341E-09

     Est. extremal eigenvalues     -0.93712     1.67965  converged:  T
     TRS4 it   1 1.00000000   0.864E+00       0.001       16.128   0.100E-07
     TRS4 it   2 1.00000000   0.611E+00       0.001       32.256   0.100E-07
     TRS4 it   3 1.00000000   0.417E+00       0.001       32.256   0.100E-07
     TRS4 it   4 1.00000000   0.210E+00       0.001       32.256   0.100E-07
     TRS4 it   5 1.00000000   0.664E-01       0.001       32.256   0.100E-07
     TRS4 it   6 1.00000000   0.827E-02       0.001       32.256   0.100E-07
     TRS4 it   7 1.00000000   0.170E-03       0.001       32.256   0.100E-07
     TRS4 it   8 1.00000000   0.996E-07       0.001       32.256   0.100E-07
     TRS4 it   9 1.00000000   0.426E-13       0.001       31.018   0.100E-07
     Final TRS4 iteration    9 1.00000000   0.426E-13
     Chemical potential (mu):       0.01280
 
 PAO| energy:  -7.8011351261721265      penalty:   1.5260049463247083E-005
 PAO|CG| trace_G_new    2.6194243284631069E-003
 PAO|CG| trace_G_prev    1.1858722366569752E-002
 PAO|CG| trace_G_mix    6.5563411992712755E-005
 PAO|CG| trace_D    1.6691239261486045E-002
 PAO|CG| trace_D_Gnew   3.4049503681247154E-005
 PAO|CG| beta:   0.21535717234344215     
 PAO| norm of gradient:   5.1180311922292020E-002
 PAO| energy improvement:  -2.1616368752281900E-003
 PAO| step     15                   -7.801135126  0.320E-02  0.370E+00     0.081
 PAO|LS| adapt:  T F F
 PAO|LS| adapt: scan_steps:    0.0000000000000000        0.0000000000000000        0.0000000000000000     
 PAO|LS| adapt: energies:   -7.8011351261721265        0.0000000000000000        0.0000000000000000     
 PAO| ======================= Iteration:        16 =============================

     Lanczos converged:  T threshold:   0.100E-02
     Est. extremal eigenvalues:    0.276E+01   0.183E+00
     Est. condition number :    0.150E+02
     NS sqrt iter    1 1.00000000   0.705E+00       0.002       41.432
     NS sqrt iter    2 1.00000000   0.329E+00       0.002       63.939
     NS sqrt iter    3 1.00000000   0.739E-01       0.002       64.152
     NS sqrt iter    4 1.00000000   0.171E-02       0.002       65.008
     NS sqrt iter    5 1.00000000   0.435E-07       0.002       42.869
     Final NS sqrt iter    5 1.00000000   0.324E-09

     Est. extremal eigenvalues     -0.93714     1.67955  converged:  T
     TRS4 it   1 1.00000000   0.865E+00       0.001       16.128   0.100E-07
     TRS4 it   2 1.00000000   0.611E+00       0.001       32.256   0.100E-07
     TRS4 it   3 1.00000000   0.415E+00       0.001       32.256   0.100E-07
     TRS4 it   4 1.00000000   0.209E+00       0.001       32.256   0.100E-07
     TRS4 it   5 1.00000000   0.653E-01       0.001       32.256   0.100E-07
     TRS4 it   6 1.00000000   0.801E-02       0.001       31.099   0.100E-07
     TRS4 it   7 1.00000000   0.160E-03       0.001       32.256   0.100E-07
     TRS4 it   8 1.00000000   0.894E-07       0.001       32.256   0.100E-07
     TRS4 it   9 1.00000000   0.336E-13       0.001       32.256   0.100E-07
     Final TRS4 iteration    9 1.00000000   0.336E-13
     Chemical potential (mu):       0.01365
 
 PAO| energy:  -7.8012625540701555      penalty:   1.5041740538821725E-005
 PAO|LS| adapt:  T T F
 PAO|LS| adapt: scan_steps:    0.0000000000000000       0.36988579555099693        0.0000000000000000     
 PAO|LS| adapt: energies:   -7.8011351261721265       -7.8012625540701555        0.0000000000000000     
 PAO| ======================= Iteration:        17 =============================

     Lanczos converged:  T threshold:   0.100E-02
     Est. extremal eigenvalues:    0.275E+01   0.184E+00
     Est. condition number :    0.149E+02
     NS sqrt iter    1 1.00000000   0.703E+00       0.002       41.596
     NS sqrt iter    2 1.00000000   0.327E+00       0.002       63.924
     NS sqrt iter    3 1.00000000   0.733E-01       0.002       60.778
     NS sqrt iter    4 1.00000000   0.166E-02       0.002       64.467
     NS sqrt iter    5 1.00000000   0.399E-07       0.002       43.146
     Final NS sqrt iter    5 1.00000000   0.322E-09

     Est. extremal eigenvalues     -0.93705     1.67953  converged:  T
     TRS4 it   1 1.00000000   0.865E+00       0.001       16.128   0.100E-07
     TRS4 it   2 1.00000000   0.610E+00       0.001       32.256   0.100E-07
     TRS4 it   3 1.00000000   0.414E+00       0.001       32.256   0.100E-07
     TRS4 it   4 1.00000000   0.207E+00       0.001       32.256   0.100E-07
     TRS4 it   5 1.00000000   0.643E-01       0.001       32.256   0.100E-07
     TRS4 it   6 1.00000000   0.776E-02       0.001       32.256   0.100E-07
     TRS4 it   7 1.00000000   0.151E-03       0.001       32.256   0.100E-07
     TRS4 it   8 1.00000000   0.804E-07       0.001       32.256   0.100E-07
     TRS4 it   9 1.00000000   0.281E-13       0.001       32.256   0.100E-07
     Final TRS4 iteration    9 1.00000000   0.281E-13
     Chemical potential (mu):       0.01447
 
 PAO| energy:  -7.7997067220788185      penalty:   1.4948651505129842E-005
 PAO|LS| adapt:  T T T
 PAO|LS| adapt: scan_steps:    0.0000000000000000       0.36988579555099693       0.73977159110199386     
 PAO|LS| adapt: energies:   -7.8011351261721265       -7.8012625540701555       -7.7997067220788185     
 PAO|LS| adapt: suggested step_size:   0.21294437855432385     
 PAO|LS| adapt: predicted energy  -7.8014140709472182     
 PAO| ======================= Iteration:        18 =============================

     Lanczos converged:  T threshold:   0.100E-02
     Est. extremal eigenvalues:    0.276E+01   0.183E+00
     Est. condition number :    0.151E+02
     NS sqrt iter    1 1.00000000   0.706E+00       0.002       41.336
     NS sqrt iter    2 1.00000000   0.329E+00       0.002       65.067
     NS sqrt iter    3 1.00000000   0.742E-01       0.002       64.686
     NS sqrt iter    4 1.00000000   0.173E-02       0.002       65.230
     NS sqrt iter    5 1.00000000   0.452E-07       0.002       44.781
     Final NS sqrt iter    5 1.00000000   0.335E-09

     Est. extremal eigenvalues     -0.93715     1.67958  converged:  T
     TRS4 it   1 1.00000000   0.865E+00       0.001       16.128   0.100E-07
     TRS4 it   2 1.00000000   0.611E+00       0.001       32.256   0.100E-07
     TRS4 it   3 1.00000000   0.416E+00       0.001       32.256   0.100E-07
     TRS4 it   4 1.00000000   0.209E+00       0.001       32.256   0.100E-07
     TRS4 it   5 1.00000000   0.657E-01       0.001       32.256   0.100E-07
     TRS4 it   6 1.00000000   0.812E-02       0.001       32.256   0.100E-07
     TRS4 it   7 1.00000000   0.164E-03       0.001       29.054   0.100E-07
     TRS4 it   8 1.00000000   0.936E-07       0.001       32.256   0.100E-07
     TRS4 it   9 1.00000000   0.369E-13       0.001       32.256   0.100E-07
     Final TRS4 iteration    9 1.00000000   0.369E-13
     Chemical potential (mu):       0.01329
 
 PAO| energy:  -7.8014135964323712      penalty:   1.5119342726872358E-005
 PAO|CG| trace_G_new    7.3005301646472632E-004
 PAO|CG| trace_G_prev    2.6194243284631069E-003
 PAO|CG| trace_G_mix    1.7238247706148987E-006
 PAO|CG| trace_D    3.3788768920845272E-003
 PAO|CG| trace_D_Gnew  -1.8161882338610671E-006
 PAO|CG| beta:   0.27804933464958825     
 PAO| norm of gradient:   2.7019493268096762E-002
 PAO| energy improvement:  -2.7847026024474530E-004
 PAO| step     18                   -7.801413596  0.169E-02  0.213E+00     0.082
 PAO|LS| adapt:  T F F
 PAO|LS| adapt: scan_steps:    0.0000000000000000        0.0000000000000000        0.0000000000000000     
 PAO|LS| adapt: energies:   -7.8014135964323712        0.0000000000000000        0.0000000000000000     
 PAO| ======================= Iteration:        19 =============================

     Lanczos converged:  T threshold:   0.100E-02
     Est. extremal eigenvalues:    0.276E+01   0.183E+00
     Est. condition number :    0.151E+02
     NS sqrt iter    1 1.00000000   0.706E+00       0.002       40.503
     NS sqrt iter    2 1.00000000   0.329E+00       0.002       64.302
     NS sqrt iter    3 1.00000000   0.744E-01       0.002       65.279
     NS sqrt iter    4 1.00000000   0.174E-02       0.002       58.838
     NS sqrt iter    5 1.00000000   0.457E-07       0.002       44.554
     Final NS sqrt iter    5 1.00000000   0.341E-09

     Est. extremal eigenvalues     -0.93715     1.67991  converged:  T
     TRS4 it   1 1.00000000   0.865E+00       0.001       16.128   0.100E-07
     TRS4 it   2 1.00000000   0.611E+00       0.001       32.256   0.100E-07
     TRS4 it   3 1.00000000   0.416E+00       0.001       32.256   0.100E-07
     TRS4 it   4 1.00000000   0.209E+00       0.001       32.256   0.100E-07
     TRS4 it   5 1.00000000   0.657E-01       0.001       32.256   0.100E-07
     TRS4 it   6 1.00000000   0.811E-02       0.001       32.256   0.100E-07
     TRS4 it   7 1.00000000   0.165E-03       0.001       32.256   0.100E-07
     TRS4 it   8 1.00000000   0.951E-07       0.001       32.256   0.100E-07
     TRS4 it   9 1.00000000   0.385E-13       0.001       32.256   0.100E-07
     Final TRS4 iteration    9 1.00000000   0.385E-13
     Chemical potential (mu):       0.01302
 
 PAO| energy:  -7.8015322229591577      penalty:   1.4829399240230224E-005
 PAO|LS| adapt:  T T F
 PAO|LS| adapt: scan_steps:    0.0000000000000000       0.21294437855432385        0.0000000000000000     
 PAO|LS| adapt: energies:   -7.8014135964323712       -7.8015322229591577        0.0000000000000000     
 PAO| ======================= Iteration:        20 =============================

     Lanczos converged:  T threshold:   0.100E-02
     Est. extremal eigenvalues:    0.276E+01   0.183E+00
     Est. condition number :    0.151E+02
     NS sqrt iter    1 1.00000000   0.705E+00       0.002       38.133
     NS sqrt iter    2 1.00000000   0.330E+00       0.002       64.069
     NS sqrt iter    3 1.00000000   0.746E-01       0.002       62.736
     NS sqrt iter    4 1.00000000   0.175E-02       0.002       63.957
     NS sqrt iter    5 1.00000000   0.462E-07       0.002       44.461
     Final NS sqrt iter    5 1.00000000   0.341E-09

     Est. extremal eigenvalues     -0.93715     1.68024  converged:  T
     TRS4 it   1 1.00000000   0.865E+00       0.001       16.128   0.100E-07
     TRS4 it   2 1.00000000   0.611E+00       0.001       32.256   0.100E-07
     TRS4 it   3 1.00000000   0.416E+00       0.001       32.256   0.100E-07
     TRS4 it   4 1.00000000   0.209E+00       0.001       32.256   0.100E-07
     TRS4 it   5 1.00000000   0.656E-01       0.001       32.256   0.100E-07
     TRS4 it   6 1.00000000   0.811E-02       0.001       32.256   0.100E-07
     TRS4 it   7 1.00000000   0.165E-03       0.001       32.256   0.100E-07
     TRS4 it   8 1.00000000   0.966E-07       0.001       32.256   0.100E-07
     TRS4 it   9 1.00000000   0.405E-13       0.001       30.174   0.100E-07
     Final TRS4 iteration    9 1.00000000   0.405E-13
     Chemical potential (mu):       0.01275
 
 PAO| energy:  -7.8015765588217194      penalty:   1.4551944832976038E-005
 PAO|LS| adapt:  T T F
 PAO|LS| adapt: scan_steps:    0.0000000000000000       0.42588875710864771        0.0000000000000000     
 PAO|LS| adapt: energies:   -7.8014135964323712       -7.8015765588217194        0.0000000000000000     
 PAO| ======================= Iteration:        21 =============================

     Lanczos converged:  T threshold:   0.100E-02
     Est. extremal eigenvalues:    0.276E+01   0.183E+00
     Est. condition number :    0.151E+02
     NS sqrt iter    1 1.00000000   0.705E+00       0.002       41.163
     NS sqrt iter    2 1.00000000   0.330E+00       0.002       63.867
     NS sqrt iter    3 1.00000000   0.751E-01       0.002       62.315
     NS sqrt iter    4 1.00000000   0.177E-02       0.002       57.992
     NS sqrt iter    5 1.00000000   0.473E-07       0.002       44.675
     Final NS sqrt iter    5 1.00000000   0.370E-09

     Est. extremal eigenvalues     -0.93714     1.68090  converged:  T
     TRS4 it   1 1.00000000   0.865E+00       0.001       16.128   0.100E-07
     TRS4 it   2 1.00000000   0.611E+00       0.001       32.256   0.100E-07
     TRS4 it   3 1.00000000   0.415E+00       0.001       32.256   0.100E-07
     TRS4 it   4 1.00000000   0.209E+00       0.001       32.256   0.100E-07
     TRS4 it   5 1.00000000   0.654E-01       0.001       29.271   0.100E-07
     TRS4 it   6 1.00000000   0.809E-02       0.001       32.256   0.100E-07
     TRS4 it   7 1.00000000   0.167E-03       0.001       32.256   0.100E-07
     TRS4 it   8 1.00000000   0.997E-07       0.001       32.256   0.100E-07
     TRS4 it   9 1.00000000   0.435E-13       0.001       32.256   0.100E-07
     Final TRS4 iteration    9 1.00000000   0.435E-13
     Chemical potential (mu):       0.01220
 
 PAO| energy:  -7.8014399150826055      penalty:   1.4033929384095068E-005
 PAO|LS| Need extra step
 PAO|LS| adapt:  T T T
 PAO|LS| adapt: scan_steps:    0.0000000000000000       0.42588875710864771       0.85177751421729542     
 PAO|LS| adapt: energies:   -7.8014135964323712       -7.8015765588217194       -7.8014399150826055     
 PAO|LS| adapt: suggested step_size:   0.44459467827018934     
 PAO|LS| adapt: predicted energy  -7.8015768478142018     
 PAO| ======================= Iteration:        22 =============================

     Lanczos converged:  T threshold:   0.100E-02
     Est. extremal eigenvalues:    0.276E+01   0.183E+00
     Est. condition number :    0.151E+02
     NS sqrt iter    1 1.00000000   0.705E+00       0.002       41.043
     NS sqrt iter    2 1.00000000   0.330E+00       0.002       58.776
     NS sqrt iter    3 1.00000000   0.746E-01       0.002       64.897
     NS sqrt iter    4 1.00000000   0.175E-02       0.002       65.313
     NS sqrt iter    5 1.00000000   0.462E-07       0.002       44.182
     Final NS sqrt iter    5 1.00000000   0.341E-09

     Est. extremal eigenvalues     -0.93715     1.68027  converged:  T
     TRS4 it   1 1.00000000   0.865E+00       0.001       16.128   0.100E-07
     TRS4 it   2 1.00000000   0.611E+00       0.001       32.256   0.100E-07
     TRS4 it   3 1.00000000   0.416E+00       0.001       32.256   0.100E-07
     TRS4 it   4 1.00000000   0.209E+00       0.001       32.256   0.100E-07
     TRS4 it   5 1.00000000   0.656E-01       0.001       32.256   0.100E-07
     TRS4 it   6 1.00000000   0.811E-02       0.001       32.256   0.100E-07
     TRS4 it   7 1.00000000   0.166E-03       0.001       32.256   0.100E-07
     TRS4 it   8 1.00000000   0.967E-07       0.001       32.256   0.100E-07
     TRS4 it   9 1.00000000   0.409E-13       0.001       32.256   0.100E-07
     Final TRS4 iteration    9 1.00000000   0.409E-13
     Chemical potential (mu):       0.01272
 
 PAO| energy:  -7.8015768835730936      penalty:   1.4528162942842181E-005
 PAO|CG| trace_G_new    2.2531317597409799E-004
 PAO|CG| trace_G_prev    7.3005301646472632E-004
 PAO|CG| trace_G_mix    3.1063389095216785E-006
 PAO|CG| trace_D    9.9228880908986306E-004
 PAO|CG| trace_D_Gnew  -1.9050381327381894E-006
 PAO|CG| beta:   0.30437082246521008     
 PAO| norm of gradient:   1.5010435569099851E-002
 PAO| energy improvement:  -1.6328714072244566E-004
 PAO| step     22                   -7.801576884  0.938E-03  0.445E+00     0.108
 PAO|LS| adapt:  T F F
 PAO|LS| adapt: scan_steps:    0.0000000000000000        0.0000000000000000        0.0000000000000000     
 PAO|LS| adapt: energies:   -7.8015768835730936        0.0000000000000000        0.0000000000000000     
 PAO| ======================= Iteration:        23 =============================

     Lanczos converged:  T threshold:   0.100E-02
     Est. extremal eigenvalues:    0.276E+01   0.183E+00
     Est. condition number :    0.151E+02
     NS sqrt iter    1 1.00000000   0.705E+00       0.002       39.934
     NS sqrt iter    2 1.00000000   0.330E+00       0.002       64.388
     NS sqrt iter    3 1.00000000   0.747E-01       0.002       63.531
     NS sqrt iter    4 1.00000000   0.175E-02       0.002       64.127
     NS sqrt iter    5 1.00000000   0.463E-07       0.002       41.062
     Final NS sqrt iter    5 1.00000000   0.344E-09

     Est. extremal eigenvalues     -0.93715     1.68004  converged:  T
     TRS4 it   1 1.00000000   0.865E+00       0.001       16.128   0.100E-07
     TRS4 it   2 1.00000000   0.611E+00       0.001       32.256   0.100E-07
     TRS4 it   3 1.00000000   0.416E+00       0.001       32.256   0.100E-07
     TRS4 it   4 1.00000000   0.209E+00       0.001       32.256   0.100E-07
     TRS4 it   5 1.00000000   0.656E-01       0.001       32.256   0.100E-07
     TRS4 it   6 1.00000000   0.814E-02       0.001       29.229   0.100E-07
     TRS4 it   7 1.00000000   0.167E-03       0.001       32.256   0.100E-07
     TRS4 it   8 1.00000000   0.989E-07       0.001       32.256   0.100E-07
     TRS4 it   9 1.00000000   0.426E-13       0.001       32.256   0.100E-07
     Final TRS4 iteration    9 1.00000000   0.426E-13
     Chemical potential (mu):       0.01243
 
 PAO| energy:  -7.8016269865012005      penalty:   1.3844019568313031E-005
 PAO|LS| adapt:  T T F
 PAO|LS| adapt: scan_steps:    0.0000000000000000       0.44459467827018934        0.0000000000000000     
 PAO|LS| adapt: energies:   -7.8015768835730936       -7.8016269865012005        0.0000000000000000     
 PAO| ======================= Iteration:        24 =============================

     Lanczos converged:  T threshold:   0.100E-02
     Est. extremal eigenvalues:    0.276E+01   0.183E+00
     Est. condition number :    0.151E+02
     NS sqrt iter    1 1.00000000   0.705E+00       0.002       39.636
     NS sqrt iter    2 1.00000000   0.330E+00       0.002       63.879
     NS sqrt iter    3 1.00000000   0.747E-01       0.002       56.338
     NS sqrt iter    4 1.00000000   0.175E-02       0.002       64.006
     NS sqrt iter    5 1.00000000   0.464E-07       0.002       44.402
     Final NS sqrt iter    5 1.00000000   0.347E-09

     Est. extremal eigenvalues     -0.93714     1.67982  converged:  T
     TRS4 it   1 1.00000000   0.865E+00       0.001       16.128   0.100E-07
     TRS4 it   2 1.00000000   0.611E+00       0.001       32.256   0.100E-07
     TRS4 it   3 1.00000000   0.416E+00       0.001       32.256   0.100E-07
     TRS4 it   4 1.00000000   0.209E+00       0.001       32.256   0.100E-07
     TRS4 it   5 1.00000000   0.657E-01       0.001       32.256   0.100E-07
     TRS4 it   6 1.00000000   0.817E-02       0.001       32.256   0.100E-07
     TRS4 it   7 1.00000000   0.169E-03       0.001       32.256   0.100E-07
     TRS4 it   8 1.00000000   0.101E-06       0.001       32.256   0.100E-07
     TRS4 it   9 1.00000000   0.444E-13       0.001       32.256   0.100E-07
     Final TRS4 iteration    9 1.00000000   0.444E-13
     Chemical potential (mu):       0.01215
 
 PAO| energy:  -7.8015757768146266      penalty:   1.3188472345970308E-005
 PAO|LS| adapt:  T T T
 PAO|LS| adapt: scan_steps:    0.0000000000000000       0.44459467827018934       0.88918935654037867     
 PAO|LS| adapt: energies:   -7.8015768835730936       -7.8016269865012005       -7.8015757768146266     
 PAO|LS| adapt: suggested step_size:   0.44216625942939741     
 PAO|LS| adapt: predicted energy  -7.8016269880125053     
 PAO| ======================= Iteration:        25 =============================

     Lanczos converged:  T threshold:   0.100E-02
     Est. extremal eigenvalues:    0.276E+01   0.183E+00
     Est. condition number :    0.151E+02
     NS sqrt iter    1 1.00000000   0.705E+00       0.002       41.323
     NS sqrt iter    2 1.00000000   0.330E+00       0.002       62.270
     NS sqrt iter    3 1.00000000   0.747E-01       0.002       61.990
     NS sqrt iter    4 1.00000000   0.175E-02       0.002       62.391
     NS sqrt iter    5 1.00000000   0.463E-07       0.002       41.261
     Final NS sqrt iter    5 1.00000000   0.344E-09

     Est. extremal eigenvalues     -0.93715     1.68005  converged:  T
     TRS4 it   1 1.00000000   0.865E+00       0.001       16.128   0.100E-07
     TRS4 it   2 1.00000000   0.611E+00       0.001       32.256   0.100E-07
     TRS4 it   3 1.00000000   0.416E+00       0.001       32.256   0.100E-07
     TRS4 it   4 1.00000000   0.209E+00       0.001       32.256   0.100E-07
     TRS4 it   5 1.00000000   0.656E-01       0.001       32.256   0.100E-07
     TRS4 it   6 1.00000000   0.814E-02       0.001       27.927   0.100E-07
     TRS4 it   7 1.00000000   0.167E-03       0.001       32.256   0.100E-07
     TRS4 it   8 1.00000000   0.989E-07       0.001       32.256   0.100E-07
     TRS4 it   9 1.00000000   0.424E-13       0.001       32.256   0.100E-07
     Final TRS4 iteration    9 1.00000000   0.424E-13
     Chemical potential (mu):       0.01244
 
 PAO| energy:  -7.8016269871154602      penalty:   1.3847678195109001E-005
 PAO|CG| trace_G_new    8.1526758430786495E-005
 PAO|CG| trace_G_prev    2.2531317597409799E-004
 PAO|CG| trace_G_mix    7.4258946635651617E-007
 PAO|CG| trace_D    3.1840007254375663E-004
 PAO|CG| trace_D_Gnew  -3.6946526618396075E-007
 PAO|CG| beta:   0.35854169919346807     
 PAO| norm of gradient:   9.0292169334215515E-003
 PAO| energy improvement:  -5.0103542366564113E-005
 PAO| step     25                   -7.801626987  0.564E-03  0.442E+00     0.084
 PAO|LS| adapt:  T F F
 PAO|LS| adapt: scan_steps:    0.0000000000000000        0.0000000000000000        0.0000000000000000     
 PAO|LS| adapt: energies:   -7.8016269871154602        0.0000000000000000        0.0000000000000000     
 PAO| ======================= Iteration:        26 =============================

     Lanczos converged:  T threshold:   0.100E-02
     Est. extremal eigenvalues:    0.276E+01   0.183E+00
     Est. condition number :    0.151E+02
     NS sqrt iter    1 1.00000000   0.705E+00       0.002       40.035
     NS sqrt iter    2 1.00000000   0.330E+00       0.002       64.112
     NS sqrt iter    3 1.00000000   0.746E-01       0.002       58.656
     NS sqrt iter    4 1.00000000   0.175E-02       0.002       63.888
     NS sqrt iter    5 1.00000000   0.460E-07       0.002       44.491
     Final NS sqrt iter    5 1.00000000   0.348E-09

     Est. extremal eigenvalues     -0.93715     1.67969  converged:  T
     TRS4 it   1 1.00000000   0.865E+00       0.001       16.128   0.100E-07
     TRS4 it   2 1.00000000   0.611E+00       0.001       28.854   0.100E-07
     TRS4 it   3 1.00000000   0.416E+00       0.001       32.256   0.100E-07
     TRS4 it   4 1.00000000   0.209E+00       0.001       32.256   0.100E-07
     TRS4 it   5 1.00000000   0.655E-01       0.001       32.256   0.100E-07
     TRS4 it   6 1.00000000   0.811E-02       0.001       32.256   0.100E-07
     TRS4 it   7 1.00000000   0.166E-03       0.001       32.256   0.100E-07
     TRS4 it   8 1.00000000   0.974E-07       0.001       32.256   0.100E-07
     TRS4 it   9 1.00000000   0.406E-13       0.001       32.256   0.100E-07
     Final TRS4 iteration    9 1.00000000   0.406E-13
     Chemical potential (mu):       0.01258
 
 PAO| energy:  -7.8016313996135240      penalty:   1.3121623597472666E-005
 PAO|LS| adapt:  T T F
 PAO|LS| adapt: scan_steps:    0.0000000000000000       0.44216625942939741        0.0000000000000000     
 PAO|LS| adapt: energies:   -7.8016269871154602       -7.8016313996135240        0.0000000000000000     
 PAO| ======================= Iteration:        27 =============================

     Lanczos converged:  T threshold:   0.100E-02
     Est. extremal eigenvalues:    0.276E+01   0.183E+00
     Est. condition number :    0.151E+02
     NS sqrt iter    1 1.00000000   0.705E+00       0.002       40.478
     NS sqrt iter    2 1.00000000   0.329E+00       0.002       64.075
     NS sqrt iter    3 1.00000000   0.745E-01       0.002       64.869
     NS sqrt iter    4 1.00000000   0.174E-02       0.002       63.122
     NS sqrt iter    5 1.00000000   0.457E-07       0.002       40.778
     Final NS sqrt iter    5 1.00000000   0.346E-09

     Est. extremal eigenvalues     -0.93715     1.67933  converged:  T
     TRS4 it   1 1.00000000   0.865E+00       0.001       16.128   0.100E-07
     TRS4 it   2 1.00000000   0.611E+00       0.001       32.256   0.100E-07
     TRS4 it   3 1.00000000   0.415E+00       0.001       32.256   0.100E-07
     TRS4 it   4 1.00000000   0.209E+00       0.001       32.256   0.100E-07
     TRS4 it   5 1.00000000   0.654E-01       0.001       32.256   0.100E-07
     TRS4 it   6 1.00000000   0.809E-02       0.001       32.256   0.100E-07
     TRS4 it   7 1.00000000   0.165E-03       0.001       29.835   0.100E-07
     TRS4 it   8 1.00000000   0.959E-07       0.001       32.256   0.100E-07
     TRS4 it   9 1.00000000   0.393E-13       0.001       32.256   0.100E-07
     Final TRS4 iteration    9 1.00000000   0.393E-13
     Chemical potential (mu):       0.01273
 
 PAO| energy:  -7.8015723114241817      penalty:   1.2419565494197900E-005
 PAO|LS| adapt:  T T T
 PAO|LS| adapt: scan_steps:    0.0000000000000000       0.44216625942939741       0.88433251885879482     
 PAO|LS| adapt: energies:   -7.8016269871154602       -7.8016313996135240       -7.8015723114241817     
 PAO|LS| adapt: suggested step_size:   0.25180811621982480     
 PAO|LS| adapt: predicted energy  -7.8016372842569401     
 PAO| ======================= Iteration:        28 =============================

     Lanczos converged:  T threshold:   0.100E-02
     Est. extremal eigenvalues:    0.276E+01   0.183E+00
     Est. condition number :    0.151E+02
     NS sqrt iter    1 1.00000000   0.705E+00       0.002       39.412
     NS sqrt iter    2 1.00000000   0.330E+00       0.002       63.200
     NS sqrt iter    3 1.00000000   0.746E-01       0.002       58.232
     NS sqrt iter    4 1.00000000   0.175E-02       0.002       53.902
     NS sqrt iter    5 1.00000000   0.461E-07       0.002       32.555
     Final NS sqrt iter    5 1.00000000   0.349E-09

     Est. extremal eigenvalues     -0.93715     1.67984  converged:  T
     TRS4 it   1 1.00000000   0.865E+00       0.001       16.128   0.100E-07
     TRS4 it   2 1.00000000   0.611E+00       0.001       32.256   0.100E-07
     TRS4 it   3 1.00000000   0.416E+00       0.001       32.256   0.100E-07
     TRS4 it   4 1.00000000   0.209E+00       0.001       32.256   0.100E-07
     TRS4 it   5 1.00000000   0.656E-01       0.001       32.256   0.100E-07
     TRS4 it   6 1.00000000   0.812E-02       0.001       32.256   0.100E-07
     TRS4 it   7 1.00000000   0.167E-03       0.001       32.256   0.100E-07
     TRS4 it   8 1.00000000   0.980E-07       0.001       32.256   0.100E-07
     TRS4 it   9 1.00000000   0.417E-13       0.001       32.256   0.100E-07
     Final TRS4 iteration    9 1.00000000   0.417E-13
     Chemical potential (mu):       0.01252
 
 PAO| energy:  -7.8016372748332063      penalty:   1.3431237964792334E-005
 PAO|CG| trace_G_new    3.2994304796814032E-005
 PAO|CG| trace_G_prev    8.1526758430786495E-005
 PAO|CG| trace_G_mix    5.5556992587796604E-008
 PAO|CG| trace_D    1.2272270974437923E-004
 PAO|CG| trace_D_Gnew  -2.6126596030461816E-008
 PAO|CG| beta:   0.40402376395463008     
 PAO| norm of gradient:   5.7440669213384022E-003
 PAO| energy improvement:  -1.0287717746138014E-005
 PAO| step     28                   -7.801637275  0.359E-03  0.252E+00     0.085
 PAO|LS| adapt:  T F F
 PAO|LS| adapt: scan_steps:    0.0000000000000000        0.0000000000000000        0.0000000000000000     
 PAO|LS| adapt: energies:   -7.8016372748332063        0.0000000000000000        0.0000000000000000     
 PAO| ======================= Iteration:        29 =============================

     Lanczos converged:  T threshold:   0.100E-02
     Est. extremal eigenvalues:    0.276E+01   0.183E+00
     Est. condition number :    0.151E+02
     NS sqrt iter    1 1.00000000   0.705E+00       0.002       40.067
     NS sqrt iter    2 1.00000000   0.329E+00       0.002       63.282
     NS sqrt iter    3 1.00000000   0.745E-01       0.002       63.768
     NS sqrt iter    4 1.00000000   0.175E-02       0.002       64.796
     NS sqrt iter    5 1.00000000   0.460E-07       0.002       44.550
     Final NS sqrt iter    5 1.00000000   0.348E-09

     Est. extremal eigenvalues     -0.93715     1.67975  converged:  T
     TRS4 it   1 1.00000000   0.865E+00       0.001       16.128   0.100E-07
     TRS4 it   2 1.00000000   0.611E+00       0.001       32.256   0.100E-07
     TRS4 it   3 1.00000000   0.416E+00       0.001       32.256   0.100E-07
     TRS4 it   4 1.00000000   0.209E+00       0.001       32.256   0.100E-07
     TRS4 it   5 1.00000000   0.655E-01       0.001       32.256   0.100E-07
     TRS4 it   6 1.00000000   0.810E-02       0.001       32.256   0.100E-07
     TRS4 it   7 1.00000000   0.165E-03       0.001       32.256   0.100E-07
     TRS4 it   8 1.00000000   0.966E-07       0.001       30.861   0.100E-07
     TRS4 it   9 1.00000000   0.402E-13       0.001       32.256   0.100E-07
     Final TRS4 iteration    9 1.00000000   0.402E-13
     Chemical potential (mu):       0.01267
 
 PAO| energy:  -7.8016445852686420      penalty:   1.2992952670117847E-005
 PAO|LS| adapt:  T T F
 PAO|LS| adapt: scan_steps:    0.0000000000000000       0.25180811621982480        0.0000000000000000     
 PAO|LS| adapt: energies:   -7.8016372748332063       -7.8016445852686420        0.0000000000000000     
 PAO| ======================= Iteration:        30 =============================

     Lanczos converged:  T threshold:   0.100E-02
     Est. extremal eigenvalues:    0.276E+01   0.183E+00
     Est. condition number :    0.151E+02
     NS sqrt iter    1 1.00000000   0.705E+00       0.002       39.456
     NS sqrt iter    2 1.00000000   0.329E+00       0.002       61.493
     NS sqrt iter    3 1.00000000   0.745E-01       0.002       58.076
     NS sqrt iter    4 1.00000000   0.174E-02       0.002       63.148
     NS sqrt iter    5 1.00000000   0.460E-07       0.002       44.545
     Final NS sqrt iter    5 1.00000000   0.348E-09

     Est. extremal eigenvalues     -0.93715     1.67966  converged:  T
     TRS4 it   1 1.00000000   0.865E+00       0.001       16.128   0.100E-07
     TRS4 it   2 1.00000000   0.611E+00       0.001       32.256   0.100E-07
     TRS4 it   3 1.00000000   0.415E+00       0.001       27.901   0.100E-07
     TRS4 it   4 1.00000000   0.209E+00       0.001       32.256   0.100E-07
     TRS4 it   5 1.00000000   0.654E-01       0.001       32.256   0.100E-07
     TRS4 it   6 1.00000000   0.808E-02       0.001       32.256   0.100E-07
     TRS4 it   7 1.00000000   0.164E-03       0.001       32.256   0.100E-07
     TRS4 it   8 1.00000000   0.952E-07       0.001       32.256   0.100E-07
     TRS4 it   9 1.00000000   0.394E-13       0.001       32.256   0.100E-07
     Final TRS4 iteration    9 1.00000000   0.394E-13
     Chemical potential (mu):       0.01282
 
 PAO| energy:  -7.8016498952105922      penalty:   1.2562813953112172E-005
 PAO|LS| adapt:  T T F
 PAO|LS| adapt: scan_steps:    0.0000000000000000       0.50361623243964959        0.0000000000000000     
 PAO|LS| adapt: energies:   -7.8016372748332063       -7.8016498952105922        0.0000000000000000     
 PAO| ======================= Iteration:        31 =============================

     Lanczos converged:  T threshold:   0.100E-02
     Est. extremal eigenvalues:    0.276E+01   0.183E+00
     Est. condition number :    0.151E+02
     NS sqrt iter    1 1.00000000   0.704E+00       0.002       35.778
     NS sqrt iter    2 1.00000000   0.329E+00       0.002       63.417
     NS sqrt iter    3 1.00000000   0.743E-01       0.002       64.066
     NS sqrt iter    4 1.00000000   0.174E-02       0.002       64.000
     NS sqrt iter    5 1.00000000   0.458E-07       0.002       45.382
     Final NS sqrt iter    5 1.00000000   0.346E-09

     Est. extremal eigenvalues     -0.93716     1.67947  converged:  T
     TRS4 it   1 1.00000000   0.865E+00       0.001       16.128   0.100E-07
     TRS4 it   2 1.00000000   0.611E+00       0.001       32.256   0.100E-07
     TRS4 it   3 1.00000000   0.415E+00       0.001       32.256   0.100E-07
     TRS4 it   4 1.00000000   0.208E+00       0.001       32.256   0.100E-07
     TRS4 it   5 1.00000000   0.652E-01       0.001       32.256   0.100E-07
     TRS4 it   6 1.00000000   0.803E-02       0.001       32.256   0.100E-07
     TRS4 it   7 1.00000000   0.162E-03       0.001       32.256   0.100E-07
     TRS4 it   8 1.00000000   0.925E-07       0.001       29.308   0.100E-07
     TRS4 it   9 1.00000000   0.365E-13       0.001       32.256   0.100E-07
     Final TRS4 iteration    9 1.00000000   0.365E-13
     Chemical potential (mu):       0.01312
 
 PAO| energy:  -7.8016545160181083      penalty:   1.1726801124847642E-005
 PAO|LS| Need extra step
 PAO|LS| adapt:  T T F
 PAO|LS| adapt: scan_steps:    0.0000000000000000        1.0072324648792992        0.0000000000000000     
 PAO|LS| adapt: energies:   -7.8016372748332063       -7.8016545160181083        0.0000000000000000     
 PAO| ======================= Iteration:        32 =============================

     Lanczos converged:  T threshold:   0.100E-02
     Est. extremal eigenvalues:    0.275E+01   0.183E+00
     Est. condition number :    0.151E+02
     NS sqrt iter    1 1.00000000   0.704E+00       0.002       39.271
     NS sqrt iter    2 1.00000000   0.328E+00       0.002       64.593
     NS sqrt iter    3 1.00000000   0.741E-01       0.002       56.684
     NS sqrt iter    4 1.00000000   0.173E-02       0.002       63.084
     NS sqrt iter    5 1.00000000   0.456E-07       0.002       43.512
     Final NS sqrt iter    5 1.00000000   0.346E-09

     Est. extremal eigenvalues     -0.93716     1.67906  converged:  T
     TRS4 it   1 1.00000000   0.865E+00       0.001       16.128   0.100E-07
     TRS4 it   2 1.00000000   0.610E+00       0.001       32.256   0.100E-07
     TRS4 it   3 1.00000000   0.415E+00       0.001       29.877   0.100E-07
     TRS4 it   4 1.00000000   0.208E+00       0.001       32.256   0.100E-07
     TRS4 it   5 1.00000000   0.648E-01       0.001       32.256   0.100E-07
     TRS4 it   6 1.00000000   0.794E-02       0.001       32.256   0.100E-07
     TRS4 it   7 1.00000000   0.158E-03       0.001       32.256   0.100E-07
     TRS4 it   8 1.00000000   0.872E-07       0.001       32.256   0.100E-07
     TRS4 it   9 1.00000000   0.331E-13       0.001       32.256   0.100E-07
     Final TRS4 iteration    9 1.00000000   0.331E-13
     Chemical potential (mu):       0.01372
 
 PAO| energy:  -7.8016397708841065      penalty:   1.0150619967025138E-005
 PAO|LS| Need extra step
 PAO|LS| adapt:  T T T
 PAO|LS| adapt: scan_steps:    0.0000000000000000        1.0072324648792992        2.0144649297585984     
 PAO|LS| adapt: energies:   -7.8016372748332063       -7.8016545160181083       -7.8016397708841065     
 PAO|LS| adapt: suggested step_size:    1.0465321340320262     
 PAO|LS| adapt: predicted energy  -7.8016545403655106     
 PAO| ======================= Iteration:        33 =============================

     Lanczos converged:  T threshold:   0.100E-02
     Est. extremal eigenvalues:    0.276E+01   0.183E+00
     Est. condition number :    0.151E+02
     NS sqrt iter    1 1.00000000   0.704E+00       0.002       39.295
     NS sqrt iter    2 1.00000000   0.329E+00       0.002       64.137
     NS sqrt iter    3 1.00000000   0.743E-01       0.002       64.070
     NS sqrt iter    4 1.00000000   0.174E-02       0.002       63.271
     NS sqrt iter    5 1.00000000   0.458E-07       0.002       45.196
     Final NS sqrt iter    5 1.00000000   0.346E-09

     Est. extremal eigenvalues     -0.93716     1.67945  converged:  T
     TRS4 it   1 1.00000000   0.865E+00       0.001       16.128   0.100E-07
     TRS4 it   2 1.00000000   0.611E+00       0.001       32.256   0.100E-07
     TRS4 it   3 1.00000000   0.415E+00       0.001       32.256   0.100E-07
     TRS4 it   4 1.00000000   0.208E+00       0.001       32.256   0.100E-07
     TRS4 it   5 1.00000000   0.652E-01       0.001       32.256   0.100E-07
     TRS4 it   6 1.00000000   0.803E-02       0.001       32.256   0.100E-07
     TRS4 it   7 1.00000000   0.162E-03       0.001       27.989   0.100E-07
[...]
     NS sqrt iter    3 1.00000000   0.495E-01       0.002       65.674
     NS sqrt iter    4 1.00000000   0.813E-03       0.002       65.106
     NS sqrt iter    5 1.00000000   0.709E-08       0.001       27.469
     Final NS sqrt iter    5 1.00000000   0.414E-09

     Est. extremal eigenvalues     -0.93685     1.62937  converged:  T
     TRS4 it   1 1.00000000   0.877E+00       0.001       16.128   0.100E-07
     TRS4 it   2 1.00000000   0.631E+00       0.001       32.256   0.100E-07
     TRS4 it   3 1.00000000   0.455E+00       0.001       32.256   0.100E-07
     TRS4 it   4 1.00000000   0.278E+00       0.001       32.256   0.100E-07
     TRS4 it   5 1.00000000   0.137E+00       0.001       32.256   0.100E-07
     TRS4 it   6 1.00000000   0.432E-01       0.001       32.256   0.100E-07
     TRS4 it   7 1.00000000   0.596E-02       0.001       31.727   0.100E-07
     TRS4 it   8 1.00000000   0.151E-03       0.001       30.805   0.100E-07
     TRS4 it   9 1.00000000   0.103E-06       0.001       31.226   0.100E-07
     TRS4 it  10 1.00000000   0.472E-13       0.001       32.256   0.100E-07
     Final TRS4 iteration   10 1.00000000   0.472E-13
     Chemical potential (mu):      -0.07580
 
 PAO| energy:  -7.8010340382302452      penalty:   3.4957840618134089E-008
 PAO|LS| Need extra step
 PAO|LS| adapt:  T T T
 PAO|LS| adapt: scan_steps:    0.0000000000000000       0.20000000000000001       0.40000000000000002     
 PAO|LS| adapt: energies:   -7.8010340345960723       -7.8010340398512703       -7.8010340382302452     
 PAO|LS| adapt: suggested step_size:   0.25285129474670365     
 PAO|LS| adapt: predicted energy  -7.8010340400913591     
 PAO| ======================= Iteration:       415 =============================

     Lanczos converged:  T threshold:   0.100E-02
     Est. extremal eigenvalues:    0.252E+01   0.190E+00
     Est. condition number :    0.133E+02
     NS sqrt iter    1 1.00000000   0.639E+00       0.002       35.451
     NS sqrt iter    2 1.00000000   0.278E+00       0.002       62.589
     NS sqrt iter    3 1.00000000   0.495E-01       0.002       62.470
     NS sqrt iter    4 1.00000000   0.813E-03       0.002       63.512
     NS sqrt iter    5 1.00000000   0.709E-08       0.001       26.184
     Final NS sqrt iter    5 1.00000000   0.414E-09

     Est. extremal eigenvalues     -0.93685     1.62937  converged:  T
     TRS4 it   1 1.00000000   0.877E+00       0.001       16.128   0.100E-07
     TRS4 it   2 1.00000000   0.631E+00       0.001       29.797   0.100E-07
     TRS4 it   3 1.00000000   0.455E+00       0.001       30.703   0.100E-07
     TRS4 it   4 1.00000000   0.278E+00       0.001       31.306   0.100E-07
     TRS4 it   5 1.00000000   0.137E+00       0.001       31.867   0.100E-07
     TRS4 it   6 1.00000000   0.432E-01       0.001       31.231   0.100E-07
     TRS4 it   7 1.00000000   0.596E-02       0.001       30.990   0.100E-07
     TRS4 it   8 1.00000000   0.151E-03       0.001       29.168   0.100E-07
     TRS4 it   9 1.00000000   0.103E-06       0.001       28.722   0.100E-07
     TRS4 it  10 1.00000000   0.474E-13       0.001       26.792   0.100E-07
     Final TRS4 iteration   10 1.00000000   0.474E-13
     Chemical potential (mu):      -0.07581
 
 PAO| energy:  -7.8010340400913645      penalty:   3.5376979335442851E-008
 PAO|CG| warming up with steepest descent
 PAO|CG| beta:    0.0000000000000000     
 PAO| norm of gradient:   1.3001841147031732E-004
 PAO| energy improvement:  -5.4952922212692101E-009
 PAO| step    415                   -7.801034040  0.813E-05  0.253E+00     0.120
 PAO| converged after          415  steps :-)
 PAO| Recalculating energy after mixing.

     Lanczos converged:  T threshold:   0.100E-02
     Est. extremal eigenvalues:    0.252E+01   0.190E+00
     Est. condition number :    0.133E+02
     NS sqrt iter    1 1.00000000   0.639E+00       0.002       38.516
     NS sqrt iter    2 1.00000000   0.278E+00       0.002       64.590
     NS sqrt iter    3 1.00000000   0.495E-01       0.002       65.508
     NS sqrt iter    4 1.00000000   0.813E-03       0.002       64.068
     NS sqrt iter    5 1.00000000   0.709E-08       0.001       27.447
     Final NS sqrt iter    5 1.00000000   0.414E-09

     Est. extremal eigenvalues     -0.93685     1.62937  converged:  T
     TRS4 it   1 1.00000000   0.877E+00       0.001       16.128   0.100E-07
     TRS4 it   2 1.00000000   0.631E+00       0.001       31.751   0.100E-07
     TRS4 it   3 1.00000000   0.455E+00       0.001       32.256   0.100E-07
     TRS4 it   4 1.00000000   0.278E+00       0.001       32.256   0.100E-07
     TRS4 it   5 1.00000000   0.137E+00       0.001       32.256   0.100E-07
     TRS4 it   6 1.00000000   0.432E-01       0.001       32.256   0.100E-07
     TRS4 it   7 1.00000000   0.596E-02       0.001       32.256   0.100E-07
     TRS4 it   8 1.00000000   0.151E-03       0.001       32.256   0.100E-07
     TRS4 it   9 1.00000000   0.103E-06       0.001       32.256   0.100E-07
     TRS4 it  10 1.00000000   0.481E-13       0.001       32.256   0.100E-07
     Final TRS4 iteration   10 1.00000000   0.481E-13
     Chemical potential (mu):      -0.07581
 
 PAO| energy:  -7.8010340387175292      penalty:   3.5739080169826002E-008
 PAO| Writing restart file.
     Est. extremal eigenvalues     -0.93685     1.62937  converged:  T
     TRS4 it   1 1.00000000   0.877E+00       0.001       16.128   0.100E-07
     TRS4 it   2 1.00000000   0.631E+00       0.001       32.256   0.100E-07
     TRS4 it   3 1.00000000   0.455E+00       0.001       32.256   0.100E-07
     TRS4 it   4 1.00000000   0.278E+00       0.001       32.256   0.100E-07
     TRS4 it   5 1.00000000   0.137E+00       0.001       32.256   0.100E-07
     TRS4 it   6 1.00000000   0.432E-01       0.001       32.256   0.100E-07
     TRS4 it   7 1.00000000   0.596E-02       0.001       32.256   0.100E-07
     TRS4 it   8 1.00000000   0.151E-03       0.001       32.256   0.100E-07
     TRS4 it   9 1.00000000   0.103E-06       0.001       32.256   0.100E-07
     TRS4 it  10 1.00000000   0.481E-13       0.001       32.256   0.100E-07
     Final TRS4 iteration   10 1.00000000   0.481E-13
     Chemical potential (mu):      -0.07581

 SCF     1       -34.449904314       -34.449904314    2.287592

*********************************************************
 Using MIXING_FRACTION=0.450 to mix KS matrix:  iscf=  2
 KS_nw=0.450*KS + 0.550*KS_old
*********************************************************
     Est. extremal eigenvalues     -0.93685     1.62937  converged:  T
     TRS4 it   1 1.00000000   0.877E+00       0.001       16.128   0.100E-07
     TRS4 it   2 1.00000000   0.631E+00       0.001       32.256   0.100E-07
     TRS4 it   3 1.00000000   0.455E+00       0.001       32.256   0.100E-07
     TRS4 it   4 1.00000000   0.278E+00       0.001       32.256   0.100E-07
     TRS4 it   5 1.00000000   0.137E+00       0.001       32.256   0.100E-07
     TRS4 it   6 1.00000000   0.432E-01       0.001       32.256   0.100E-07
     TRS4 it   7 1.00000000   0.596E-02       0.001       32.256   0.100E-07
     TRS4 it   8 1.00000000   0.151E-03       0.001       32.256   0.100E-07
     TRS4 it   9 1.00000000   0.103E-06       0.001       32.256   0.100E-07
     TRS4 it  10 1.00000000   0.474E-13       0.001       32.256   0.100E-07
     Final TRS4 iteration   10 1.00000000   0.474E-13
     Chemical potential (mu):      -0.07580

 SCF     2       -34.449904314        -0.000000000    1.953013

 PAO| Storing density matrix for ASPC guess in slot:           1

 ENERGY| Total FORCE_EVAL ( QS ) energy (a.u.):              -34.449904313722222


 -------------------------------------------------------------------------------
 -                                                                             -
 -                                DBCSR STATISTICS                             -
 -                                                                             -
 -------------------------------------------------------------------------------
 COUNTER                                    TOTAL       BLAS       SMM       ACC
 flops     5 x     5 x     4                20000     100.0%      0.0%      0.0%
 flops    13 x     5 x     4                20800     100.0%      0.0%      0.0%
 flops     5 x    13 x     4                20800     100.0%      0.0%      0.0%
 flops    13 x    13 x     4                40560     100.0%      0.0%      0.0%
 flops     4 x     4 x     5              3260160     100.0%      0.0%      0.0%
 flops     5 x     4 x     5              3974400     100.0%      0.0%      0.0%
 flops     4 x     4 x    13              4238208     100.0%      0.0%      0.0%
 flops    13 x     4 x     5              5166720     100.0%      0.0%      0.0%
 flops     5 x     4 x    13              5166720     100.0%      0.0%      0.0%
 flops     5 x     4 x     4              6277760     100.0%      0.0%      0.0%
 flops    13 x     4 x    13              6716736     100.0%      0.0%      0.0%
 flops    13 x     4 x     4              8331232     100.0%      0.0%      0.0%
 flops     4 x     4 x     4            421215616     100.0%      0.0%      0.0%
 flops inhomo. stacks                           0       0.0%      0.0%      0.0%
 flops total                       464.449712E+06     100.0%      0.0%      0.0%
 flops max/rank                    464.449712E+06     100.0%      0.0%      0.0%
 matmuls inhomo. stacks                         0       0.0%      0.0%      0.0%
 matmuls total                            3425496     100.0%      0.0%      0.0%
 number of processed stacks                 27304     100.0%      0.0%      0.0%
 average stack size                                   125.5       0.0       0.0
 marketing flops                   755.703552E+06
 -------------------------------------------------------------------------------
 # multiplications                          22838
 max memory usage/rank             327.946240E+06
 # max total images/rank                        1
 # max 3D layers                                1
 # MPI messages exchanged                       0
 MPI messages size (bytes):
  total size                         0.000000E+00
  min size                           0.000000E+00
  max size                           0.000000E+00
  average size                       0.000000E+00
 MPI breakdown and total messages size (bytes):
             size <=      128                   0                        0
       128 < size <=     8192                   0                        0
      8192 < size <=    32768                   0                        0
     32768 < size <=   131072                   0                        0
    131072 < size <=  4194304                   0                        0
   4194304 < size <= 16777216                   0                        0
  16777216 < size                               0                        0
 -------------------------------------------------------------------------------

 MEMORY| Estimated peak process memory [MiB]                                 313

 -------------------------------------------------------------------------------
 -                                                                             -
 -                           R E F E R E N C E S                               -
 -                                                                             -
 -------------------------------------------------------------------------------
 
 CP2K version 7.0 (Development Version), the CP2K developers group (2018).
 CP2K is freely available from https://www.cp2k.org/ .

 Schuett, O; VandeVondele, J. 
 Journal of Chemical Theory and Computation, 14, (2018). 
 Machine Learning Adaptive Basis Sets for Efficient Large Scale Density Functional Theory Simulation.
 https://dx.doi.org/10.1021/acs.jctc.8b00378


 Schuett, Ole; Messmer, Peter; Hutter, Juerg; VandeVondele, Joost. 
 Electronic Structure Calculations on Graphics Processing Units, John Wiley & Sons, Ltd, 173-190 (2016). 
 GPU-Accelerated Sparse Matrix-Matrix Multiplication for Linear Scaling Density Functional Theory.
 https://dx.doi.org/10.1002/9781118670712.ch8


 Borstnik, U; VandeVondele, J; Weber, V; Hutter, J. 
 PARALLEL COMPUTING, 40 (5-6), 47-58 (2014). 
 Sparse matrix multiplication: The distributed block-compressed sparse
 row library.
 https://dx.doi.org/10.1016/j.parco.2014.03.012


 Hutter, J; Iannuzzi, M; Schiffmann, F; VandeVondele, J. 
 WILEY INTERDISCIPLINARY REVIEWS-COMPUTATIONAL MOLECULAR SCIENCE, 4 (1), 15-25 (2014). 
 CP2K: atomistic simulations of condensed matter systems.
 https://dx.doi.org/10.1002/wcms.1159


 VandeVondele, J; Borstnik, U; Hutter, J. 
 JOURNAL OF CHEMICAL THEORY AND COMPUTATION, 8 (10), 3565-3573 (2012). 
 Linear Scaling Self-Consistent Field Calculations with Millions of Atoms
 in the Condensed Phase.
 https://dx.doi.org/10.1021/ct200897x


 VandeVondele, J; Hutter, J. 
 JOURNAL OF CHEMICAL PHYSICS, 127 (11), 114105 (2007). 
 Gaussian basis sets for accurate calculations on molecular systems in
 gas and condensed phases.
 https://dx.doi.org/10.1063/1.2770708


 Krack, M. 
 THEORETICAL CHEMISTRY ACCOUNTS, 114 (1-3), 145-152 (2005). 
 Pseudopotentials for H to Kr optimized for gradient-corrected
 exchange-correlation functionals.
 https://dx.doi.org/10.1007/s00214-005-0655-y


 VandeVondele, J; Krack, M; Mohamed, F; Parrinello, M; Chassaing, T;
 Hutter, J. COMPUTER PHYSICS COMMUNICATIONS, 167 (2), 103-128 (2005). 
 QUICKSTEP: Fast and accurate density functional calculations using a
 mixed Gaussian and plane waves approach.
 https://dx.doi.org/10.1016/j.cpc.2004.12.014


 Frigo, M; Johnson, SG. 
 PROCEEDINGS OF THE IEEE, 93 (2), 216-231 (2005). 
 The design and implementation of FFTW3.
 https://dx.doi.org/10.1109/JPROC.2004.840301


 Niklasson, AMN; Tymczak, CJ; Challacombe, M. 
 JOURNAL OF CHEMICAL PHYSICS, 118 (19), 8611-8620 (2003). 
 Trace resetting density matrix purification in O(N)
 self-consistent-field theory.
 https://dx.doi.org/10.1063/1.1559913


 Hartwigsen, C; Goedecker, S; Hutter, J. 
 PHYSICAL REVIEW B, 58 (7), 3641-3662 (1998). 
 Relativistic separable dual-space Gaussian pseudopotentials from H to Rn.
 https://dx.doi.org/10.1103/PhysRevB.58.3641


 Lippert, G; Hutter, J; Parrinello, M. 
 MOLECULAR PHYSICS, 92 (3), 477-487 (1997). 
 A hybrid Gaussian and plane wave density functional scheme.
 https://dx.doi.org/10.1080/002689797170220


 Perdew, JP; Burke, K; Ernzerhof, M. 
 PHYSICAL REVIEW LETTERS, 77 (18), 3865-3868 (1996). 
 Generalized gradient approximation made simple.
 https://dx.doi.org/10.1103/PhysRevLett.77.3865


 Goedecker, S; Teter, M; Hutter, J. 
 PHYSICAL REVIEW B, 54 (3), 1703-1710 (1996). 
 Separable dual-space Gaussian pseudopotentials.
 https://dx.doi.org/10.1103/PhysRevB.54.1703


 -------------------------------------------------------------------------------
 -                                                                             -
 -                                T I M I N G                                  -
 -                                                                             -
 -------------------------------------------------------------------------------
 SUBROUTINE                       CALLS  ASD         SELF TIME        TOTAL TIME
                                MAXIMUM       AVERAGE  MAXIMUM  AVERAGE  MAXIMUM
 CP2K                                 1  1.0    0.015    0.015   33.014   33.014
 qs_energies                          1  2.0    0.000    0.000   32.429   32.429
 ls_scf                               1  3.0    0.000    0.000   32.278   32.278
 ls_scf_main                          4  4.0    0.001    0.001   18.889   18.889
 ls_scf_dm_to_ks                      9  5.0    0.000    0.000   18.775   18.775
 qs_ks_update_qs_env                 10  6.0    0.000    0.000   14.834   14.834
 rebuild_ks_matrix                   10  7.0    0.000    0.000   14.833   14.833
 qs_ks_build_kohn_sham_matrix        10  8.0    0.001    0.001   14.833   14.833
 pao_update                           4  4.0    0.011    0.011   11.452   11.452
 pao_calc_energy                    418  5.0    0.005    0.005   10.326   10.326
 qs_vxc_create                       10  9.0    0.000    0.000    9.140    9.140
 xc_vxc_pw_create                    10 10.0    0.112    0.112    9.140    9.140
 dbcsr_multiply_generic           22838  8.4    0.536    0.536    8.843    8.843
 xc_rho_set_and_dset_create          10 11.0    0.035    0.035    6.655    6.655
 pw_transfer                        191 10.6    0.013    0.013    6.238    6.238
 fft_wrap_pw1pw2                    171 11.7    0.002    0.002    6.144    6.144
 fft_wrap_pw1pw2_200                111 12.8    0.326    0.326    5.885    5.885
 qs_rho_update_rho                   10  6.0    0.000    0.000    5.794    5.794
 calculate_rho_elec                  10  7.0    4.551    4.551    5.794    5.794
 pao_dm_trs4                        418  6.0    0.003    0.003    5.363    5.363
 density_matrix_trs4                427  7.0    0.198    0.198    5.174    5.174
 ls_scf_init_matrix_S               422  7.0    0.004    0.004    4.955    4.955
 pao_rebuild_S                      418  6.0    0.003    0.003    4.914    4.914
 sum_up_and_integrate                10  9.0    0.018    0.018    4.793    4.793
 integrate_v_rspace                  10 10.0    4.027    4.027    4.775    4.775
 xc_functional_eval                  10 12.0    0.000    0.000    4.622    4.622
 pbe_lda_eval                        10 13.0    4.622    4.622    4.622    4.622
 matrix_sqrt_Newton_Schulz          422  8.0    0.117    0.117    4.477    4.477
 multiply_cannon                  22838  9.4    1.390    1.390    4.185    4.185
 fft3d_s                            172 13.6    3.280    3.280    3.295    3.295
 make_m2s                         45676  9.4    0.202    0.202    2.803    2.803
 make_images                      45676 10.4    0.669    0.669    2.473    2.473
 pao_guess_initial_P                  1  4.0    0.000    0.000    1.860    1.860
 pao_read_preopt_dm                   1  5.0    0.000    0.000    1.860    1.860
 multiply_cannon_multrec          22838 10.4    1.501    1.501    1.636    1.636
 pw_gather_s                         81 13.1    1.417    1.417    1.417    1.417
 arnoldi_extremal                   849  8.5    0.004    0.004    1.242    1.242
 arnoldi_normal_ev                  849  9.5    0.014    0.014    1.237    1.237
 density_rs2pw                       10  8.0    0.001    0.001    1.230    1.230
 pao_calc_AB                        550  5.8    0.001    0.001    1.106    1.106
 pao_calc_AB_direct                 550  6.8    0.031    0.031    1.105    1.105
 pw_scatter_s                        90 14.2    1.093    1.093    1.093    1.093
 pao_calc_grad_lnv_wrt_AB           131  7.0    0.008    0.008    1.041    1.041
 build_subspace                     849 10.5    0.064    0.064    0.925    0.925
 dbcsr_matrix_vector_mult         20370 11.5    0.125    0.125    0.831    0.831
 dbcsr_finalize                   54442  9.6    0.132    0.132    0.812    0.812
 dbcsr_create_new                174660 10.7    0.399    0.399    0.758    0.758
 potential_pw2rs                     10 11.0    0.003    0.003    0.747    0.747
 -------------------------------------------------------------------------------

 The number of warnings for this run is : 0
 
 -------------------------------------------------------------------------------
  **** **** ******  **  PROGRAM ENDED AT                 2019-03-28 17:33:26.958
 ***** ** ***  *** **   PROGRAM RAN ON            oleschuett.zrh.corp.google.com
 **    ****   ******    PROGRAM RAN BY                                oleschuett
 ***** **    ** ** **   PROGRAM PROCESS ID                                 32508
  **** **  *******  **  PROGRAM STOPPED IN /usr/local/google/home/oleschuett/git
                                           /pao_ml_equivar/2H2O_rotations/phi_26
