 DBCSR| CPU Multiplication driver                                           XSMM (U)
 DBCSR| Multrec recursion limit                                              512 (U)
 DBCSR| Multiplication stack size                                           1000 (D)
 DBCSR| Maximum elements for images                                    UNLIMITED (U)
 DBCSR| Multiplicative factor virtual images                                   1 (U)
 DBCSR| Use multiplication densification                                       T (D)
 DBCSR| Multiplication size stacks                                             3 (U)
 DBCSR| Use memory pool for CPU allocation                                     F (U)
 DBCSR| OMP: Current number of threads                                         1
 DBCSR| OMP: Max number of threads                                             1
 DBCSR| Split modifier for TAS multiplication algorithm                  1.0E+00 (U)


  **** **** ******  **  PROGRAM STARTED AT               2023-02-01 10:45:19.663
 ***** ** ***  *** **   PROGRAM STARTED ON                                moritz
 **    ****   ******    PROGRAM STARTED BY                                   ole
 ***** **    ** ** **   PROGRAM PROCESS ID                                148593
  **** **  *******  **  PROGRAM STARTED IN /home/ole/git/pao_ml_equivar/2H2O_rot
                                           ations/phi_20

 CP2K| version string:                 CP2K version 2023.1 (Development Version)
 CP2K| source code revision number:                                  git:03b4147
 CP2K| cp2kflags: omp libint fftw3 libxc quip xsmm spglib libvori libbqb libtorc
 CP2K|            h
 CP2K| is freely available from                            https://www.cp2k.org/
 CP2K| Program compiled at                           Mi 01 Feb 2023 10:36:52 CET
 CP2K| Program compiled on                                                moritz
 CP2K| Program compiled for                                                local
 CP2K| Data directory path                               /home/ole/git/cp2k/data
 CP2K| Input file name                                            2H2O_pao44.inp

 GLOBAL| Force Environment number                                              1
 GLOBAL| Basis set file name                                        BASIS_MOLOPT
 GLOBAL| Potential file name                                      GTH_POTENTIALS
 GLOBAL| MM Potential file name                                     MM_POTENTIAL
 GLOBAL| Coordinate file name                                         coords.xyz
 GLOBAL| Method name                                                        CP2K
 GLOBAL| Project name                                                 2H2O_pao44
 GLOBAL| Run type                                                         ENERGY
 GLOBAL| FFT library                                                       FFTW3
 GLOBAL| Diagonalization library                                       ScaLAPACK
 GLOBAL| DGEMM library                                                      BLAS
 GLOBAL| Orthonormality check for eigenvectors                          DISABLED
 GLOBAL| Matrix multiplication library                                 ScaLAPACK
 GLOBAL| All-to-all communication in single precision                          F
 GLOBAL| FFTs using library dependent lengths                                  F
 GLOBAL| Grid backend                                                       AUTO
 GLOBAL| Global print level                                                  LOW
 GLOBAL| MPI I/O enabled                                                       T
 GLOBAL| Total number of message passing processes                             1
 GLOBAL| Number of threads for this process                                    1
 GLOBAL| This output is from process                                           0
 GLOBAL| Stack size for threads created by OpenMP (OMP_STACKSIZE)        default
 GLOBAL| CPU model name           AMD Ryzen Threadripper 3970X 32-Core Processor
 GLOBAL| CPUID                                                              1002
 GLOBAL| Compiled for CPUID                                                    0

 *** HINT in environment.F:884 :: The compiler target flags (generic) used ***
 *** to build this binary cannot exploit all extensions of this CPU model  ***
 *** (x86_avx2). Consider compiler target flags as part of FCFLAGS and     ***
 *** CFLAGS (ARCH file).                                                   ***


 MEMORY| system memory details [Kb]
 MEMORY|                        rank 0           min           max       average
 MEMORY| MemTotal            131773860     131773860     131773860     131773860
 MEMORY| MemFree             118711192     118711192     118711192     118711192
 MEMORY| Buffers                301580        301580        301580        301580
 MEMORY| Cached                7018548       7018548       7018548       7018548
 MEMORY| Slab                   776140        776140        776140        776140
 MEMORY| SReclaimable           331304        331304        331304        331304
 MEMORY| MemLikelyFree       126362624     126362624     126362624     126362624


 GENERATE|  Preliminary Number of Bonds generated:                             0
 GENERATE|  Achieved consistency in connectivity generation.

 *******************************************************************************
 *******************************************************************************
 **                                                                           **
 **     #####                         ##              ##                      **
 **    ##   ##            ##          ##              ##                      **
 **   ##     ##                       ##            ######                    **
 **   ##     ##  ##   ##  ##   #####  ##  ##   ####   ##    #####    #####    **
 **   ##     ##  ##   ##  ##  ##      ## ##   ##      ##   ##   ##  ##   ##   **
 **   ##  ## ##  ##   ##  ##  ##      ####     ###    ##   ######   ######    **
 **    ##  ###   ##   ##  ##  ##      ## ##      ##   ##   ##       ##        **
 **     #######   #####   ##   #####  ##  ##  ####    ##    #####   ##        **
 **           ##                                                    ##        **
 **                                                                           **
 **                                                ... make the atoms dance   **
 **                                                                           **
 **            Copyright (C) by CP2K developers group (2000-2023)             **
 **                      J. Chem. Phys. 152, 194103 (2020)                    **
 **                                                                           **
 *******************************************************************************


 TOTAL NUMBERS AND MAXIMUM NUMBERS

  Total number of            - Atomic kinds:                                   2
                             - Atoms:                                          6
                             - Shell sets:                                     6
                             - Shells:                                        22
                             - Primitive Cartesian functions:                 42
                             - Cartesian basis functions:                     48
                             - Spherical basis functions:                     46

  Maximum angular momentum of- Orbital basis functions:                        2
                             - Local part of the GTH pseudopotential:          2
                             - Non-local part of the GTH pseudopotential:      0

 ------------------------------ Linear scaling SCF -----------------------------
 eps_scf:                                                              0.100E-07
 eps_filter:                                                           0.100E-07
 mixing_fraction:                                                      0.450E+00
 max_scf:                                                                     25
 fixed chemical potential (mu)                                                 F
 has unit metric:                                                              F
 Computing inv(S):                                                             T
 Computing sqrt(S):                                                            T
 Computing S preconditioner                                                    F
 S sqrt method:                                                     NEWTONSCHULZ
 S sqrt order:                                                                 3
 Extrapolation order:                                                          1
 Use single precision matrices                                                 F
 S preconditioner type                                                      NONE
 Polarized Atomic Orbitals (PAO)                                               T
 Purification method                                   Trace resetting 4th order
 Cluster type                                                             ATOMIC
 Computing Chebyshev                                                       FALSE
 Using PAO                                                                     T
 -------------------------------------------------------------------------------

 
 PAO|                                  EPS_PAO                           0.1E-04
 PAO|                                  MIXING                            0.5E+00
 PAO|                                  MAX_PAO                              1000
 PAO|                                  MAX_CYCLES                           1000
 PAO|                                  PARAMETERIZATION              EQUIVARIANT
 PAO|                                  PRECONDITION                            F
 PAO|                                  REGULARIZATION                    0.0E+00
 PAO|                                  EPS_PGF                           0.1E-09
 PAO|                                  PENALTY_DISTANCE                  0.1E+00
 PAO|                                  PENALTY_STRENGTH                  0.5E-02
 PAO|                                  LINPOT_PRECONDITION_DELTA         0.0E+00
 PAO|                                  LINPOT_INITGUESS_DELT             0.0E+00
 PAO|                                  LINPOT_REGULARIZATION_DELTA       0.0E+00
 PAO|                                  LINPOT_REGULARIZATION_STRENGTH    0.0E+00
 PAO|                                  OPTIMIZER                              CG
 PAO|                                  CG_INIT_STEPS                           2
 PAO|                                  CG_RESET_LIMIT                    0.1E+00
 PAO|                                  CHECK_UNITARY_TOL                -0.1E+01
 PAO|                                  CHECK_GRADIENT_TOL               -0.1E+01
 PAO|                                  NUM_GRADIENT_ORDER                      2
 PAO|                                  NUM_GRADIENT_EPS                  0.1E-07
 PAO|                                  PRINT%RESTART%WRITE_CYCLES            100
 PAO|                                  RESTART_FILE 
 PAO|                                  PREOPT_DM_FILE 2H2O_ref_LS_DM_SPIN_1_RESTART.dm
 PAO|                                  MACHINE_LEARNING%METHOD       GAUSSIAN_PR
 PAO|                                  MACHINE_LEARNING%PRIOR               ZERO
 PAO|                                  MACHINE_LEARNING%DESCRIPTOR     POTENTIAL
 PAO|                                  MACHINE_LEARNING%TOLERANCE        0.1E-01
 PAO|                                  MACHINE_LEARNING%GP_NOISE_VAR     0.1E+00
 PAO|                                  MACHINE_LEARNING%GP_SCALE         0.5E-01
 

 Calculating atomic Fock matrix for atomic kind: O

 Electronic structure
    Total number of core electrons                                          2.00
    Total number of valence electrons                                       6.00
    Total number of electrons                                               8.00
    Multiplicity                                                   not specified
    S   [  2.00] 2.00
    P      4.00


 *******************************************************************************
                  Iteration          Convergence                     Energy [au]
 *******************************************************************************
                          1        0.708315                     -15.576645311500
                          2        0.608879                     -15.587933561584
                          3        0.102828E-01                 -15.656849565404
                          4        0.113889E-02                 -15.656866888140
                          5        0.434197E-03                 -15.656867072159
                          6        0.263771E-03                 -15.656867091904
                          7        0.478536E-06                 -15.656867103452

 Energy components [Hartree]           Total Energy ::          -15.656867103452
                                        Band Energy ::           -3.000198112285
                                     Kinetic Energy ::           11.759971203220
                                   Potential Energy ::          -27.416838306672
                                      Virial (-V/T) ::            2.331369510426
                                        Core Energy ::          -26.140716385623
                                          XC Energy ::           -3.154051012914
                                     Coulomb Energy ::           13.637900295084
                       Total Pseudopotential Energy ::          -37.935781716540
                       Local Pseudopotential Energy ::          -39.218907440693
                    Nonlocal Pseudopotential Energy ::            1.283125724153
                                        Confinement ::            0.350941276976

 Orbital energies  State     L     Occupation   Energy[a.u.]          Energy[eV]

                       1     0          2.000      -0.864471          -23.523463

                       1     1          4.000      -0.317814           -8.648154


 Total Electron Density at R=0:                                         0.000068

 Calculating atomic Fock matrix for atomic kind: H

 Electronic structure
    Total number of core electrons                                          0.00
    Total number of valence electrons                                       1.00
    Total number of electrons                                               1.00
    Multiplicity                                                   not specified
    S      1.00


 *******************************************************************************
                  Iteration          Convergence                     Energy [au]
 *******************************************************************************
                          1        0.437545E-02                  -0.424159432110
                          2        0.531356E-03                  -0.424178438213
                          3        0.259176E-06                  -0.424178722480

 Energy components [Hartree]           Total Energy ::           -0.424178722480
                                        Band Energy ::           -0.199015229016
                                     Kinetic Energy ::            0.464007633961
                                   Potential Energy ::           -0.888186356441
                                      Virial (-V/T) ::            1.914163240935
                                        Core Energy ::           -0.479160803564
                                          XC Energy ::           -0.244352904054
                                     Coulomb Energy ::            0.299334985138
                       Total Pseudopotential Energy ::           -0.962295316385
                       Local Pseudopotential Energy ::           -0.962295316385
                    Nonlocal Pseudopotential Energy ::            0.000000000000
                                        Confinement ::            0.191268788606

 Orbital energies  State     L     Occupation   Energy[a.u.]          Energy[eV]

                       1     0          1.000      -0.199015           -5.415480


 Total Electron Density at R=0:                                         0.242907
 PAO| Made initial guess for matrix_X with norm:   4.8989794855663558     

     Lanczos converged:  T threshold:   0.100E-02
     Est. extremal eigenvalues:    0.336E+01   0.111E+00
     Est. condition number :    0.304E+02

 Order=           3
     NS sqrt iter    1 1.00000000   0.820E+00       0.001       64.512
     NS sqrt iter    2 1.00000000   0.440E+00       0.001      110.592
     NS sqrt iter    3 1.00000000   0.171E+00       0.001      110.592
     NS sqrt iter    4 1.00000000   0.212E-01       0.001      110.592
     NS sqrt iter    5 1.00000000   0.622E-04       0.001       98.048
     Symmetrizing Results
     Final NS sqrt iter    5 1.00000000   0.581E-08

 PAO| Read restart DM 2H2O_ref_LS_DM_SPIN_1_RESTART.dm with checksum:    74.332077388671522     
 PAO| Quickstep energy from restart density:  -34.450444102534171     
 PAO| ======================= Iteration:         1 =============================

     Lanczos converged:  T threshold:   0.100E-02
     Est. extremal eigenvalues:    0.336E+01   0.111E+00
     Est. condition number :    0.304E+02

 Order=           3
     NS sqrt iter    1 1.00000000   0.820E+00       0.001       64.512
     NS sqrt iter    2 1.00000000   0.440E+00       0.001      110.592
     NS sqrt iter    3 1.00000000   0.171E+00       0.001      110.592
     NS sqrt iter    4 1.00000000   0.212E-01       0.001      110.592
     NS sqrt iter    5 1.00000000   0.622E-04       0.001       98.048
     Symmetrizing Results
     Final NS sqrt iter    5 1.00000000   0.581E-08

     Est. extremal eigenvalues     -0.92077     1.95667  converged:  T
     TRS4 it   1 1.00000000   0.898E+00       0.000       16.128   0.100E-07
     TRS4 it   2 1.00000000   0.710E+00       0.000       32.256   0.100E-07
     TRS4 it   3 1.00000000   0.507E+00       0.000       32.256   0.100E-07
     TRS4 it   4 1.00000000   0.319E+00       0.000       32.256   0.100E-07
     TRS4 it   5 1.00000000   0.160E+00       0.000       32.256   0.100E-07
     TRS4 it   6 1.00000000   0.513E-01       0.000       32.256   0.100E-07
     TRS4 it   7 1.00000000   0.742E-02       0.000       32.256   0.100E-07
     TRS4 it   8 1.00000000   0.219E-03       0.000       32.256   0.100E-07
     TRS4 it   9 1.00000000   0.213E-06       0.000       32.256   0.100E-07
     TRS4 it  10 1.00000000   0.205E-12       0.000       32.256   0.100E-07
     Final TRS4 iteration   10 1.00000000   0.205E-12
     Chemical potential (mu):      -0.06683
 
 PAO| energy:  -7.6353576212341983      penalty:   3.3280069439011438E-033
 PAO|CG| warming up with steepest descent
 PAO|CG| beta:    0.0000000000000000     
 PAO| norm of gradient:  0.78324616376553413     
 PAO|LS| adapt:  T F F
 PAO|LS| adapt: scan_steps:    0.0000000000000000        0.0000000000000000        0.0000000000000000     
 PAO|LS| adapt: energies:   -7.6353576212341983        0.0000000000000000        0.0000000000000000     
 PAO| ======================= Iteration:         2 =============================

     Lanczos converged:  T threshold:   0.100E-02
     Est. extremal eigenvalues:    0.327E+01   0.123E+00
     Est. condition number :    0.267E+02

 Order=           3
     NS sqrt iter    1 1.00000000   0.804E+00       0.001       64.512
     NS sqrt iter    2 1.00000000   0.425E+00       0.001      110.592
     NS sqrt iter    3 1.00000000   0.154E+00       0.001      110.592
     NS sqrt iter    4 1.00000000   0.148E-01       0.001      110.592
     NS sqrt iter    5 1.00000000   0.213E-04       0.001       82.944
     Symmetrizing Results
     Final NS sqrt iter    5 1.00000000   0.708E-09

     Est. extremal eigenvalues     -0.92444     1.90009  converged:  T
     TRS4 it   1 1.00000000   0.896E+00       0.000       16.128   0.100E-07
     TRS4 it   2 1.00000000   0.691E+00       0.000       32.256   0.100E-07
     TRS4 it   3 1.00000000   0.492E+00       0.000       32.256   0.100E-07
     TRS4 it   4 1.00000000   0.301E+00       0.000       32.256   0.100E-07
     TRS4 it   5 1.00000000   0.141E+00       0.000       32.256   0.100E-07
     TRS4 it   6 1.00000000   0.402E-01       0.000       32.256   0.100E-07
     TRS4 it   7 1.00000000   0.461E-02       0.000       32.256   0.100E-07
     TRS4 it   8 1.00000000   0.851E-04       0.000       32.256   0.100E-07
     TRS4 it   9 1.00000000   0.322E-07       0.000       32.256   0.100E-07
     Final TRS4 iteration    9 1.00000000   0.322E-07
     Chemical potential (mu):      -0.05488
 
 PAO| energy:  -7.6908241260345660      penalty:   2.2474809915371079E-008
 PAO|LS| adapt:  T T F
 PAO|LS| adapt: scan_steps:    0.0000000000000000       0.10000000000000001        0.0000000000000000     
 PAO|LS| adapt: energies:   -7.6353576212341983       -7.6908241260345660        0.0000000000000000     
 PAO| ======================= Iteration:         3 =============================

     Lanczos converged:  T threshold:   0.100E-02
     Est. extremal eigenvalues:    0.318E+01   0.134E+00
     Est. condition number :    0.238E+02

 Order=           3
     NS sqrt iter    1 1.00000000   0.786E+00       0.001       64.512
     NS sqrt iter    2 1.00000000   0.408E+00       0.001      110.592
     NS sqrt iter    3 1.00000000   0.137E+00       0.001      110.592
     NS sqrt iter    4 1.00000000   0.103E-01       0.001      110.592
     NS sqrt iter    5 1.00000000   0.756E-05       0.001       82.944
     Symmetrizing Results
     Final NS sqrt iter    5 1.00000000   0.907E-10

     Est. extremal eigenvalues     -0.92787     1.85299  converged:  T
     TRS4 it   1 1.00000000   0.894E+00       0.000       16.128   0.100E-07
     TRS4 it   2 1.00000000   0.675E+00       0.000       32.256   0.100E-07
     TRS4 it   3 1.00000000   0.478E+00       0.000       32.256   0.100E-07
     TRS4 it   4 1.00000000   0.282E+00       0.000       32.256   0.100E-07
     TRS4 it   5 1.00000000   0.123E+00       0.000       32.256   0.100E-07
     TRS4 it   6 1.00000000   0.306E-01       0.000       32.256   0.100E-07
     TRS4 it   7 1.00000000   0.266E-02       0.000       32.256   0.100E-07
     TRS4 it   8 1.00000000   0.283E-04       0.000       32.256   0.100E-07
     TRS4 it   9 1.00000000   0.357E-08       0.000       32.256   0.100E-07
     Final TRS4 iteration    9 1.00000000   0.357E-08
     Chemical potential (mu):      -0.04196
 
 PAO| energy:  -7.7338711246209657      penalty:   3.5959719102726789E-007
 PAO|LS| adapt:  T T F
 PAO|LS| adapt: scan_steps:    0.0000000000000000       0.20000000000000001        0.0000000000000000     
 PAO|LS| adapt: energies:   -7.6353576212341983       -7.7338711246209657        0.0000000000000000     
 PAO| ======================= Iteration:         4 =============================

     Lanczos converged:  T threshold:   0.100E-02
     Est. extremal eigenvalues:    0.299E+01   0.152E+00
     Est. condition number :    0.196E+02

 Order=           3
     NS sqrt iter    1 1.00000000   0.749E+00       0.001       64.512
     NS sqrt iter    2 1.00000000   0.374E+00       0.001      110.592
     NS sqrt iter    3 1.00000000   0.107E+00       0.001      110.592
     NS sqrt iter    4 1.00000000   0.515E-02       0.001      110.592
     NS sqrt iter    5 1.00000000   0.111E-05       0.001       82.944
     Symmetrizing Results
     Final NS sqrt iter    5 1.00000000   0.209E-11

     Est. extremal eigenvalues     -0.93321     1.78099  converged:  T
     TRS4 it   1 1.00000000   0.889E+00       0.000       16.128   0.100E-07
     TRS4 it   2 1.00000000   0.646E+00       0.000       32.256   0.100E-07
     TRS4 it   3 1.00000000   0.450E+00       0.000       32.256   0.100E-07
     TRS4 it   4 1.00000000   0.246E+00       0.000       32.256   0.100E-07
     TRS4 it   5 1.00000000   0.920E-01       0.000       32.256   0.100E-07
     TRS4 it   6 1.00000000   0.164E-01       0.000       32.256   0.100E-07
     TRS4 it   7 1.00000000   0.728E-03       0.000       32.256   0.100E-07
     TRS4 it   8 1.00000000   0.205E-05       0.000       32.256   0.100E-07
     TRS4 it   9 1.00000000   0.186E-10       0.000       32.256   0.100E-07
     Final TRS4 iteration    9 1.00000000   0.186E-10
     Chemical potential (mu):      -0.01332
 
 PAO| energy:  -7.7810907047588254      penalty:   5.7535569154951619E-006
 PAO|LS| Need extra step
 PAO|LS| adapt:  T T F
 PAO|LS| adapt: scan_steps:    0.0000000000000000       0.40000000000000002        0.0000000000000000     
 PAO|LS| adapt: energies:   -7.6353576212341983       -7.7810907047588254        0.0000000000000000     
 PAO| ======================= Iteration:         5 =============================

     Lanczos converged:  T threshold:   0.100E-02
     Est. extremal eigenvalues:    0.264E+01   0.181E+00
     Est. condition number :    0.146E+02

 Order=           3
     NS sqrt iter    1 1.00000000   0.687E+00       0.001       64.512
     NS sqrt iter    2 1.00000000   0.313E+00       0.001      110.592
     NS sqrt iter    3 1.00000000   0.669E-01       0.001      110.592
     NS sqrt iter    4 1.00000000   0.144E-02       0.001      110.592
     NS sqrt iter    5 1.00000000   0.290E-07       0.001       61.056
     Symmetrizing Results
     Final NS sqrt iter    5 1.00000000   0.273E-08

     Est. extremal eigenvalues     -0.93446     1.69284  converged:  T
     TRS4 it   1 1.00000000   0.881E+00       0.000       16.128   0.100E-07
     TRS4 it   2 1.00000000   0.606E+00       0.000       32.256   0.100E-07
     TRS4 it   3 1.00000000   0.402E+00       0.000       32.256   0.100E-07
     TRS4 it   4 1.00000000   0.189E+00       0.000       32.256   0.100E-07
     TRS4 it   5 1.00000000   0.504E-01       0.000       32.256   0.100E-07
     TRS4 it   6 1.00000000   0.446E-02       0.000       32.256   0.100E-07
     TRS4 it   7 1.00000000   0.453E-04       0.000       32.256   0.100E-07
     TRS4 it   8 1.00000000   0.602E-08       0.000       32.256   0.100E-07
     Final TRS4 iteration    8 1.00000000   0.602E-08
     Chemical potential (mu):       0.03594
 
 PAO| energy:  -7.7263133755995730      penalty:   9.2056925520428025E-005
 PAO|LS| Need extra step
 PAO|LS| adapt:  T T T
 PAO|LS| adapt: scan_steps:    0.0000000000000000       0.40000000000000002       0.80000000000000004     
 PAO|LS| adapt: energies:   -7.6353576212341983       -7.7810907047588254       -7.7263133755995730     
 PAO|LS| adapt: suggested step_size:   0.49072422040123548     
 PAO|LS| adapt: predicted energy  -7.7862481359499531     
 PAO| ======================= Iteration:         6 =============================

     Lanczos converged:  T threshold:   0.100E-02
     Est. extremal eigenvalues:    0.290E+01   0.159E+00
     Est. condition number :    0.182E+02

 Order=           3
     NS sqrt iter    1 1.00000000   0.733E+00       0.001       64.512
     NS sqrt iter    2 1.00000000   0.359E+00       0.001      110.592
     NS sqrt iter    3 1.00000000   0.961E-01       0.001      110.592
     NS sqrt iter    4 1.00000000   0.381E-02       0.001      110.592
     NS sqrt iter    5 1.00000000   0.483E-06       0.001       82.944
     Symmetrizing Results
     Final NS sqrt iter    5 1.00000000   0.404E-12

     Est. extremal eigenvalues     -0.93470     1.75574  converged:  T
     TRS4 it   1 1.00000000   0.888E+00       0.000       16.128   0.100E-07
     TRS4 it   2 1.00000000   0.636E+00       0.000       32.256   0.100E-07
     TRS4 it   3 1.00000000   0.438E+00       0.000       32.256   0.100E-07
     TRS4 it   4 1.00000000   0.231E+00       0.000       32.256   0.100E-07
     TRS4 it   5 1.00000000   0.800E-01       0.000       32.256   0.100E-07
     TRS4 it   6 1.00000000   0.121E-01       0.000       32.256   0.100E-07
     TRS4 it   7 1.00000000   0.378E-03       0.000       32.256   0.100E-07
     TRS4 it   8 1.00000000   0.527E-06       0.000       32.256   0.100E-07
     TRS4 it   9 1.00000000   0.122E-11       0.000       32.256   0.100E-07
     Final TRS4 iteration    9 1.00000000   0.122E-11
     Chemical potential (mu):       0.00062
 
 PAO| energy:  -7.7855275264266774      penalty:   1.3033061637579911E-005
 PAO|CG| warming up with steepest descent
 PAO|CG| beta:    0.0000000000000000     
 PAO| norm of gradient:  0.41703536062978680     
 PAO| energy improvement: -0.15016990519247919     
 PAO| step      6                   -7.785527526  0.261E-01  0.491E+00     0.060
 PAO|LS| adapt:  T F F
 PAO|LS| adapt: scan_steps:    0.0000000000000000        0.0000000000000000        0.0000000000000000     
 PAO|LS| adapt: energies:   -7.7855275264266774        0.0000000000000000        0.0000000000000000     
 PAO| ======================= Iteration:         7 =============================

     Lanczos converged:  T threshold:   0.100E-02
     Est. extremal eigenvalues:    0.281E+01   0.173E+00
     Est. condition number :    0.163E+02

 Order=           3
     NS sqrt iter    1 1.00000000   0.716E+00       0.001       64.512
     NS sqrt iter    2 1.00000000   0.339E+00       0.001      110.592
     NS sqrt iter    3 1.00000000   0.806E-01       0.001      110.592
     NS sqrt iter    4 1.00000000   0.235E-02       0.001      110.592
     NS sqrt iter    5 1.00000000   0.126E-06       0.001       77.952
     Symmetrizing Results
     Final NS sqrt iter    5 1.00000000   0.128E-08

     Est. extremal eigenvalues     -0.93643     1.74065  converged:  T
     TRS4 it   1 1.00000000   0.886E+00       0.000       16.128   0.100E-07
     TRS4 it   2 1.00000000   0.633E+00       0.000       32.256   0.100E-07
     TRS4 it   3 1.00000000   0.438E+00       0.000       32.256   0.100E-07
     TRS4 it   4 1.00000000   0.232E+00       0.000       32.256   0.100E-07
     TRS4 it   5 1.00000000   0.806E-01       0.000       32.256   0.100E-07
     TRS4 it   6 1.00000000   0.120E-01       0.000       32.256   0.100E-07
     TRS4 it   7 1.00000000   0.354E-03       0.000       32.256   0.100E-07
     TRS4 it   8 1.00000000   0.439E-06       0.000       32.256   0.100E-07
     TRS4 it   9 1.00000000   0.828E-12       0.000       32.256   0.100E-07
     Final TRS4 iteration    9 1.00000000   0.828E-12
     Chemical potential (mu):       0.00257
 
 PAO| energy:  -7.7797114293264693      penalty:   1.9729604252309566E-005
 PAO|LS| adapt:  T F T
 PAO|LS| adapt: scan_steps:    0.0000000000000000        0.0000000000000000       0.49072422040123548     
 PAO|LS| adapt: energies:   -7.7855275264266774        0.0000000000000000       -7.7797114293264693     
 PAO| ======================= Iteration:         8 =============================

     Lanczos converged:  T threshold:   0.100E-02
     Est. extremal eigenvalues:    0.286E+01   0.166E+00
     Est. condition number :    0.172E+02

 Order=           3
     NS sqrt iter    1 1.00000000   0.725E+00       0.001       64.512
     NS sqrt iter    2 1.00000000   0.349E+00       0.001      110.592
     NS sqrt iter    3 1.00000000   0.882E-01       0.001      110.592
     NS sqrt iter    4 1.00000000   0.301E-02       0.001      110.592
     NS sqrt iter    5 1.00000000   0.252E-06       0.001       81.536
     Symmetrizing Results
     Final NS sqrt iter    5 1.00000000   0.589E-09

     Est. extremal eigenvalues     -0.93651     1.74758  converged:  T
     TRS4 it   1 1.00000000   0.886E+00       0.000       16.128   0.100E-07
     TRS4 it   2 1.00000000   0.634E+00       0.000       32.256   0.100E-07
     TRS4 it   3 1.00000000   0.437E+00       0.000       32.256   0.100E-07
     TRS4 it   4 1.00000000   0.231E+00       0.000       32.256   0.100E-07
     TRS4 it   5 1.00000000   0.801E-01       0.000       32.256   0.100E-07
     TRS4 it   6 1.00000000   0.121E-01       0.000       32.256   0.100E-07
     TRS4 it   7 1.00000000   0.375E-03       0.000       32.256   0.100E-07
     TRS4 it   8 1.00000000   0.510E-06       0.000       32.256   0.100E-07
     TRS4 it   9 1.00000000   0.114E-11       0.000       32.256   0.100E-07
     Final TRS4 iteration    9 1.00000000   0.114E-11
     Chemical potential (mu):       0.00110
 
 PAO| energy:  -7.8051721099864224      penalty:   1.4132563467672353E-005
 PAO|LS| adapt:  T T T
 PAO|LS| adapt: scan_steps:    0.0000000000000000       0.24536211020061774       0.49072422040123548     
 PAO|LS| adapt: energies:   -7.7855275264266774       -7.8051721099864224       -7.7797114293264693     
 PAO|LS| adapt: suggested step_size:   0.22954300479988329     
 PAO|LS| adapt: predicted energy  -7.8052658545472413     
 PAO| ======================= Iteration:         9 =============================

     Lanczos converged:  T threshold:   0.100E-02
     Est. extremal eigenvalues:    0.286E+01   0.165E+00
     Est. condition number :    0.173E+02

 Order=           3
     NS sqrt iter    1 1.00000000   0.725E+00       0.001       64.512
     NS sqrt iter    2 1.00000000   0.350E+00       0.001      110.592
     NS sqrt iter    3 1.00000000   0.887E-01       0.001      110.592
     NS sqrt iter    4 1.00000000   0.306E-02       0.001      110.592
     NS sqrt iter    5 1.00000000   0.263E-06       0.001       81.536
     Symmetrizing Results
     Final NS sqrt iter    5 1.00000000   0.616E-09

     Est. extremal eigenvalues     -0.93645     1.74807  converged:  T
     TRS4 it   1 1.00000000   0.886E+00       0.000       16.128   0.100E-07
     TRS4 it   2 1.00000000   0.634E+00       0.000       32.256   0.100E-07
     TRS4 it   3 1.00000000   0.437E+00       0.000       32.256   0.100E-07
     TRS4 it   4 1.00000000   0.231E+00       0.000       32.256   0.100E-07
     TRS4 it   5 1.00000000   0.800E-01       0.000       32.256   0.100E-07
     TRS4 it   6 1.00000000   0.121E-01       0.000       32.256   0.100E-07
     TRS4 it   7 1.00000000   0.376E-03       0.000       32.256   0.100E-07
     TRS4 it   8 1.00000000   0.513E-06       0.000       32.256   0.100E-07
     TRS4 it   9 1.00000000   0.115E-11       0.000       32.256   0.100E-07
     Final TRS4 iteration    9 1.00000000   0.115E-11
     Chemical potential (mu):       0.00103
 
 PAO| energy:  -7.8052893757486732      penalty:   1.3963688142776365E-005
 PAO|CG| trace_G_new    3.6884320504039080E-002
 PAO|CG| trace_G_prev   0.17391849201561635     
 PAO|CG| trace_G_mix   -1.4402806763242604E-003
 PAO|CG| trace_D   0.17391849201561635     
 PAO|CG| trace_D_Gnew   1.4402806763242604E-003
 PAO|CG| beta:   0.22035955312286246     
 PAO| norm of gradient:  0.19205291068879712     
 PAO| energy improvement:  -1.9761849321995761E-002
 PAO| step      9                   -7.805289376  0.120E-01  0.230E+00     0.037
 PAO|LS| adapt:  T F F
 PAO|LS| adapt: scan_steps:    0.0000000000000000        0.0000000000000000        0.0000000000000000     
 PAO|LS| adapt: energies:   -7.8052893757486732        0.0000000000000000        0.0000000000000000     
 PAO| ======================= Iteration:        10 =============================

     Lanczos converged:  T threshold:   0.100E-02
     Est. extremal eigenvalues:    0.282E+01   0.171E+00
     Est. condition number :    0.165E+02

 Order=           3
     NS sqrt iter    1 1.00000000   0.718E+00       0.001       64.512
     NS sqrt iter    2 1.00000000   0.341E+00       0.001      110.592
     NS sqrt iter    3 1.00000000   0.831E-01       0.001      110.592
     NS sqrt iter    4 1.00000000   0.252E-02       0.001      110.592
     NS sqrt iter    5 1.00000000   0.146E-06       0.001       78.848
     Symmetrizing Results
     Final NS sqrt iter    5 1.00000000   0.112E-08

     Est. extremal eigenvalues     -0.93734     1.73929  converged:  T
     TRS4 it   1 1.00000000   0.883E+00       0.000       16.128   0.100E-07
     TRS4 it   2 1.00000000   0.631E+00       0.000       32.256   0.100E-07
     TRS4 it   3 1.00000000   0.435E+00       0.000       32.256   0.100E-07
     TRS4 it   4 1.00000000   0.228E+00       0.000       32.256   0.100E-07
     TRS4 it   5 1.00000000   0.776E-01       0.000       32.256   0.100E-07
     TRS4 it   6 1.00000000   0.113E-01       0.000       32.256   0.100E-07
     TRS4 it   7 1.00000000   0.323E-03       0.000       32.256   0.100E-07
     TRS4 it   8 1.00000000   0.370E-06       0.000       32.256   0.100E-07
     TRS4 it   9 1.00000000   0.588E-12       0.000       32.256   0.100E-07
     Final TRS4 iteration    9 1.00000000   0.588E-12
     Chemical potential (mu):       0.00426
 
 PAO| energy:  -7.8103239299602940      penalty:   1.4504208748469498E-005
 PAO|LS| adapt:  T T F
 PAO|LS| adapt: scan_steps:    0.0000000000000000       0.22954300479988329        0.0000000000000000     
 PAO|LS| adapt: energies:   -7.8052893757486732       -7.8103239299602940        0.0000000000000000     
 PAO| ======================= Iteration:        11 =============================

     Lanczos converged:  T threshold:   0.100E-02
     Est. extremal eigenvalues:    0.279E+01   0.177E+00
     Est. condition number :    0.157E+02

 Order=           3
     NS sqrt iter    1 1.00000000   0.710E+00       0.001       64.512
     NS sqrt iter    2 1.00000000   0.333E+00       0.001      110.592
     NS sqrt iter    3 1.00000000   0.777E-01       0.001      110.592
     NS sqrt iter    4 1.00000000   0.206E-02       0.001      110.592
     NS sqrt iter    5 1.00000000   0.794E-07       0.001       75.264
     Symmetrizing Results
     Final NS sqrt iter    5 1.00000000   0.638E-09

     Est. extremal eigenvalues     -0.93725     1.73167  converged:  T
     TRS4 it   1 1.00000000   0.881E+00       0.000       16.128   0.100E-07
     TRS4 it   2 1.00000000   0.629E+00       0.000       32.256   0.100E-07
     TRS4 it   3 1.00000000   0.432E+00       0.000       32.256   0.100E-07
     TRS4 it   4 1.00000000   0.225E+00       0.000       32.256   0.100E-07
     TRS4 it   5 1.00000000   0.752E-01       0.000       32.256   0.100E-07
     TRS4 it   6 1.00000000   0.106E-01       0.000       32.256   0.100E-07
     TRS4 it   7 1.00000000   0.277E-03       0.000       32.256   0.100E-07
     TRS4 it   8 1.00000000   0.263E-06       0.000       32.256   0.100E-07
     TRS4 it   9 1.00000000   0.292E-12       0.000       32.256   0.100E-07
     Final TRS4 iteration    9 1.00000000   0.292E-12
     Chemical potential (mu):       0.00761
 
 PAO| energy:  -7.8088848020700254      penalty:   1.5715473944755150E-005
 PAO|LS| adapt:  T T T
 PAO|LS| adapt: scan_steps:    0.0000000000000000       0.22954300479988329       0.45908600959976659     
 PAO|LS| adapt: energies:   -7.8052893757486732       -7.8103239299602940       -7.8088848020700254     
 PAO|LS| adapt: suggested step_size:   0.29328609168230174     
 PAO|LS| adapt: predicted energy  -7.8105735384950661     
 PAO| ======================= Iteration:        12 =============================

     Lanczos converged:  T threshold:   0.100E-02
     Est. extremal eigenvalues:    0.281E+01   0.173E+00
     Est. condition number :    0.163E+02

 Order=           3
     NS sqrt iter    1 1.00000000   0.716E+00       0.001       64.512
     NS sqrt iter    2 1.00000000   0.339E+00       0.001      110.592
     NS sqrt iter    3 1.00000000   0.815E-01       0.001      110.592
     NS sqrt iter    4 1.00000000   0.238E-02       0.001      110.592
     NS sqrt iter    5 1.00000000   0.123E-06       0.001       78.080
     Symmetrizing Results
     Final NS sqrt iter    5 1.00000000   0.123E-08

     Est. extremal eigenvalues     -0.93741     1.73706  converged:  T
     TRS4 it   1 1.00000000   0.883E+00       0.000       16.128   0.100E-07
     TRS4 it   2 1.00000000   0.630E+00       0.000       32.256   0.100E-07
     TRS4 it   3 1.00000000   0.434E+00       0.000       32.256   0.100E-07
     TRS4 it   4 1.00000000   0.227E+00       0.000       32.256   0.100E-07
     TRS4 it   5 1.00000000   0.769E-01       0.000       32.256   0.100E-07
     TRS4 it   6 1.00000000   0.111E-01       0.000       32.256   0.100E-07
     TRS4 it   7 1.00000000   0.310E-03       0.000       32.256   0.100E-07
     TRS4 it   8 1.00000000   0.337E-06       0.000       32.256   0.100E-07
     TRS4 it   9 1.00000000   0.486E-12       0.000       32.256   0.100E-07
     Final TRS4 iteration    9 1.00000000   0.486E-12
     Chemical potential (mu):       0.00518
 
 PAO| energy:  -7.8105574474525046      penalty:   1.4765691614897348E-005
 PAO|CG| trace_G_new    1.1811127156183108E-002
 PAO|CG| trace_G_prev    3.6884320504039080E-002
 PAO|CG| trace_G_mix   -4.6062611601030467E-004
 PAO|CG| trace_D    4.4694753281343258E-002
 PAO|CG| trace_D_Gnew   2.1143909668226062E-004
 PAO|CG| beta:   0.33270921368470302     
 PAO| norm of gradient:  0.10867900973133270     
 PAO| energy improvement:  -5.2680717038313674E-003
 PAO| step     12                   -7.810557447  0.679E-02  0.293E+00     0.037
 PAO|LS| adapt:  T F F
 PAO|LS| adapt: scan_steps:    0.0000000000000000        0.0000000000000000        0.0000000000000000     
 PAO|LS| adapt: energies:   -7.8105574474525046        0.0000000000000000        0.0000000000000000     
 PAO| ======================= Iteration:        13 =============================

     Lanczos converged:  T threshold:   0.100E-02
     Est. extremal eigenvalues:    0.278E+01   0.177E+00
     Est. condition number :    0.157E+02

 Order=           3
     NS sqrt iter    1 1.00000000   0.708E+00       0.001       64.512
     NS sqrt iter    2 1.00000000   0.332E+00       0.001      110.592
     NS sqrt iter    3 1.00000000   0.772E-01       0.001      110.592
     NS sqrt iter    4 1.00000000   0.204E-02       0.001      110.592
     NS sqrt iter    5 1.00000000   0.776E-07       0.001       75.264
     Symmetrizing Results
     Final NS sqrt iter    5 1.00000000   0.633E-09

     Est. extremal eigenvalues     -0.93790     1.72889  converged:  T
     TRS4 it   1 1.00000000   0.881E+00       0.000       16.128   0.100E-07
     TRS4 it   2 1.00000000   0.627E+00       0.000       32.256   0.100E-07
     TRS4 it   3 1.00000000   0.430E+00       0.000       32.256   0.100E-07
     TRS4 it   4 1.00000000   0.222E+00       0.000       32.256   0.100E-07
     TRS4 it   5 1.00000000   0.732E-01       0.000       32.256   0.100E-07
     TRS4 it   6 1.00000000   0.100E-01       0.000       32.256   0.100E-07
     TRS4 it   7 1.00000000   0.248E-03       0.000       32.256   0.100E-07
     TRS4 it   8 1.00000000   0.209E-06       0.000       32.256   0.100E-07
     TRS4 it   9 1.00000000   0.185E-12       0.000       32.256   0.100E-07
     Final TRS4 iteration    9 1.00000000   0.185E-12
     Chemical potential (mu):       0.00979
 
 PAO| energy:  -7.8126215258162519      penalty:   1.5071593138941924E-005
 PAO|LS| adapt:  T T F
 PAO|LS| adapt: scan_steps:    0.0000000000000000       0.29328609168230174        0.0000000000000000     
 PAO|LS| adapt: energies:   -7.8105574474525046       -7.8126215258162519        0.0000000000000000     
 PAO| ======================= Iteration:        14 =============================

     Lanczos converged:  T threshold:   0.100E-02
     Est. extremal eigenvalues:    0.275E+01   0.181E+00
     Est. condition number :    0.151E+02

 Order=           3
     NS sqrt iter    1 1.00000000   0.702E+00       0.001       64.512
     NS sqrt iter    2 1.00000000   0.325E+00       0.001      110.592
     NS sqrt iter    3 1.00000000   0.731E-01       0.001      110.592
     NS sqrt iter    4 1.00000000   0.174E-02       0.001      110.592
     NS sqrt iter    5 1.00000000   0.487E-07       0.001       71.680
     Symmetrizing Results
     Final NS sqrt iter    5 1.00000000   0.419E-09

     Est. extremal eigenvalues     -0.93788     1.72109  converged:  T
     TRS4 it   1 1.00000000   0.880E+00       0.000       16.128   0.100E-07
     TRS4 it   2 1.00000000   0.624E+00       0.000       32.256   0.100E-07
     TRS4 it   3 1.00000000   0.426E+00       0.000       32.256   0.100E-07
     TRS4 it   4 1.00000000   0.217E+00       0.000       32.256   0.100E-07
     TRS4 it   5 1.00000000   0.696E-01       0.000       32.256   0.100E-07
     TRS4 it   6 1.00000000   0.901E-02       0.000       32.256   0.100E-07
     TRS4 it   7 1.00000000   0.198E-03       0.000       32.256   0.100E-07
     TRS4 it   8 1.00000000   0.130E-06       0.000       32.256   0.100E-07
     TRS4 it   9 1.00000000   0.690E-13       0.000       32.256   0.100E-07
     Final TRS4 iteration    9 1.00000000   0.690E-13
     Chemical potential (mu):       0.01430
 
 PAO| energy:  -7.8119764613233764      penalty:   1.5855282045277998E-005
 PAO|LS| adapt:  T T T
 PAO|LS| adapt: scan_steps:    0.0000000000000000       0.29328609168230174       0.58657218336460348     
 PAO|LS| adapt: energies:   -7.8105574474525046       -7.8126215258162519       -7.8119764613233764     
 PAO|LS| adapt: suggested step_size:   0.37009581605943870     
 PAO|LS| adapt: predicted energy  -7.8127144334475718     
 PAO| ======================= Iteration:        15 =============================

     Lanczos converged:  T threshold:   0.100E-02
     Est. extremal eigenvalues:    0.277E+01   0.178E+00
     Est. condition number :    0.155E+02

 Order=           3
     NS sqrt iter    1 1.00000000   0.707E+00       0.001       64.512
     NS sqrt iter    2 1.00000000   0.330E+00       0.001      110.592
     NS sqrt iter    3 1.00000000   0.761E-01       0.001      110.592
     NS sqrt iter    4 1.00000000   0.195E-02       0.001      110.592
     NS sqrt iter    5 1.00000000   0.687E-07       0.001       74.624
     Symmetrizing Results
     Final NS sqrt iter    5 1.00000000   0.557E-09

     Est. extremal eigenvalues     -0.93794     1.72681  converged:  T
     TRS4 it   1 1.00000000   0.881E+00       0.000       16.128   0.100E-07
     TRS4 it   2 1.00000000   0.626E+00       0.000       32.256   0.100E-07
     TRS4 it   3 1.00000000   0.429E+00       0.000       32.256   0.100E-07
     TRS4 it   4 1.00000000   0.221E+00       0.000       32.256   0.100E-07
     TRS4 it   5 1.00000000   0.722E-01       0.000       32.256   0.100E-07
     TRS4 it   6 1.00000000   0.974E-02       0.000       32.256   0.100E-07
     TRS4 it   7 1.00000000   0.233E-03       0.000       32.256   0.100E-07
     TRS4 it   8 1.00000000   0.185E-06       0.000       32.256   0.100E-07
     TRS4 it   9 1.00000000   0.143E-12       0.000       32.256   0.100E-07
     Final TRS4 iteration    9 1.00000000   0.143E-12
     Chemical potential (mu):       0.01098
 
 PAO| energy:  -7.8127113871619267      penalty:   1.5227621099820179E-005
 PAO|CG| trace_G_new    2.6169289754201294E-003
 PAO|CG| trace_G_prev    1.1811127156183108E-002
 PAO|CG| trace_G_mix    6.5376088709130569E-005
 PAO|CG| trace_D    1.6617936210174475E-002
 PAO|CG| trace_D_Gnew   3.3901303489102284E-005
 PAO|CG| beta:   0.21602958404992403     
 PAO| norm of gradient:   5.1155928057461039E-002
 PAO| energy improvement:  -2.1539397094221258E-003
 PAO| step     15                   -7.812711387  0.320E-02  0.370E+00     0.036
 PAO|LS| adapt:  T F F
 PAO|LS| adapt: scan_steps:    0.0000000000000000        0.0000000000000000        0.0000000000000000     
 PAO|LS| adapt: energies:   -7.8127113871619267        0.0000000000000000        0.0000000000000000     
 PAO| ======================= Iteration:        16 =============================

     Lanczos converged:  T threshold:   0.100E-02
     Est. extremal eigenvalues:    0.276E+01   0.179E+00
     Est. condition number :    0.154E+02

 Order=           3
     NS sqrt iter    1 1.00000000   0.705E+00       0.001       64.512
     NS sqrt iter    2 1.00000000   0.329E+00       0.001      110.592
     NS sqrt iter    3 1.00000000   0.755E-01       0.001      110.592
     NS sqrt iter    4 1.00000000   0.190E-02       0.001      110.592
     NS sqrt iter    5 1.00000000   0.629E-07       0.001       73.984
     Symmetrizing Results
     Final NS sqrt iter    5 1.00000000   0.570E-09

     Est. extremal eigenvalues     -0.93797     1.72566  converged:  T
     TRS4 it   1 1.00000000   0.881E+00       0.000       16.128   0.100E-07
     TRS4 it   2 1.00000000   0.625E+00       0.000       32.256   0.100E-07
     TRS4 it   3 1.00000000   0.427E+00       0.000       32.256   0.100E-07
     TRS4 it   4 1.00000000   0.219E+00       0.000       32.256   0.100E-07
     TRS4 it   5 1.00000000   0.710E-01       0.000       32.256   0.100E-07
     TRS4 it   6 1.00000000   0.942E-02       0.000       32.256   0.100E-07
     TRS4 it   7 1.00000000   0.220E-03       0.000       32.256   0.100E-07
     TRS4 it   8 1.00000000   0.165E-06       0.000       32.256   0.100E-07
     TRS4 it   9 1.00000000   0.114E-12       0.000       32.256   0.100E-07
     Final TRS4 iteration    9 1.00000000   0.114E-12
     Chemical potential (mu):       0.01183
 
 PAO| energy:  -7.8128382817708513      penalty:   1.5008668376109042E-005
 PAO|LS| adapt:  T T F
 PAO|LS| adapt: scan_steps:    0.0000000000000000       0.37009581605943870        0.0000000000000000     
 PAO|LS| adapt: energies:   -7.8127113871619267       -7.8128382817708513        0.0000000000000000     
 PAO| ======================= Iteration:        17 =============================

     Lanczos converged:  T threshold:   0.100E-02
     Est. extremal eigenvalues:    0.275E+01   0.180E+00
     Est. condition number :    0.153E+02

 Order=           3
     NS sqrt iter    1 1.00000000   0.703E+00       0.001       64.512
     NS sqrt iter    2 1.00000000   0.328E+00       0.001      110.592
     NS sqrt iter    3 1.00000000   0.748E-01       0.001      110.592
     NS sqrt iter    4 1.00000000   0.184E-02       0.001      110.592
     NS sqrt iter    5 1.00000000   0.578E-07       0.001       73.856
     Symmetrizing Results
     Final NS sqrt iter    5 1.00000000   0.534E-09

     Est. extremal eigenvalues     -0.93787     1.72458  converged:  T
     TRS4 it   1 1.00000000   0.881E+00       0.000       16.128   0.100E-07
     TRS4 it   2 1.00000000   0.624E+00       0.000       32.256   0.100E-07
     TRS4 it   3 1.00000000   0.426E+00       0.000       32.256   0.100E-07
     TRS4 it   4 1.00000000   0.217E+00       0.000       32.256   0.100E-07
     TRS4 it   5 1.00000000   0.699E-01       0.000       32.256   0.100E-07
     TRS4 it   6 1.00000000   0.912E-02       0.000       32.256   0.100E-07
     TRS4 it   7 1.00000000   0.207E-03       0.000       32.256   0.100E-07
     TRS4 it   8 1.00000000   0.148E-06       0.000       32.256   0.100E-07
     TRS4 it   9 1.00000000   0.920E-13       0.000       32.256   0.100E-07
     Final TRS4 iteration    9 1.00000000   0.920E-13
     Chemical potential (mu):       0.01265
 
 PAO| energy:  -7.8112817922562510      penalty:   1.4915038964949665E-005
 PAO|LS| adapt:  T T T
 PAO|LS| adapt: scan_steps:    0.0000000000000000       0.37009581605943870       0.74019163211887740     
 PAO|LS| adapt: energies:   -7.8127113871619267       -7.8128382817708513       -7.8112817922562510     
 PAO|LS| adapt: suggested step_size:   0.21294597549226829     
 PAO|LS| adapt: predicted energy  -7.8129900401816155     
 PAO| ======================= Iteration:        18 =============================

     Lanczos converged:  T threshold:   0.100E-02
     Est. extremal eigenvalues:    0.277E+01   0.179E+00
     Est. condition number :    0.155E+02

 Order=           3
     NS sqrt iter    1 1.00000000   0.706E+00       0.001       64.512
     NS sqrt iter    2 1.00000000   0.330E+00       0.001      110.592
     NS sqrt iter    3 1.00000000   0.757E-01       0.001      110.592
     NS sqrt iter    4 1.00000000   0.192E-02       0.001      110.592
     NS sqrt iter    5 1.00000000   0.653E-07       0.001       74.240
     Symmetrizing Results
     Final NS sqrt iter    5 1.00000000   0.571E-09

     Est. extremal eigenvalues     -0.93797     1.72614  converged:  T
     TRS4 it   1 1.00000000   0.881E+00       0.000       16.128   0.100E-07
     TRS4 it   2 1.00000000   0.626E+00       0.000       32.256   0.100E-07
     TRS4 it   3 1.00000000   0.428E+00       0.000       32.256   0.100E-07
     TRS4 it   4 1.00000000   0.220E+00       0.000       32.256   0.100E-07
     TRS4 it   5 1.00000000   0.715E-01       0.000       32.256   0.100E-07
     TRS4 it   6 1.00000000   0.955E-02       0.000       32.256   0.100E-07
     TRS4 it   7 1.00000000   0.225E-03       0.000       32.256   0.100E-07
     TRS4 it   8 1.00000000   0.173E-06       0.000       32.256   0.100E-07
     TRS4 it   9 1.00000000   0.126E-12       0.000       32.256   0.100E-07
     Final TRS4 iteration    9 1.00000000   0.126E-12
     Chemical potential (mu):       0.01147
 
 PAO| energy:  -7.8129895835020182      penalty:   1.5086603819674331E-005
 PAO|CG| trace_G_new    7.2644854475085302E-004
 PAO|CG| trace_G_prev    2.6169289754201294E-003
 PAO|CG| trace_G_mix    1.4785053996578034E-006
 PAO|CG| trace_D    3.3778204351724446E-003
 PAO|CG| trace_D_Gnew  -1.7486169718753081E-006
 PAO|CG| beta:   0.27703084270172307     
 PAO| norm of gradient:   2.6952709413913343E-002
 PAO| energy improvement:  -2.7819634009151883E-004
 PAO| step     18                   -7.812989584  0.168E-02  0.213E+00     0.036
 PAO|LS| adapt:  T F F
 PAO|LS| adapt: scan_steps:    0.0000000000000000        0.0000000000000000        0.0000000000000000     
 PAO|LS| adapt: energies:   -7.8129895835020182        0.0000000000000000        0.0000000000000000     
 PAO| ======================= Iteration:        19 =============================

     Lanczos converged:  T threshold:   0.100E-02
     Est. extremal eigenvalues:    0.277E+01   0.179E+00
     Est. condition number :    0.155E+02

 Order=           3
     NS sqrt iter    1 1.00000000   0.706E+00       0.001       64.512
     NS sqrt iter    2 1.00000000   0.330E+00       0.001      110.592
     NS sqrt iter    3 1.00000000   0.760E-01       0.001      110.592
     NS sqrt iter    4 1.00000000   0.193E-02       0.001      110.592
     NS sqrt iter    5 1.00000000   0.661E-07       0.001       74.240
     Symmetrizing Results
     Final NS sqrt iter    5 1.00000000   0.584E-09

     Est. extremal eigenvalues     -0.93797     1.72621  converged:  T
     TRS4 it   1 1.00000000   0.881E+00       0.000       16.128   0.100E-07
     TRS4 it   2 1.00000000   0.625E+00       0.000       32.256   0.100E-07
     TRS4 it   3 1.00000000   0.428E+00       0.000       32.256   0.100E-07
     TRS4 it   4 1.00000000   0.219E+00       0.000       32.256   0.100E-07
     TRS4 it   5 1.00000000   0.714E-01       0.000       32.256   0.100E-07
     TRS4 it   6 1.00000000   0.954E-02       0.000       32.256   0.100E-07
     TRS4 it   7 1.00000000   0.226E-03       0.000       32.256   0.100E-07
     TRS4 it   8 1.00000000   0.175E-06       0.000       32.256   0.100E-07
     TRS4 it   9 1.00000000   0.130E-12       0.000       32.256   0.100E-07
     Final TRS4 iteration    9 1.00000000   0.130E-12
     Chemical potential (mu):       0.01118
 
 PAO| energy:  -7.8131076342127539      penalty:   1.4797259585363698E-005
 PAO|LS| adapt:  T T F
 PAO|LS| adapt: scan_steps:    0.0000000000000000       0.21294597549226829        0.0000000000000000     
 PAO|LS| adapt: energies:   -7.8129895835020182       -7.8131076342127539        0.0000000000000000     
 PAO| ======================= Iteration:        20 =============================

     Lanczos converged:  T threshold:   0.100E-02
     Est. extremal eigenvalues:    0.277E+01   0.178E+00
     Est. condition number :    0.155E+02

 Order=           3
     NS sqrt iter    1 1.00000000   0.706E+00       0.001       64.512
     NS sqrt iter    2 1.00000000   0.330E+00       0.001      110.592
     NS sqrt iter    3 1.00000000   0.762E-01       0.001      110.592
     NS sqrt iter    4 1.00000000   0.194E-02       0.001      110.592
     NS sqrt iter    5 1.00000000   0.669E-07       0.001       74.240
     Symmetrizing Results
     Final NS sqrt iter    5 1.00000000   0.597E-09

     Est. extremal eigenvalues     -0.93797     1.72628  converged:  T
     TRS4 it   1 1.00000000   0.881E+00       0.000       16.128   0.100E-07
     TRS4 it   2 1.00000000   0.625E+00       0.000       32.256   0.100E-07
     TRS4 it   3 1.00000000   0.427E+00       0.000       32.256   0.100E-07
     TRS4 it   4 1.00000000   0.219E+00       0.000       32.256   0.100E-07
     TRS4 it   5 1.00000000   0.713E-01       0.000       32.256   0.100E-07
     TRS4 it   6 1.00000000   0.953E-02       0.000       32.256   0.100E-07
     TRS4 it   7 1.00000000   0.226E-03       0.000       32.256   0.100E-07
     TRS4 it   8 1.00000000   0.178E-06       0.000       32.256   0.100E-07
     TRS4 it   9 1.00000000   0.134E-12       0.000       32.256   0.100E-07
     Final TRS4 iteration    9 1.00000000   0.134E-12
     Chemical potential (mu):       0.01090
 
 PAO| energy:  -7.8131517961926260      penalty:   1.4520387513071616E-005
 PAO|LS| adapt:  T T F
 PAO|LS| adapt: scan_steps:    0.0000000000000000       0.42589195098453658        0.0000000000000000     
 PAO|LS| adapt: energies:   -7.8129895835020182       -7.8131517961926260        0.0000000000000000     
 PAO| ======================= Iteration:        21 =============================

     Lanczos converged:  T threshold:   0.100E-02
     Est. extremal eigenvalues:    0.277E+01   0.178E+00
     Est. condition number :    0.155E+02

 Order=           3
     NS sqrt iter    1 1.00000000   0.705E+00       0.001       64.512
     NS sqrt iter    2 1.00000000   0.331E+00       0.001      110.592
     NS sqrt iter    3 1.00000000   0.766E-01       0.001      110.592
     NS sqrt iter    4 1.00000000   0.196E-02       0.001      110.592
     NS sqrt iter    5 1.00000000   0.686E-07       0.001       74.752
     Symmetrizing Results
     Final NS sqrt iter    5 1.00000000   0.583E-09

     Est. extremal eigenvalues     -0.93796     1.72644  converged:  T
     TRS4 it   1 1.00000000   0.881E+00       0.000       16.128   0.100E-07
     TRS4 it   2 1.00000000   0.625E+00       0.000       32.256   0.100E-07
     TRS4 it   3 1.00000000   0.427E+00       0.000       32.256   0.100E-07
     TRS4 it   4 1.00000000   0.219E+00       0.000       32.256   0.100E-07
     TRS4 it   5 1.00000000   0.711E-01       0.000       32.256   0.100E-07
     TRS4 it   6 1.00000000   0.950E-02       0.000       32.256   0.100E-07
     TRS4 it   7 1.00000000   0.228E-03       0.000       32.256   0.100E-07
     TRS4 it   8 1.00000000   0.183E-06       0.000       32.256   0.100E-07
     TRS4 it   9 1.00000000   0.143E-12       0.000       32.256   0.100E-07
     Final TRS4 iteration    9 1.00000000   0.143E-12
     Chemical potential (mu):       0.01032
 
 PAO| energy:  -7.8130160750498314      penalty:   1.4003477646871162E-005
 PAO|LS| Need extra step
 PAO|LS| adapt:  T T T
 PAO|LS| adapt: scan_steps:    0.0000000000000000       0.42589195098453658       0.85178390196907317     
 PAO|LS| adapt: energies:   -7.8129895835020182       -7.8131517961926260       -7.8130160750498314     
 PAO|LS| adapt: suggested step_size:   0.44482658632608013     
 PAO|LS| adapt: predicted energy  -7.8131520906380816     
 PAO| ======================= Iteration:        22 =============================

     Lanczos converged:  T threshold:   0.100E-02
     Est. extremal eigenvalues:    0.277E+01   0.178E+00
     Est. condition number :    0.155E+02

 Order=           3
     NS sqrt iter    1 1.00000000   0.706E+00       0.001       64.512
     NS sqrt iter    2 1.00000000   0.330E+00       0.001      110.592
     NS sqrt iter    3 1.00000000   0.762E-01       0.001      110.592
     NS sqrt iter    4 1.00000000   0.194E-02       0.001      110.592
     NS sqrt iter    5 1.00000000   0.669E-07       0.001       74.240
     Symmetrizing Results
     Final NS sqrt iter    5 1.00000000   0.598E-09

     Est. extremal eigenvalues     -0.93797     1.72629  converged:  T
     TRS4 it   1 1.00000000   0.881E+00       0.000       16.128   0.100E-07
     TRS4 it   2 1.00000000   0.625E+00       0.000       32.256   0.100E-07
     TRS4 it   3 1.00000000   0.427E+00       0.000       32.256   0.100E-07
     TRS4 it   4 1.00000000   0.219E+00       0.000       32.256   0.100E-07
     TRS4 it   5 1.00000000   0.713E-01       0.000       32.256   0.100E-07
     TRS4 it   6 1.00000000   0.953E-02       0.000       32.256   0.100E-07
     TRS4 it   7 1.00000000   0.226E-03       0.000       32.256   0.100E-07
     TRS4 it   8 1.00000000   0.178E-06       0.000       32.256   0.100E-07
     TRS4 it   9 1.00000000   0.135E-12       0.000       32.256   0.100E-07
     Final TRS4 iteration    9 1.00000000   0.135E-12
     Chemical potential (mu):       0.01087
 
 PAO| energy:  -7.8131521258574512      penalty:   1.4496366528663938E-005
 PAO|CG| trace_G_new    2.2329452313984472E-004
 PAO|CG| trace_G_prev    7.2644854475085302E-004
 PAO|CG| trace_G_mix    2.9806312443149304E-006
 PAO|CG| trace_D    9.8665189013490660E-004
 PAO|CG| trace_D_Gnew  -1.8530176364726790E-006
 PAO|CG| beta:   0.30327528837034140     
 PAO| norm of gradient:   1.4943042633274011E-002
 PAO| energy improvement:  -1.6254235543300410E-004
 PAO| step     22                   -7.813152126  0.934E-03  0.445E+00     0.047
 PAO|LS| adapt:  T F F
 PAO|LS| adapt: scan_steps:    0.0000000000000000        0.0000000000000000        0.0000000000000000     
 PAO|LS| adapt: energies:   -7.8131521258574512        0.0000000000000000        0.0000000000000000     
 PAO| ======================= Iteration:        23 =============================

     Lanczos converged:  T threshold:   0.100E-02
     Est. extremal eigenvalues:    0.277E+01   0.178E+00
     Est. condition number :    0.155E+02

 Order=           3
     NS sqrt iter    1 1.00000000   0.705E+00       0.001       64.512
     NS sqrt iter    2 1.00000000   0.330E+00       0.001      110.592
     NS sqrt iter    3 1.00000000   0.762E-01       0.001      110.592
     NS sqrt iter    4 1.00000000   0.194E-02       0.001      110.592
     NS sqrt iter    5 1.00000000   0.668E-07       0.001       74.240
     Symmetrizing Results
     Final NS sqrt iter    5 1.00000000   0.603E-09

     Est. extremal eigenvalues     -0.93797     1.72569  converged:  T
     TRS4 it   1 1.00000000   0.881E+00       0.000       16.128   0.100E-07
     TRS4 it   2 1.00000000   0.625E+00       0.000       32.256   0.100E-07
     TRS4 it   3 1.00000000   0.427E+00       0.000       32.256   0.100E-07
     TRS4 it   4 1.00000000   0.219E+00       0.000       32.256   0.100E-07
     TRS4 it   5 1.00000000   0.714E-01       0.000       32.256   0.100E-07
     TRS4 it   6 1.00000000   0.956E-02       0.000       32.256   0.100E-07
     TRS4 it   7 1.00000000   0.229E-03       0.000       32.256   0.100E-07
     TRS4 it   8 1.00000000   0.182E-06       0.000       32.256   0.100E-07
     TRS4 it   9 1.00000000   0.141E-12       0.000       32.256   0.100E-07
     Final TRS4 iteration    9 1.00000000   0.141E-12
     Chemical potential (mu):       0.01055
 
 PAO| energy:  -7.8132019426025208      penalty:   1.3813980065490011E-005
 PAO|LS| adapt:  T T F
 PAO|LS| adapt: scan_steps:    0.0000000000000000       0.44482658632608013        0.0000000000000000     
 PAO|LS| adapt: energies:   -7.8131521258574512       -7.8132019426025208        0.0000000000000000     
 PAO| ======================= Iteration:        24 =============================

     Lanczos converged:  T threshold:   0.100E-02
     Est. extremal eigenvalues:    0.277E+01   0.178E+00
     Est. condition number :    0.155E+02

 Order=           3
     NS sqrt iter    1 1.00000000   0.705E+00       0.001       64.512
     NS sqrt iter    2 1.00000000   0.330E+00       0.001      110.592
     NS sqrt iter    3 1.00000000   0.763E-01       0.001      110.592
     NS sqrt iter    4 1.00000000   0.194E-02       0.001      110.592
     NS sqrt iter    5 1.00000000   0.667E-07       0.001       74.368
     Symmetrizing Results
     Final NS sqrt iter    5 1.00000000   0.604E-09

     Est. extremal eigenvalues     -0.93797     1.72509  converged:  T
     TRS4 it   1 1.00000000   0.881E+00       0.000       16.128   0.100E-07
     TRS4 it   2 1.00000000   0.625E+00       0.000       32.256   0.100E-07
     TRS4 it   3 1.00000000   0.427E+00       0.000       32.256   0.100E-07
     TRS4 it   4 1.00000000   0.219E+00       0.000       32.256   0.100E-07
     TRS4 it   5 1.00000000   0.714E-01       0.000       32.256   0.100E-07
     TRS4 it   6 1.00000000   0.959E-02       0.000       32.256   0.100E-07
     TRS4 it   7 1.00000000   0.231E-03       0.000       32.256   0.100E-07
     TRS4 it   8 1.00000000   0.186E-06       0.000       32.256   0.100E-07
     TRS4 it   9 1.00000000   0.147E-12       0.000       32.256   0.100E-07
     Final TRS4 iteration    9 1.00000000   0.147E-12
     Chemical potential (mu):       0.01022
 
 PAO| energy:  -7.8131516044581160      penalty:   1.3160109024162846E-005
 PAO|LS| adapt:  T T T
 PAO|LS| adapt: scan_steps:    0.0000000000000000       0.44482658632608013       0.88965317265216026     
 PAO|LS| adapt: energies:   -7.8131521258574512       -7.8132019426025208       -7.8131516044581160     
 PAO|LS| adapt: suggested step_size:   0.44366871830967652     
 PAO|LS| adapt: predicted energy  -7.8132019429418165     
 PAO| ======================= Iteration:        25 =============================

     Lanczos converged:  T threshold:   0.100E-02
     Est. extremal eigenvalues:    0.277E+01   0.178E+00
     Est. condition number :    0.155E+02

 Order=           3
     NS sqrt iter    1 1.00000000   0.705E+00       0.001       64.512
     NS sqrt iter    2 1.00000000   0.330E+00       0.001      110.592
     NS sqrt iter    3 1.00000000   0.762E-01       0.001      110.592
     NS sqrt iter    4 1.00000000   0.194E-02       0.001      110.592
     NS sqrt iter    5 1.00000000   0.668E-07       0.001       74.240
     Symmetrizing Results
     Final NS sqrt iter    5 1.00000000   0.603E-09

     Est. extremal eigenvalues     -0.93797     1.72570  converged:  T
     TRS4 it   1 1.00000000   0.881E+00       0.000       16.128   0.100E-07
     TRS4 it   2 1.00000000   0.625E+00       0.000       32.256   0.100E-07
     TRS4 it   3 1.00000000   0.427E+00       0.000       32.256   0.100E-07
     TRS4 it   4 1.00000000   0.219E+00       0.000       32.256   0.100E-07
     TRS4 it   5 1.00000000   0.714E-01       0.000       32.256   0.100E-07
     TRS4 it   6 1.00000000   0.956E-02       0.000       32.256   0.100E-07
     TRS4 it   7 1.00000000   0.229E-03       0.000       32.256   0.100E-07
     TRS4 it   8 1.00000000   0.182E-06       0.000       32.256   0.100E-07
     TRS4 it   9 1.00000000   0.140E-12       0.000       32.256   0.100E-07
     Final TRS4 iteration    9 1.00000000   0.140E-12
     Chemical potential (mu):       0.01055
 
 PAO| energy:  -7.8132019425293393      penalty:   1.3815719008663722E-005
 PAO|CG| trace_G_new    8.0593780133711746E-005
 PAO|CG| trace_G_prev    2.2329452313984472E-004
 PAO|CG| trace_G_mix    7.0632851879753385E-007
 PAO|CG| trace_D    3.1516666816677475E-004
 PAO|CG| trace_D_Gnew  -3.5627615401524996E-007
 PAO|CG| beta:   0.35776717893292154     
 PAO| norm of gradient:   8.9774038637966905E-003
 PAO| energy improvement:  -4.9816671888081032E-005
 PAO| step     25                   -7.813201943  0.561E-03  0.444E+00     0.036
 PAO|LS| adapt:  T F F
 PAO|LS| adapt: scan_steps:    0.0000000000000000        0.0000000000000000        0.0000000000000000     
 PAO|LS| adapt: energies:   -7.8132019425293393        0.0000000000000000        0.0000000000000000     
 PAO| ======================= Iteration:        26 =============================

     Lanczos converged:  T threshold:   0.100E-02
     Est. extremal eigenvalues:    0.277E+01   0.179E+00
     Est. condition number :    0.155E+02

 Order=           3
     NS sqrt iter    1 1.00000000   0.705E+00       0.001       64.512
     NS sqrt iter    2 1.00000000   0.330E+00       0.001      110.592
     NS sqrt iter    3 1.00000000   0.761E-01       0.001      110.592
     NS sqrt iter    4 1.00000000   0.193E-02       0.001      110.592
     NS sqrt iter    5 1.00000000   0.659E-07       0.001       74.240
     Symmetrizing Results
     Final NS sqrt iter    5 1.00000000   0.597E-09

     Est. extremal eigenvalues     -0.93797     1.72488  converged:  T
     TRS4 it   1 1.00000000   0.881E+00       0.000       16.128   0.100E-07
     TRS4 it   2 1.00000000   0.625E+00       0.000       32.256   0.100E-07
     TRS4 it   3 1.00000000   0.427E+00       0.000       32.256   0.100E-07
     TRS4 it   4 1.00000000   0.219E+00       0.000       32.256   0.100E-07
     TRS4 it   5 1.00000000   0.712E-01       0.000       32.256   0.100E-07
     TRS4 it   6 1.00000000   0.953E-02       0.000       32.256   0.100E-07
     TRS4 it   7 1.00000000   0.227E-03       0.000       32.256   0.100E-07
     TRS4 it   8 1.00000000   0.179E-06       0.000       32.256   0.100E-07
     TRS4 it   9 1.00000000   0.136E-12       0.000       32.256   0.100E-07
     Final TRS4 iteration    9 1.00000000   0.136E-12
     Chemical potential (mu):       0.01066
 
 PAO| energy:  -7.8132060182415364      penalty:   1.3089620885510604E-005
 PAO|LS| adapt:  T T F
 PAO|LS| adapt: scan_steps:    0.0000000000000000       0.44366871830967652        0.0000000000000000     
 PAO|LS| adapt: energies:   -7.8132019425293393       -7.8132060182415364        0.0000000000000000     
 PAO| ======================= Iteration:        27 =============================

     Lanczos converged:  T threshold:   0.100E-02
     Est. extremal eigenvalues:    0.276E+01   0.179E+00
     Est. condition number :    0.155E+02

 Order=           3
     NS sqrt iter    1 1.00000000   0.705E+00       0.001       64.512
     NS sqrt iter    2 1.00000000   0.330E+00       0.001      110.592
     NS sqrt iter    3 1.00000000   0.760E-01       0.001      110.592
     NS sqrt iter    4 1.00000000   0.193E-02       0.001      110.592
     NS sqrt iter    5 1.00000000   0.650E-07       0.001       74.112
     Symmetrizing Results
     Final NS sqrt iter    5 1.00000000   0.594E-09

     Est. extremal eigenvalues     -0.93797     1.72406  converged:  T
     TRS4 it   1 1.00000000   0.881E+00       0.000       16.128   0.100E-07
     TRS4 it   2 1.00000000   0.625E+00       0.000       32.256   0.100E-07
     TRS4 it   3 1.00000000   0.427E+00       0.000       32.256   0.100E-07
     TRS4 it   4 1.00000000   0.219E+00       0.000       32.256   0.100E-07
     TRS4 it   5 1.00000000   0.711E-01       0.000       32.256   0.100E-07
     TRS4 it   6 1.00000000   0.950E-02       0.000       32.256   0.100E-07
     TRS4 it   7 1.00000000   0.225E-03       0.000       32.256   0.100E-07
     TRS4 it   8 1.00000000   0.176E-06       0.000       32.256   0.100E-07
     TRS4 it   9 1.00000000   0.131E-12       0.000       32.256   0.100E-07
     Final TRS4 iteration    9 1.00000000   0.131E-12
     Chemical potential (mu):       0.01078
 
 PAO| energy:  -7.8131465118238319      penalty:   1.2387537122800337E-005
 PAO|LS| adapt:  T T T
 PAO|LS| adapt: scan_steps:    0.0000000000000000       0.44366871830967652       0.88733743661935305     
 PAO|LS| adapt: energies:   -7.8132019425293393       -7.8132060182415364       -7.8131465118238319     
 PAO|LS| adapt: suggested step_size:   0.25027420553107549     
 PAO|LS| adapt: predicted energy  -7.8132120587813807     
 PAO| ======================= Iteration:        28 =============================

     Lanczos converged:  T threshold:   0.100E-02
     Est. extremal eigenvalues:    0.277E+01   0.179E+00
     Est. condition number :    0.155E+02

 Order=           3
     NS sqrt iter    1 1.00000000   0.705E+00       0.001       64.512
     NS sqrt iter    2 1.00000000   0.330E+00       0.001      110.592
     NS sqrt iter    3 1.00000000   0.762E-01       0.001      110.592
     NS sqrt iter    4 1.00000000   0.194E-02       0.001      110.592
     NS sqrt iter    5 1.00000000   0.663E-07       0.001       74.240
     Symmetrizing Results
     Final NS sqrt iter    5 1.00000000   0.600E-09

     Est. extremal eigenvalues     -0.93797     1.72523  converged:  T
     TRS4 it   1 1.00000000   0.881E+00       0.000       16.128   0.100E-07
     TRS4 it   2 1.00000000   0.625E+00       0.000       32.256   0.100E-07
     TRS4 it   3 1.00000000   0.427E+00       0.000       32.256   0.100E-07
     TRS4 it   4 1.00000000   0.219E+00       0.000       32.256   0.100E-07
     TRS4 it   5 1.00000000   0.713E-01       0.000       32.256   0.100E-07
     TRS4 it   6 1.00000000   0.954E-02       0.000       32.256   0.100E-07
     TRS4 it   7 1.00000000   0.228E-03       0.000       32.256   0.100E-07
     TRS4 it   8 1.00000000   0.180E-06       0.000       32.256   0.100E-07
     TRS4 it   9 1.00000000   0.138E-12       0.000       32.256   0.100E-07
     Final TRS4 iteration    9 1.00000000   0.138E-12
     Chemical potential (mu):       0.01061
 
 PAO| energy:  -7.8132120493919830      penalty:   1.3403153764136369E-005
 PAO|CG| trace_G_new    3.2467749766701496E-005
 PAO|CG| trace_G_prev    8.0593780133711746E-005
 PAO|CG| trace_G_mix    5.2184598816877236E-008
 PAO|CG| trace_D    1.2118920765850540E-004
 PAO|CG| trace_D_Gnew  -2.5891484391072636E-008
 PAO|CG| beta:   0.40220926620025166     
 PAO| norm of gradient:   5.6980478908746895E-003
 PAO| energy improvement:  -1.0106862643688430E-005
 PAO| step     28                   -7.813212049  0.356E-03  0.250E+00     0.036
 PAO|LS| adapt:  T F F
 PAO|LS| adapt: scan_steps:    0.0000000000000000        0.0000000000000000        0.0000000000000000     
 PAO|LS| adapt: energies:   -7.8132120493919830        0.0000000000000000        0.0000000000000000     
 PAO| ======================= Iteration:        29 =============================

     Lanczos converged:  T threshold:   0.100E-02
     Est. extremal eigenvalues:    0.277E+01   0.179E+00
     Est. condition number :    0.155E+02

 Order=           3
     NS sqrt iter    1 1.00000000   0.705E+00       0.001       64.512
     NS sqrt iter    2 1.00000000   0.330E+00       0.001      110.592
     NS sqrt iter    3 1.00000000   0.761E-01       0.001      110.592
     NS sqrt iter    4 1.00000000   0.193E-02       0.001      110.592
     NS sqrt iter    5 1.00000000   0.659E-07       0.001       74.240
     Symmetrizing Results
     Final NS sqrt iter    5 1.00000000   0.597E-09

     Est. extremal eigenvalues     -0.93797     1.72493  converged:  T
     TRS4 it   1 1.00000000   0.881E+00       0.000       16.128   0.100E-07
     TRS4 it   2 1.00000000   0.625E+00       0.000       32.256   0.100E-07
     TRS4 it   3 1.00000000   0.427E+00       0.000       32.256   0.100E-07
     TRS4 it   4 1.00000000   0.219E+00       0.000       32.256   0.100E-07
     TRS4 it   5 1.00000000   0.712E-01       0.000       32.256   0.100E-07
     TRS4 it   6 1.00000000   0.951E-02       0.000       32.256   0.100E-07
     TRS4 it   7 1.00000000   0.226E-03       0.000       32.256   0.100E-07
     TRS4 it   8 1.00000000   0.178E-06       0.000       32.256   0.100E-07
     TRS4 it   9 1.00000000   0.134E-12       0.000       32.256   0.100E-07
     Final TRS4 iteration    9 1.00000000   0.134E-12
     Chemical potential (mu):       0.01074
 
 PAO| energy:  -7.8132191955261439      penalty:   1.2969319053973146E-005
 PAO|LS| adapt:  T T F
 PAO|LS| adapt: scan_steps:    0.0000000000000000       0.25027420553107549        0.0000000000000000     
 PAO|LS| adapt: energies:   -7.8132120493919830       -7.8132191955261439        0.0000000000000000     
 PAO| ======================= Iteration:        30 =============================

     Lanczos converged:  T threshold:   0.100E-02
     Est. extremal eigenvalues:    0.276E+01   0.179E+00
     Est. condition number :    0.155E+02

 Order=           3
     NS sqrt iter    1 1.00000000   0.705E+00       0.001       64.512
     NS sqrt iter    2 1.00000000   0.330E+00       0.001      110.592
     NS sqrt iter    3 1.00000000   0.760E-01       0.001      110.592
     NS sqrt iter    4 1.00000000   0.193E-02       0.001      110.592
     NS sqrt iter    5 1.00000000   0.655E-07       0.001       74.240
     Symmetrizing Results
     Final NS sqrt iter    5 1.00000000   0.594E-09

     Est. extremal eigenvalues     -0.93797     1.72462  converged:  T
     TRS4 it   1 1.00000000   0.881E+00       0.000       16.128   0.100E-07
     TRS4 it   2 1.00000000   0.625E+00       0.000       32.256   0.100E-07
     TRS4 it   3 1.00000000   0.427E+00       0.000       32.256   0.100E-07
     TRS4 it   4 1.00000000   0.219E+00       0.000       32.256   0.100E-07
     TRS4 it   5 1.00000000   0.711E-01       0.000       32.256   0.100E-07
     TRS4 it   6 1.00000000   0.949E-02       0.000       32.256   0.100E-07
     TRS4 it   7 1.00000000   0.225E-03       0.000       32.256   0.100E-07
     TRS4 it   8 1.00000000   0.175E-06       0.000       32.256   0.100E-07
     TRS4 it   9 1.00000000   0.130E-12       0.000       32.256   0.100E-07
     Final TRS4 iteration    9 1.00000000   0.130E-12
     Chemical potential (mu):       0.01087
 
 PAO| energy:  -7.8132243774406254      penalty:   1.2543456762938165E-005
 PAO|LS| adapt:  T T F
 PAO|LS| adapt: scan_steps:    0.0000000000000000       0.50054841106215098        0.0000000000000000     
 PAO|LS| adapt: energies:   -7.8132120493919830       -7.8132243774406254        0.0000000000000000     
 PAO| ======================= Iteration:        31 =============================

     Lanczos converged:  T threshold:   0.100E-02
     Est. extremal eigenvalues:    0.276E+01   0.179E+00
     Est. condition number :    0.155E+02

 Order=           3
     NS sqrt iter    1 1.00000000   0.705E+00       0.001       64.512
     NS sqrt iter    2 1.00000000   0.330E+00       0.001      110.592
     NS sqrt iter    3 1.00000000   0.759E-01       0.001      110.592
     NS sqrt iter    4 1.00000000   0.192E-02       0.001      110.592
     NS sqrt iter    5 1.00000000   0.647E-07       0.001       74.112
     Symmetrizing Results
     Final NS sqrt iter    5 1.00000000   0.600E-09

     Est. extremal eigenvalues     -0.93798     1.72400  converged:  T
     TRS4 it   1 1.00000000   0.881E+00       0.000       16.128   0.100E-07
     TRS4 it   2 1.00000000   0.625E+00       0.000       32.256   0.100E-07
     TRS4 it   3 1.00000000   0.427E+00       0.000       32.256   0.100E-07
     TRS4 it   4 1.00000000   0.218E+00       0.000       32.256   0.100E-07
     TRS4 it   5 1.00000000   0.709E-01       0.000       32.256   0.100E-07
     TRS4 it   6 1.00000000   0.943E-02       0.000       32.256   0.100E-07
     TRS4 it   7 1.00000000   0.222E-03       0.000       32.256   0.100E-07
     TRS4 it   8 1.00000000   0.170E-06       0.000       32.256   0.100E-07
     TRS4 it   9 1.00000000   0.123E-12       0.000       32.256   0.100E-07
     Final TRS4 iteration    9 1.00000000   0.123E-12
     Chemical potential (mu):       0.01113
 
 PAO| energy:  -7.8132288503189500      penalty:   1.1715484103761776E-005
 PAO|LS| Need extra step
 PAO|LS| adapt:  T T F
 PAO|LS| adapt: scan_steps:    0.0000000000000000        1.0010968221243020        0.0000000000000000     
 PAO|LS| adapt: energies:   -7.8132120493919830       -7.8132288503189500        0.0000000000000000     
 PAO| ======================= Iteration:        32 =============================

     Lanczos converged:  T threshold:   0.100E-02
     Est. extremal eigenvalues:    0.276E+01   0.179E+00
     Est. condition number :    0.154E+02

 Order=           3
[...]
     TRS4 it   1 1.00000000   0.880E+00       0.000       16.128   0.100E-07
     TRS4 it   2 1.00000000   0.634E+00       0.001       32.256   0.100E-07
     TRS4 it   3 1.00000000   0.456E+00       0.000       32.256   0.100E-07
     TRS4 it   4 1.00000000   0.279E+00       0.000       32.256   0.100E-07
     TRS4 it   5 1.00000000   0.138E+00       0.000       32.256   0.100E-07
     TRS4 it   6 1.00000000   0.441E-01       0.000       32.256   0.100E-07
     TRS4 it   7 1.00000000   0.626E-02       0.000       32.256   0.100E-07
     TRS4 it   8 1.00000000   0.166E-03       0.000       32.256   0.100E-07
     TRS4 it   9 1.00000000   0.124E-06       0.000       32.256   0.100E-07
     TRS4 it  10 1.00000000   0.693E-13       0.000       32.256   0.100E-07
     Final TRS4 iteration   10 1.00000000   0.693E-13
     Chemical potential (mu):      -0.07752
 
 PAO| energy:  -7.8123250459418276      penalty:   2.2766406539799963E-008
 PAO|CG| warming up with steepest descent
 PAO|CG| beta:    0.0000000000000000     
 PAO| norm of gradient:   1.2068951852970237E-004
 PAO| energy improvement:  -4.8886690251492837E-009
 PAO| step    425                   -7.812325046  0.754E-05  0.252E+00     0.055
 PAO| converged after          425  steps :-)
 PAO| Recalculating energy after mixing.

     Lanczos converged:  T threshold:   0.100E-02
     Est. extremal eigenvalues:    0.250E+01   0.190E+00
     Est. condition number :    0.132E+02

 Order=           3
     NS sqrt iter    1 1.00000000   0.635E+00       0.001       64.512
     NS sqrt iter    2 1.00000000   0.276E+00       0.001      110.592
     NS sqrt iter    3 1.00000000   0.489E-01       0.001      110.592
     NS sqrt iter    4 1.00000000   0.785E-03       0.001      110.592
     NS sqrt iter    5 1.00000000   0.637E-08       0.001       38.272
     Symmetrizing Results
     Final NS sqrt iter    5 1.00000000   0.371E-09

     Est. extremal eigenvalues     -0.93766     1.63356  converged:  T
     TRS4 it   1 1.00000000   0.880E+00       0.000       16.128   0.100E-07
     TRS4 it   2 1.00000000   0.634E+00       0.000       32.256   0.100E-07
     TRS4 it   3 1.00000000   0.456E+00       0.000       32.256   0.100E-07
     TRS4 it   4 1.00000000   0.279E+00       0.000       32.256   0.100E-07
     TRS4 it   5 1.00000000   0.138E+00       0.000       32.256   0.100E-07
     TRS4 it   6 1.00000000   0.441E-01       0.000       32.256   0.100E-07
     TRS4 it   7 1.00000000   0.626E-02       0.000       32.256   0.100E-07
     TRS4 it   8 1.00000000   0.166E-03       0.000       32.256   0.100E-07
     TRS4 it   9 1.00000000   0.124E-06       0.000       32.256   0.100E-07
     TRS4 it  10 1.00000000   0.689E-13       0.000       32.256   0.100E-07
     Final TRS4 iteration   10 1.00000000   0.689E-13
     Chemical potential (mu):      -0.07752
 
 PAO| energy:  -7.8123250447196506      penalty:   2.2998693764522274E-008
 PAO| Writing restart file.
     Est. extremal eigenvalues     -0.93766     1.63356  converged:  T
     TRS4 it   1 1.00000000   0.880E+00       0.000       16.128   0.100E-07
     TRS4 it   2 1.00000000   0.634E+00       0.000       32.256   0.100E-07
     TRS4 it   3 1.00000000   0.456E+00       0.000       32.256   0.100E-07
     TRS4 it   4 1.00000000   0.279E+00       0.000       32.256   0.100E-07
     TRS4 it   5 1.00000000   0.138E+00       0.000       32.256   0.100E-07
     TRS4 it   6 1.00000000   0.441E-01       0.000       32.256   0.100E-07
     TRS4 it   7 1.00000000   0.626E-02       0.000       32.256   0.100E-07
     TRS4 it   8 1.00000000   0.166E-03       0.000       32.256   0.100E-07
     TRS4 it   9 1.00000000   0.124E-06       0.000       32.256   0.100E-07
     TRS4 it  10 1.00000000   0.689E-13       0.000       32.256   0.100E-07
     Final TRS4 iteration   10 1.00000000   0.689E-13
     Chemical potential (mu):      -0.07752

 SCF     1       -34.449894616       -34.449894616    1.665617

*********************************************************
 Using MIXING_FRACTION=0.450 to mix KS matrix:  iscf=  2
 KS_nw=0.450*KS + 0.550*KS_old
*********************************************************
     Est. extremal eigenvalues     -0.93766     1.63356  converged:  T
     TRS4 it   1 1.00000000   0.880E+00       0.000       16.128   0.100E-07
     TRS4 it   2 1.00000000   0.634E+00       0.000       32.256   0.100E-07
     TRS4 it   3 1.00000000   0.456E+00       0.000       32.256   0.100E-07
     TRS4 it   4 1.00000000   0.279E+00       0.000       32.256   0.100E-07
     TRS4 it   5 1.00000000   0.138E+00       0.000       32.256   0.100E-07
     TRS4 it   6 1.00000000   0.441E-01       0.000       32.256   0.100E-07
     TRS4 it   7 1.00000000   0.626E-02       0.000       32.256   0.100E-07
     TRS4 it   8 1.00000000   0.166E-03       0.000       32.256   0.100E-07
     TRS4 it   9 1.00000000   0.124E-06       0.000       32.256   0.100E-07
     TRS4 it  10 1.00000000   0.697E-13       0.000       32.256   0.100E-07
     Final TRS4 iteration   10 1.00000000   0.697E-13
     Chemical potential (mu):      -0.07751

 SCF     2       -34.449894616        -0.000000000    1.592077


 SCF run converged in     2 steps.

 PAO| Storing density matrix for ASPC guess in slot:           1

 ENERGY| Total FORCE_EVAL ( QS ) energy [a.u.]:              -34.449894616273610

 -------------------------------------------------------------------------------
 -                                                                             -
 -                                DBCSR STATISTICS                             -
 -                                                                             -
 -------------------------------------------------------------------------------
 COUNTER                                    TOTAL       BLAS       SMM       ACC
 flops     5 x     5 x     4                20000       0.0%    100.0%      0.0%
 flops    13 x     5 x     4                20800       0.0%    100.0%      0.0%
 flops     5 x    13 x     4                20800       0.0%    100.0%      0.0%
 flops    13 x    13 x     4                40560       0.0%    100.0%      0.0%
 flops     4 x     4 x     5              3336960       0.0%    100.0%      0.0%
 flops     5 x     4 x     5              4076800       0.0%    100.0%      0.0%
 flops     4 x     4 x    13              4338048       0.0%    100.0%      0.0%
 flops    13 x     4 x     5              5299840       0.0%    100.0%      0.0%
 flops     5 x     4 x    13              5299840       0.0%    100.0%      0.0%
 flops     5 x     4 x     4              6432640       0.0%    100.0%      0.0%
 flops    13 x     4 x    13              6889792       0.0%    100.0%      0.0%
 flops    13 x     4 x     4              8494304       0.0%    100.0%      0.0%
 flops     4 x     4 x     4            432320256       0.0%    100.0%      0.0%
 flops inhomo. stacks                           0       0.0%      0.0%      0.0%
 flops total                       476.590640E+06       0.0%    100.0%      0.0%
 flops max/rank                    476.590640E+06       0.0%    100.0%      0.0%
 matmuls inhomo. stacks                         0       0.0%      0.0%      0.0%
 matmuls total                            3515483       0.0%    100.0%      0.0%
 number of processed stacks                 27998       0.0%    100.0%      0.0%
 average stack size                                     0.0     125.6       0.0
 marketing flops                   775.247616E+06
 -------------------------------------------------------------------------------
 # multiplications                          23430
 max memory usage/rank             506.171392E+06
 # max total images/rank                        1
 # max 3D layers                                1
 # MPI messages exchanged                       0
 -------------------------------------------------------------------------------

 -------------------------------------------------------------------------------
 -                                                                             -
 -                                DBM STATISTICS                               -
 -                                                                             -
 -------------------------------------------------------------------------------
    M  x    N  x    K                                          COUNT     PERCENT
 -------------------------------------------------------------------------------

 -------------------------------------------------------------------------------
 -                                                                             -
 -                                GRID STATISTICS                              -
 -                                                                             -
 -------------------------------------------------------------------------------
 LP    KERNEL             BACKEND                              COUNT     PERCENT
 2     collocate ortho    REF                                  38180      30.79%
 2     integrate ortho    REF                                  38180      30.79%
 3     collocate ortho    REF                                  19540      15.76%
 3     integrate ortho    REF                                  19540      15.76%
 4     collocate ortho    REF                                   4270       3.44%
 4     integrate ortho    REF                                   4270       3.44%
 0     collocate general  REF                                      6       0.00%
 -------------------------------------------------------------------------------

 MEMORY| Estimated peak process memory [MiB]                                 483

 -------------------------------------------------------------------------------
 -                                                                             -
 -                           R E F E R E N C E S                               -
 -                                                                             -
 -------------------------------------------------------------------------------
 
 CP2K version 2023.1 (Development Version), the CP2K developers group (2023).
 CP2K is freely available from https://www.cp2k.org/ .

 Kuehne,Thomas D.; Iannuzzi,Marcella; Del Ben,Mauro;
 Rybkin,Vladimir V.; Seewald,Patrick; Stein,Frederick; Laino,Teodoro;
 Khaliullin,Rustam Z.; Schuett,Ole; Schiffmann,Florian; Golze,Dorothea;
 Wilhelm,Jan; Chulkov,Sergey; Bani-Hashemian,Mohammad Hossein;
 Weber,Valery; Borstnik,Urban; Taillefumier,Mathieu;
 Jakobovits,Alice Shoshana; Lazzaro,Alfio; Pabst,Hans; Mueller,Tiziano;
 Schade,Robert; Guidon,Manuel; Andermatt,Samuel; Holmberg,Nico;
 Schenter,Gregory K.; Hehn,Anna; Bussy,Augustin; Belleflamme,Fabian;
 Tabacchi,Gloria; Gloess,Andreas; Lass,Michael; Bethune,Iain;
 Mundy,Christopher J.; Plessl,Christian; Watkins,Matt;
 VandeVondele,Joost; Krack,Matthias; Hutter,Juerg. 
 The Journal of Chemical Physics, 152 (19), (2020). 
 CP2K: An electronic structure and molecular dynamics software package -
 Quickstep: Efficient and accurate electronic structure calculations.
 https://doi.org/10.1063/5.0007045

 Schuett, O; VandeVondele, J. 
 Journal of Chemical Theory and Computation, 14, (2018). 
 Machine Learning Adaptive Basis Sets for Efficient Large Scale
 Density Functional Theory Simulation.
 https://doi.org/10.1021/acs.jctc.8b00378

 Schuett, Ole; Messmer, Peter; Hutter, Juerg; VandeVondele, Joost. 
 Electronic Structure Calculations on Graphics Processing Units, John
 Wiley & Sons, Ltd, 173-190 (2016). 
 GPU-Accelerated Sparse Matrix-Matrix Multiplication for
 Linear Scaling Density Functional Theory.
 https://doi.org/10.1002/9781118670712.ch8

 Heinecke, A; Henry, G; Hutchinson, M; Pabst, H. 
 Proceedings of Intl. Supercomputing Conference, 981-991 (2016). 
 LIBXSMM: Accelerating Small Matrix Multiplications
 by Runtime Code Generation.
 https://doi.org/10.1109/SC.2016.83

 Borstnik, U; VandeVondele, J; Weber, V; Hutter, J. 
 PARALLEL COMPUTING, 40 (5-6), 47-58 (2014). 
 Sparse matrix multiplication: The distributed block-compressed sparse
 row library.
 https://doi.org/10.1016/j.parco.2014.03.012

 Hutter, J; Iannuzzi, M; Schiffmann, F; VandeVondele, J. 
 WIREs Comput Mol Sci., 4 (1), 15-25 (2014). 
 CP2K: atomistic simulations of condensed matter systems.
 https://doi.org/10.1002/wcms.1159

 VandeVondele, J; Borstnik, U; Hutter, J. 
 JOURNAL OF CHEMICAL THEORY AND COMPUTATION, 8 (10), 3565-3573 (2012). 
 Linear Scaling Self-Consistent Field Calculations with Millions of Atoms
 in the Condensed Phase.
 https://doi.org/10.1021/ct200897x

 VandeVondele, J; Hutter, J. 
 JOURNAL OF CHEMICAL PHYSICS, 127 (11), 114105 (2007). 
 Gaussian basis sets for accurate calculations on molecular systems in
 gas and condensed phases.
 https://doi.org/10.1063/1.2770708

 Krack, M. 
 THEORETICAL CHEMISTRY ACCOUNTS, 114 (1-3), 145-152 (2005). 
 Pseudopotentials for H to Kr optimized for gradient-corrected
 exchange-correlation functionals.
 https://doi.org/10.1007/s00214-005-0655-y

 VandeVondele, J; Krack, M; Mohamed, F; Parrinello, M; Chassaing, T;
 Hutter, J. COMPUTER PHYSICS COMMUNICATIONS, 167 (2), 103-128 (2005). 
 QUICKSTEP: Fast and accurate density functional calculations using a
 mixed Gaussian and plane waves approach.
 https://doi.org/10.1016/j.cpc.2004.12.014

 Frigo, M; Johnson, SG. 
 PROCEEDINGS OF THE IEEE, 93 (2), 216-231 (2005). 
 The design and implementation of FFTW3.
 https://doi.org/10.1109/JPROC.2004.840301

 Niklasson, AMN; Tymczak, CJ; Challacombe, M. 
 JOURNAL OF CHEMICAL PHYSICS, 118 (19), 8611-8620 (2003). 
 Trace resetting density matrix purification in O(N)
 self-consistent-field theory.
 https://doi.org/10.1063/1.1559913

 Hartwigsen, C; Goedecker, S; Hutter, J. 
 PHYSICAL REVIEW B, 58 (7), 3641-3662 (1998). 
 Relativistic separable dual-space Gaussian pseudopotentials from H to Rn.
 https://doi.org/10.1103/PhysRevB.58.3641

 Lippert, G; Hutter, J; Parrinello, M. 
 MOLECULAR PHYSICS, 92 (3), 477-487 (1997). 
 A hybrid Gaussian and plane wave density functional scheme.
 https://doi.org/10.1080/002689797170220

 Perdew, JP; Burke, K; Ernzerhof, M. 
 PHYSICAL REVIEW LETTERS, 77 (18), 3865-3868 (1996). 
 Generalized gradient approximation made simple.
 https://doi.org/10.1103/PhysRevLett.77.3865

 Goedecker, S; Teter, M; Hutter, J. 
 PHYSICAL REVIEW B, 54 (3), 1703-1710 (1996). 
 Separable dual-space Gaussian pseudopotentials.
 https://doi.org/10.1103/PhysRevB.54.1703


 -------------------------------------------------------------------------------
 -                                                                             -
 -                                T I M I N G                                  -
 -                                                                             -
 -------------------------------------------------------------------------------
 SUBROUTINE                       CALLS  ASD         SELF TIME        TOTAL TIME
                                MAXIMUM       AVERAGE  MAXIMUM  AVERAGE  MAXIMUM
 CP2K                                 1  1.0    0.010    0.010   23.828   23.828
 qs_energies                          1  2.0    0.000    0.000   23.450   23.450
 ls_scf                               1  3.0    0.000    0.000   23.321   23.321
 ls_scf_main                          4  4.0    0.001    0.001   15.703   15.703
 ls_scf_dm_to_ks                      9  5.0    0.000    0.000   15.641   15.641
 qs_ks_update_qs_env                 10  6.0    0.000    0.000   13.982   13.982
 rebuild_ks_matrix                   10  7.0    0.000    0.000   13.981   13.981
 qs_ks_build_kohn_sham_matrix        10  8.0    0.002    0.002   13.981   13.981
 qs_vxc_create                       10  9.0    0.000    0.000    9.043    9.043
 xc_vxc_pw_create                    10 10.0    0.177    0.177    9.043    9.043
 pw_transfer                        191 11.1    0.021    0.021    7.423    7.423
 fft_wrap_pw1pw2                    171 12.3    0.003    0.003    7.206    7.206
 fft_wrap_pw1pw2_200                111 13.7    0.846    0.846    7.011    7.011
 xc_pw_derive                        60 12.0    0.001    0.001    5.338    5.338
 pao_update                           4  4.0    0.005    0.005    5.300    5.300
 pao_calc_energy                    428  5.0    0.002    0.002    4.802    4.802
 xc_rho_set_and_dset_create          10 11.0    0.214    0.214    4.653    4.653
 xc_pw_divergence                    10 11.0    0.001    0.001    4.079    4.079
 qs_rho_update_rho_low               10  6.0    0.000    0.000    3.940    3.940
 calculate_rho_elec                  10  7.0    0.037    0.037    3.940    3.940
 dbcsr_multiply_generic           23430  8.4    0.242    0.242    3.798    3.798
 sum_up_and_integrate                10  9.0    0.122    0.122    3.634    3.634
 integrate_v_rspace                  10 10.0    0.001    0.001    3.512    3.512
 fft3d_s                            172 14.2    2.707    2.707    2.721    2.721
 grid_integrate_task_list            10 11.0    2.654    2.654    2.654    2.654
 pao_dm_trs4                        428  6.0    0.002    0.002    2.515    2.515
 density_matrix_trs4                437  7.0    0.081    0.081    2.429    2.429
 grid_collocate_task_list            10  8.0    2.315    2.315    2.315    2.315
 pao_guess_initial_P                  1  4.0    0.000    0.000    2.285    2.285
 pao_read_preopt_dm                   1  5.0    0.000    0.000    2.285    2.285
 ls_scf_init_matrix_S               432  7.0    0.002    0.002    2.277    2.277
 pao_rebuild_S                      428  6.0    0.001    0.001    2.253    2.253
 matrix_sqrt_Newton_Schulz          432  8.0    0.058    0.058    2.055    2.055
 xc_functional_eval                  10 12.0    0.000    0.000    1.930    1.930
 pbe_lda_eval                        10 13.0    1.930    1.930    1.930    1.930
 pw_gather_s                         81 13.8    1.883    1.883    1.883    1.883
 pw_scatter_s                        90 14.7    1.724    1.724    1.724    1.724
 density_rs2pw                       10  8.0    0.001    0.001    1.588    1.588
 make_m2s                         46860  9.4    0.091    0.091    1.437    1.437
 multiply_cannon                  23430  9.4    0.576    0.576    1.411    1.411
 make_images                      46860 10.4    0.369    0.369    1.277    1.277
 pw_derive                           60 13.0    1.183    1.183    1.183    1.183
 potential_pw2rs                     10 11.0    0.001    0.001    0.857    0.857
 arnoldi_extremal                   869  8.5    0.002    0.002    0.750    0.750
 arnoldi_normal_ev                  869  9.5    0.006    0.006    0.748    0.748
 pw_copy                            120 11.8    0.732    0.732    0.732    0.732
 pw_axpy                             90 10.3    0.670    0.670    0.670    0.670
 build_subspace                     869 10.5    0.032    0.032    0.587    0.587
 dbcsr_matrix_vector_mult         20795 11.5    0.066    0.066    0.543    0.543
 pw_poisson_solve                    10  9.0    0.102    0.102    0.518    0.518
 pao_calc_AB                        564  5.8    0.000    0.000    0.494    0.494
 pao_calc_AB_equi                   564  6.8    0.015    0.015    0.493    0.493
 -------------------------------------------------------------------------------

 The number of warnings for this run is : 0
 
 -------------------------------------------------------------------------------
  **** **** ******  **  PROGRAM ENDED AT                 2023-02-01 10:45:43.656
 ***** ** ***  *** **   PROGRAM RAN ON                                    moritz
 **    ****   ******    PROGRAM RAN BY                                       ole
 ***** **    ** ** **   PROGRAM PROCESS ID                                148593
  **** **  *******  **  PROGRAM STOPPED IN /home/ole/git/pao_ml_equivar/2H2O_rot
                                           ations/phi_20
