 DBCSR| CPU Multiplication driver                                           BLAS
 DBCSR| Multrec recursion limit                                              512
 DBCSR| Multiplication stack size                                           1000
 DBCSR| Maximum elements for images                                    UNLIMITED
 DBCSR| Multiplicative factor virtual images                                   1
 DBCSR| Use multiplication densification                                       T
 DBCSR| Multiplication size stacks                                             3


  **** **** ******  **  PROGRAM STARTED AT               2019-03-28 17:32:50.922
 ***** ** ***  *** **   PROGRAM STARTED ON        oleschuett.zrh.corp.google.com
 **    ****   ******    PROGRAM STARTED BY                            oleschuett
 ***** **    ** ** **   PROGRAM PROCESS ID                                 32271
  **** **  *******  **  PROGRAM STARTED IN /usr/local/google/home/oleschuett/git
                                           /pao_ml_equivar/2H2O_rotations/phi_20

 CP2K| version string:                    CP2K version 7.0 (Development Version)
 CP2K| source code revision number:                                git:d9814d431
 CP2K| cp2kflags: libint fftw3 libxc libderiv_max_am1=5 libint_max_am=6         
 CP2K| is freely available from                            https://www.cp2k.org/
 CP2K| Program compiled at                          Mon Mar 25 16:50:07 CET 2019
 CP2K| Program compiled on                        oleschuett.zrh.corp.google.com
 CP2K| Program compiled for                                                local
 CP2K| Data directory path       /usr/local/google/home/oleschuett/git/cp2k/data
 CP2K| Input file name                                            2H2O_pao44.inp

 GLOBAL| Force Environment number                                              1
 GLOBAL| Basis set file name                                        BASIS_MOLOPT
 GLOBAL| Potential file name                                      GTH_POTENTIALS
 GLOBAL| MM Potential file name                                     MM_POTENTIAL
 GLOBAL| Coordinate file name                                         coords.xyz
 GLOBAL| Method name                                                        CP2K
 GLOBAL| Project name                                                 2H2O_pao44
 GLOBAL| Preferred FFT library                                             FFTW3
 GLOBAL| Preferred diagonalization lib.                                       SL
 GLOBAL| Run type                                                         ENERGY
 GLOBAL| All-to-all communication in single precision                          F
 GLOBAL| FFTs using library dependent lengths                                  F
 GLOBAL| Global print level                                                  LOW
 GLOBAL| MPI I/O enabled                                                       T
 GLOBAL| Total number of message passing processes                             1
 GLOBAL| Number of threads for this process                                    1
 GLOBAL| This output is from process                                           0
 GLOBAL| CPU model name :  Intel(R) Xeon(R) CPU E5-1650 v4 @ 3.60GHz

 MEMORY| system memory details [Kb]
 MEMORY|                        rank 0           min           max       average
 MEMORY| MemTotal             65953612      65953612      65953612      65953612
 MEMORY| MemFree               4220200       4220200       4220200       4220200
 MEMORY| Buffers               2545912       2545912       2545912       2545912
 MEMORY| Cached               25381696      25381696      25381696      25381696
 MEMORY| Slab                  3623540       3623540       3623540       3623540
 MEMORY| SReclaimable          2422248       2422248       2422248       2422248
 MEMORY| MemLikelyFree        34570056      34570056      34570056      34570056


 GENERATE|  Preliminary Number of Bonds generated:                             0
 GENERATE|  Achieved consistency in connectivity generation.

 *******************************************************************************
 *******************************************************************************
 **                                                                           **
 **     #####                         ##              ##                      **
 **    ##   ##            ##          ##              ##                      **
 **   ##     ##                       ##            ######                    **
 **   ##     ##  ##   ##  ##   #####  ##  ##   ####   ##    #####    #####    **
 **   ##     ##  ##   ##  ##  ##      ## ##   ##      ##   ##   ##  ##   ##   **
 **   ##  ## ##  ##   ##  ##  ##      ####     ###    ##   ######   ######    **
 **    ##  ###   ##   ##  ##  ##      ## ##      ##   ##   ##       ##        **
 **     #######   #####   ##   #####  ##  ##  ####    ##    #####   ##        **
 **           ##                                                    ##        **
 **                                                                           **
 **                                                ... make the atoms dance   **
 **                                                                           **
 **            Copyright (C) by CP2K developers group (2000 - 2018)           **
 **                                                                           **
 *******************************************************************************


 TOTAL NUMBERS AND MAXIMUM NUMBERS

  Total number of            - Atomic kinds:                                   2
                             - Atoms:                                          6
                             - Shell sets:                                     6
                             - Shells:                                        22
                             - Primitive Cartesian functions:                 42
                             - Cartesian basis functions:                     48
                             - Spherical basis functions:                     46

  Maximum angular momentum of- Orbital basis functions:                        2
                             - Local part of the GTH pseudopotential:          2
                             - Non-local part of the GTH pseudopotential:      0

 ------------------------------ Linear scaling SCF -----------------------------
 eps_scf:                                                              0.100E-07
 eps_filter:                                                           0.100E-07
 mixing_fraction:                                                      0.450E+00
 max_scf:                                                                     25
 fixed chemical potential (mu)                                                 F
 has unit metric:                                                              F
 Computing inv(S):                                                             T
 Computing sqrt(S):                                                            T
 Computing s preconditioner                                                    F
 sign sqrt order:                                                              3
 Extrapolation order:                                                          1
 Use single precision matrices                                                 F
 S preconditioner type                                                      NONE
 Polarized Atomic Orbitals (PAO)                                               T
 Purification method                                   Trace resetting 4th order
 Cluster type                                                             ATOMIC
 Computing Chebyshev                                                       FALSE
 Using PAO                                                                     T
 -------------------------------------------------------------------------------

 
 PAO|                                  EPS_PAO                           0.1E-04
 PAO|                                  MIXING                            0.5E+00
 PAO|                                  MAX_PAO                              1000
 PAO|                                  MAX_CYCLES                           1000
 PAO|                                  PARAMETERIZATION                   DIRECT
 PAO|                                  PRECONDITION                            F
 PAO|                                  REGULARIZATION                    0.0E+00
 PAO|                                  EPS_PGF                           0.1E-09
 PAO|                                  PENALTY_DISTANCE                  0.1E+00
 PAO|                                  PENALTY_STRENGTH                  0.5E-02
 PAO|                                  LINPOT_PRECONDITION_DELTA         0.0E+00
 PAO|                                  LINPOT_INITGUESS_DELT             0.0E+00
 PAO|                                  LINPOT_REGULARIZATION_DELTA       0.0E+00
 PAO|                                  LINPOT_REGULARIZATION_STRENGTH    0.0E+00
 PAO|                                  OPTIMIZER                              CG
 PAO|                                  CG_INIT_STEPS                           2
 PAO|                                  CG_RESET_LIMIT                    0.1E+00
 PAO|                                  CHECK_UNITARY_TOL                -0.1E+01
 PAO|                                  CHECK_GRADIENT_TOL               -0.1E+01
 PAO|                                  NUM_GRADIENT_ORDER                      2
 PAO|                                  NUM_GRADIENT_EPS                  0.1E-07
 PAO|                                  PRINT%RESTART%WRITE_CYCLES            100
 PAO|                                  RESTART_FILE 
 PAO|                                  PREOPT_DM_FILE 2H2O_ref_LS_DM_SPIN_1_RESTART.dm
 PAO|                                  MACHINE_LEARNING%METHOD        GAUSSIAN_P
 PAO|                                  MACHINE_LEARNING%PRIOR               ZERO
 PAO|                                  MACHINE_LEARNING%DESCRIPTOR     POTENTIAL
 PAO|                                  MACHINE_LEARNING%TOLERANCE        0.1E-01
 PAO|                                  MACHINE_LEARNING%GP_NOISE_VAR     0.1E+00
 PAO|                                  MACHINE_LEARNING%GP_SCALE         0.5E-01
 

 Calculating atomic Fock matrix for atomic kind: O

 Electronic structure
    Total number of core electrons                                          2.00
    Total number of valence electrons                                       6.00
    Total number of electrons                                               8.00
    Multiplicity                                                   not specified
    S   [  2.00] 2.00
    P      4.00


 *******************************************************************************
                  Iteration          Convergence                     Energy [au]
 *******************************************************************************
                          1        0.708315                     -15.576645311500
                          2        0.608879                     -15.587933561584
                          3        0.102828E-01                 -15.656849565404
                          4        0.113889E-02                 -15.656866888140
                          5        0.434197E-03                 -15.656867072159
                          6        0.263771E-03                 -15.656867091904
                          7        0.478536E-06                 -15.656867103452

 Energy components [Hartree]           Total Energy ::          -15.656867103452
                                        Band Energy ::           -3.000198112285
                                     Kinetic Energy ::           11.759971203220
                                   Potential Energy ::          -27.416838306672
                                      Virial (-V/T) ::            2.331369510426
                                        Core Energy ::          -26.140716385623
                                          XC Energy ::           -3.154051012914
                                     Coulomb Energy ::           13.637900295084
                       Total Pseudopotential Energy ::          -37.935781716540
                       Local Pseudopotential Energy ::          -39.218907440693
                    Nonlocal Pseudopotential Energy ::            1.283125724153
                                        Confinement ::            0.350941276976

 Orbital energies  State     L     Occupation   Energy[a.u.]          Energy[eV]

                       1     0          2.000      -0.864471          -23.523463

                       1     1          4.000      -0.317814           -8.648154


 Total Electron Density at R=0:                                         0.000068

 Calculating atomic Fock matrix for atomic kind: H

 Electronic structure
    Total number of core electrons                                          0.00
    Total number of valence electrons                                       1.00
    Total number of electrons                                               1.00
    Multiplicity                                                   not specified
    S      1.00


 *******************************************************************************
                  Iteration          Convergence                     Energy [au]
 *******************************************************************************
                          1        0.437545E-02                  -0.424159432110
                          2        0.531356E-03                  -0.424178438213
                          3        0.259176E-06                  -0.424178722480

 Energy components [Hartree]           Total Energy ::           -0.424178722480
                                        Band Energy ::           -0.199015229016
                                     Kinetic Energy ::            0.464007633961
                                   Potential Energy ::           -0.888186356441
                                      Virial (-V/T) ::            1.914163240935
                                        Core Energy ::           -0.479160803564
                                          XC Energy ::           -0.244352904054
                                     Coulomb Energy ::            0.299334985138
                       Total Pseudopotential Energy ::           -0.962295316385
                       Local Pseudopotential Energy ::           -0.962295316385
                    Nonlocal Pseudopotential Energy ::            0.000000000000
                                        Confinement ::            0.191268788606

 Orbital energies  State     L     Occupation   Energy[a.u.]          Energy[eV]

                       1     0          1.000      -0.199015           -5.415480


 Total Electron Density at R=0:                                         0.242907
 PAO| Made initial guess for matrix_X with norm:   4.8989794855663558     

     Lanczos converged:  T threshold:   0.100E-02
     Est. extremal eigenvalues:    0.336E+01   0.111E+00
     Est. condition number :    0.304E+02
     NS sqrt iter    1 1.00000000   0.820E+00       0.002       39.320
     NS sqrt iter    2 1.00000000   0.440E+00       0.002       64.336
     NS sqrt iter    3 1.00000000   0.171E+00       0.002       61.022
     NS sqrt iter    4 1.00000000   0.212E-01       0.002       65.056
     NS sqrt iter    5 1.00000000   0.622E-04       0.002       57.560
     Final NS sqrt iter    5 1.00000000   0.581E-08

 PAO| Read restart DM 2H2O_ref_LS_DM_SPIN_1_RESTART.dm with checksum:    74.332077388749084     
 PAO| Quickstep energy from restart density:  -34.450444102527975     
 PAO| ======================= Iteration:         1 =============================

     Lanczos converged:  T threshold:   0.100E-02
     Est. extremal eigenvalues:    0.336E+01   0.111E+00
     Est. condition number :    0.304E+02
     NS sqrt iter    1 1.00000000   0.820E+00       0.002       37.804
     NS sqrt iter    2 1.00000000   0.440E+00       0.002       64.187
     NS sqrt iter    3 1.00000000   0.171E+00       0.002       64.601
     NS sqrt iter    4 1.00000000   0.212E-01       0.002       64.671
     NS sqrt iter    5 1.00000000   0.622E-04       0.002       58.239
     Final NS sqrt iter    5 1.00000000   0.581E-08

     Est. extremal eigenvalues     -0.92077     1.95667  converged:  T
     TRS4 it   1 1.00000000   0.898E+00       0.001       16.128   0.100E-07
     TRS4 it   2 1.00000000   0.710E+00       0.001       32.256   0.100E-07
     TRS4 it   3 1.00000000   0.507E+00       0.001       32.256   0.100E-07
     TRS4 it   4 1.00000000   0.319E+00       0.001       32.256   0.100E-07
     TRS4 it   5 1.00000000   0.160E+00       0.001       32.256   0.100E-07
     TRS4 it   6 1.00000000   0.513E-01       0.001       32.256   0.100E-07
     TRS4 it   7 1.00000000   0.742E-02       0.001       32.256   0.100E-07
     TRS4 it   8 1.00000000   0.219E-03       0.001       32.256   0.100E-07
     TRS4 it   9 1.00000000   0.213E-06       0.001       32.256   0.100E-07
     TRS4 it  10 1.00000000   0.204E-12       0.001       32.256   0.100E-07
     Final TRS4 iteration   10 1.00000000   0.204E-12
     Chemical potential (mu):      -0.06683
 
 PAO| energy:  -7.6353576212336396      penalty:   1.4791141972893973E-033
 PAO|CG| warming up with steepest descent
 PAO|CG| beta:    0.0000000000000000     
 PAO| norm of gradient:  0.78324616376495670     
 PAO|LS| adapt:  T F F
 PAO|LS| adapt: scan_steps:    0.0000000000000000        0.0000000000000000        0.0000000000000000     
 PAO|LS| adapt: energies:   -7.6353576212336396        0.0000000000000000        0.0000000000000000     
 PAO| ======================= Iteration:         2 =============================

     Lanczos converged:  T threshold:   0.100E-02
     Est. extremal eigenvalues:    0.327E+01   0.123E+00
     Est. condition number :    0.267E+02
     NS sqrt iter    1 1.00000000   0.804E+00       0.002       32.356
     NS sqrt iter    2 1.00000000   0.425E+00       0.002       58.432
     NS sqrt iter    3 1.00000000   0.154E+00       0.002       58.923
     NS sqrt iter    4 1.00000000   0.148E-01       0.002       62.338
     NS sqrt iter    5 1.00000000   0.213E-04       0.002       39.888
     Final NS sqrt iter    5 1.00000000   0.708E-09

     Est. extremal eigenvalues     -0.92444     1.90009  converged:  T
     TRS4 it   1 1.00000000   0.896E+00       0.001       16.128   0.100E-07
     TRS4 it   2 1.00000000   0.691E+00       0.001       32.256   0.100E-07
     TRS4 it   3 1.00000000   0.492E+00       0.004        8.659   0.100E-07
     TRS4 it   4 1.00000000   0.301E+00       0.001       32.256   0.100E-07
     TRS4 it   5 1.00000000   0.141E+00       0.001       32.256   0.100E-07
     TRS4 it   6 1.00000000   0.402E-01       0.001       32.256   0.100E-07
     TRS4 it   7 1.00000000   0.461E-02       0.001       32.256   0.100E-07
     TRS4 it   8 1.00000000   0.851E-04       0.001       32.256   0.100E-07
     TRS4 it   9 1.00000000   0.322E-07       0.001       32.256   0.100E-07
     Final TRS4 iteration    9 1.00000000   0.322E-07
     Chemical potential (mu):      -0.05488
 
 PAO| energy:  -7.6908241260339221      penalty:   2.2474809915307588E-008
 PAO|LS| adapt:  T T F
 PAO|LS| adapt: scan_steps:    0.0000000000000000       0.10000000000000001        0.0000000000000000     
 PAO|LS| adapt: energies:   -7.6353576212336396       -7.6908241260339221        0.0000000000000000     
 PAO| ======================= Iteration:         3 =============================

     Lanczos converged:  T threshold:   0.100E-02
     Est. extremal eigenvalues:    0.318E+01   0.134E+00
     Est. condition number :    0.238E+02
     NS sqrt iter    1 1.00000000   0.786E+00       0.002       38.709
     NS sqrt iter    2 1.00000000   0.408E+00       0.002       62.032
     NS sqrt iter    3 1.00000000   0.137E+00       0.002       63.324
     NS sqrt iter    4 1.00000000   0.103E-01       0.002       63.614
     NS sqrt iter    5 1.00000000   0.756E-05       0.002       50.580
     Final NS sqrt iter    5 1.00000000   0.907E-10

     Est. extremal eigenvalues     -0.92787     1.85299  converged:  T
     TRS4 it   1 1.00000000   0.894E+00       0.001       16.128   0.100E-07
     TRS4 it   2 1.00000000   0.675E+00       0.001       32.256   0.100E-07
     TRS4 it   3 1.00000000   0.478E+00       0.001       32.256   0.100E-07
     TRS4 it   4 1.00000000   0.282E+00       0.001       32.256   0.100E-07
     TRS4 it   5 1.00000000   0.123E+00       0.001       32.256   0.100E-07
     TRS4 it   6 1.00000000   0.306E-01       0.001       32.256   0.100E-07
     TRS4 it   7 1.00000000   0.266E-02       0.001       32.256   0.100E-07
     TRS4 it   8 1.00000000   0.283E-04       0.001       32.256   0.100E-07
     TRS4 it   9 1.00000000   0.357E-08       0.001       32.256   0.100E-07
     Final TRS4 iteration    9 1.00000000   0.357E-08
     Chemical potential (mu):      -0.04196
 
 PAO| energy:  -7.7338711246202401      penalty:   3.5959719102633668E-007
 PAO|LS| adapt:  T T F
 PAO|LS| adapt: scan_steps:    0.0000000000000000       0.20000000000000001        0.0000000000000000     
 PAO|LS| adapt: energies:   -7.6353576212336396       -7.7338711246202401        0.0000000000000000     
 PAO| ======================= Iteration:         4 =============================

     Lanczos converged:  T threshold:   0.100E-02
     Est. extremal eigenvalues:    0.299E+01   0.152E+00
     Est. condition number :    0.196E+02
     NS sqrt iter    1 1.00000000   0.749E+00       0.002       34.853
     NS sqrt iter    2 1.00000000   0.374E+00       0.002       56.364
     NS sqrt iter    3 1.00000000   0.107E+00       0.002       54.759
     NS sqrt iter    4 1.00000000   0.515E-02       0.002       57.089
     NS sqrt iter    5 1.00000000   0.111E-05       0.002       45.397
     Final NS sqrt iter    5 1.00000000   0.209E-11

     Est. extremal eigenvalues     -0.93321     1.78099  converged:  T
     TRS4 it   1 1.00000000   0.889E+00       0.001       16.128   0.100E-07
     TRS4 it   2 1.00000000   0.646E+00       0.001       31.249   0.100E-07
     TRS4 it   3 1.00000000   0.450E+00       0.001       32.256   0.100E-07
     TRS4 it   4 1.00000000   0.246E+00       0.001       32.058   0.100E-07
     TRS4 it   5 1.00000000   0.920E-01       0.001       31.959   0.100E-07
     TRS4 it   6 1.00000000   0.164E-01       0.001       32.256   0.100E-07
     TRS4 it   7 1.00000000   0.728E-03       0.001       32.256   0.100E-07
     TRS4 it   8 1.00000000   0.205E-05       0.001       32.256   0.100E-07
     TRS4 it   9 1.00000000   0.186E-10       0.001       32.256   0.100E-07
     Final TRS4 iteration    9 1.00000000   0.186E-10
     Chemical potential (mu):      -0.01332
 
 PAO| energy:  -7.7810907047580189      penalty:   5.7535569154810867E-006
 PAO|LS| Need extra step
 PAO|LS| adapt:  T T F
 PAO|LS| adapt: scan_steps:    0.0000000000000000       0.40000000000000002        0.0000000000000000     
 PAO|LS| adapt: energies:   -7.6353576212336396       -7.7810907047580189        0.0000000000000000     
 PAO| ======================= Iteration:         5 =============================

     Lanczos converged:  T threshold:   0.100E-02
     Est. extremal eigenvalues:    0.264E+01   0.181E+00
     Est. condition number :    0.146E+02
     NS sqrt iter    1 1.00000000   0.687E+00       0.002       36.510
     NS sqrt iter    2 1.00000000   0.313E+00       0.002       61.436
     NS sqrt iter    3 1.00000000   0.669E-01       0.002       61.604
     NS sqrt iter    4 1.00000000   0.144E-02       0.002       62.267
     NS sqrt iter    5 1.00000000   0.290E-07       0.002       37.692
     Final NS sqrt iter    5 1.00000000   0.273E-08

     Est. extremal eigenvalues     -0.93446     1.69284  converged:  T
     TRS4 it   1 1.00000000   0.881E+00       0.001       16.128   0.100E-07
     TRS4 it   2 1.00000000   0.606E+00       0.001       32.147   0.100E-07
     TRS4 it   3 1.00000000   0.402E+00       0.001       32.090   0.100E-07
     TRS4 it   4 1.00000000   0.189E+00       0.001       32.256   0.100E-07
     TRS4 it   5 1.00000000   0.504E-01       0.001       32.256   0.100E-07
     TRS4 it   6 1.00000000   0.446E-02       0.001       32.256   0.100E-07
     TRS4 it   7 1.00000000   0.453E-04       0.001       31.866   0.100E-07
     TRS4 it   8 1.00000000   0.602E-08       0.001       32.256   0.100E-07
     Final TRS4 iteration    8 1.00000000   0.602E-08
     Chemical potential (mu):       0.03594
 
 PAO| energy:  -7.7263133755989486      penalty:   9.2056925520209043E-005
 PAO|LS| Need extra step
 PAO|LS| adapt:  T T T
 PAO|LS| adapt: scan_steps:    0.0000000000000000       0.40000000000000002       0.80000000000000004     
 PAO|LS| adapt: energies:   -7.6353576212336396       -7.7810907047580189       -7.7263133755989486     
 PAO|LS| adapt: suggested step_size:   0.49072422040136449     
 PAO|LS| adapt: predicted energy  -7.7862481359491502     
 PAO| ======================= Iteration:         6 =============================

     Lanczos converged:  T threshold:   0.100E-02
     Est. extremal eigenvalues:    0.290E+01   0.159E+00
     Est. condition number :    0.182E+02
     NS sqrt iter    1 1.00000000   0.733E+00       0.002       36.523
     NS sqrt iter    2 1.00000000   0.359E+00       0.002       59.755
     NS sqrt iter    3 1.00000000   0.961E-01       0.002       60.449
     NS sqrt iter    4 1.00000000   0.381E-02       0.002       62.479
     NS sqrt iter    5 1.00000000   0.483E-06       0.002       50.096
     Final NS sqrt iter    5 1.00000000   0.404E-12

     Est. extremal eigenvalues     -0.93470     1.75574  converged:  T
     TRS4 it   1 1.00000000   0.888E+00       0.001       16.128   0.100E-07
     TRS4 it   2 1.00000000   0.636E+00       0.001       23.972   0.100E-07
     TRS4 it   3 1.00000000   0.438E+00       0.001       27.626   0.100E-07
     TRS4 it   4 1.00000000   0.231E+00       0.001       30.226   0.100E-07
     TRS4 it   5 1.00000000   0.800E-01       0.001       30.088   0.100E-07
     TRS4 it   6 1.00000000   0.121E-01       0.001       30.356   0.100E-07
     TRS4 it   7 1.00000000   0.378E-03       0.001       31.476   0.100E-07
     TRS4 it   8 1.00000000   0.527E-06       0.001       31.757   0.100E-07
     TRS4 it   9 1.00000000   0.122E-11       0.001       27.592   0.100E-07
     Final TRS4 iteration    9 1.00000000   0.122E-11
     Chemical potential (mu):       0.00062
 
 PAO| energy:  -7.7855275264258674      penalty:   1.3033061637562098E-005
 PAO|CG| warming up with steepest descent
 PAO|CG| beta:    0.0000000000000000     
 PAO| norm of gradient:  0.41703536062879432     
 PAO| energy improvement: -0.15016990519222784     
 PAO| step      6                   -7.785527526  0.261E-01  0.491E+00     0.146
 PAO|LS| adapt:  T F F
 PAO|LS| adapt: scan_steps:    0.0000000000000000        0.0000000000000000        0.0000000000000000     
 PAO|LS| adapt: energies:   -7.7855275264258674        0.0000000000000000        0.0000000000000000     
 PAO| ======================= Iteration:         7 =============================

     Lanczos converged:  T threshold:   0.100E-02
     Est. extremal eigenvalues:    0.281E+01   0.173E+00
     Est. condition number :    0.163E+02
     NS sqrt iter    1 1.00000000   0.716E+00       0.002       39.824
     NS sqrt iter    2 1.00000000   0.339E+00       0.002       63.449
     NS sqrt iter    3 1.00000000   0.806E-01       0.002       63.167
     NS sqrt iter    4 1.00000000   0.235E-02       0.002       61.904
     NS sqrt iter    5 1.00000000   0.126E-06       0.002       48.301
     Final NS sqrt iter    5 1.00000000   0.128E-08

     Est. extremal eigenvalues     -0.93643     1.74065  converged:  T
     TRS4 it   1 1.00000000   0.886E+00       0.001       16.128   0.100E-07
     TRS4 it   2 1.00000000   0.633E+00       0.001       32.256   0.100E-07
     TRS4 it   3 1.00000000   0.438E+00       0.001       32.256   0.100E-07
     TRS4 it   4 1.00000000   0.232E+00       0.001       32.256   0.100E-07
     TRS4 it   5 1.00000000   0.806E-01       0.001       32.256   0.100E-07
     TRS4 it   6 1.00000000   0.120E-01       0.001       32.256   0.100E-07
     TRS4 it   7 1.00000000   0.354E-03       0.001       28.609   0.100E-07
     TRS4 it   8 1.00000000   0.439E-06       0.001       31.798   0.100E-07
     TRS4 it   9 1.00000000   0.827E-12       0.001       32.256   0.100E-07
     Final TRS4 iteration    9 1.00000000   0.827E-12
     Chemical potential (mu):       0.00257
 
 PAO| energy:  -7.7797114293260927      penalty:   1.9729604252259066E-005
 PAO|LS| adapt:  T F T
 PAO|LS| adapt: scan_steps:    0.0000000000000000        0.0000000000000000       0.49072422040136449     
 PAO|LS| adapt: energies:   -7.7855275264258674        0.0000000000000000       -7.7797114293260927     
 PAO| ======================= Iteration:         8 =============================

     Lanczos converged:  T threshold:   0.100E-02
     Est. extremal eigenvalues:    0.286E+01   0.166E+00
     Est. condition number :    0.172E+02
     NS sqrt iter    1 1.00000000   0.725E+00       0.002       37.567
     NS sqrt iter    2 1.00000000   0.349E+00       0.002       60.209
     NS sqrt iter    3 1.00000000   0.882E-01       0.002       61.786
     NS sqrt iter    4 1.00000000   0.301E-02       0.002       61.371
     NS sqrt iter    5 1.00000000   0.252E-06       0.002       48.229
     Final NS sqrt iter    5 1.00000000   0.589E-09

     Est. extremal eigenvalues     -0.93651     1.74758  converged:  T
     TRS4 it   1 1.00000000   0.886E+00       0.001       16.128   0.100E-07
     TRS4 it   2 1.00000000   0.634E+00       0.002       21.053   0.100E-07
     TRS4 it   3 1.00000000   0.437E+00       0.001       23.946   0.100E-07
     TRS4 it   4 1.00000000   0.231E+00       0.001       32.256   0.100E-07
     TRS4 it   5 1.00000000   0.801E-01       0.001       32.256   0.100E-07
     TRS4 it   6 1.00000000   0.121E-01       0.001       32.256   0.100E-07
     TRS4 it   7 1.00000000   0.375E-03       0.001       32.256   0.100E-07
     TRS4 it   8 1.00000000   0.510E-06       0.001       32.256   0.100E-07
     TRS4 it   9 1.00000000   0.114E-11       0.001       32.256   0.100E-07
     Final TRS4 iteration    9 1.00000000   0.114E-11
     Chemical potential (mu):       0.00110
 
 PAO| energy:  -7.8051721099856284      penalty:   1.4132563467648337E-005
 PAO|LS| adapt:  T T T
 PAO|LS| adapt: scan_steps:    0.0000000000000000       0.24536211020068224       0.49072422040136449     
 PAO|LS| adapt: energies:   -7.7855275264258674       -7.8051721099856284       -7.7797114293260927     
 PAO|LS| adapt: suggested step_size:   0.22954300480098164     
 PAO|LS| adapt: predicted energy  -7.8052658545464340     
 PAO| ======================= Iteration:         9 =============================

     Lanczos converged:  T threshold:   0.100E-02
     Est. extremal eigenvalues:    0.286E+01   0.165E+00
     Est. condition number :    0.173E+02
     NS sqrt iter    1 1.00000000   0.725E+00       0.002       42.810
     NS sqrt iter    2 1.00000000   0.350E+00       0.002       67.533
     NS sqrt iter    3 1.00000000   0.887E-01       0.002       69.037
     NS sqrt iter    4 1.00000000   0.306E-02       0.002       69.109
     NS sqrt iter    5 1.00000000   0.263E-06       0.001       54.975
     Final NS sqrt iter    5 1.00000000   0.616E-09

     Est. extremal eigenvalues     -0.93645     1.74807  converged:  T
     TRS4 it   1 1.00000000   0.886E+00       0.001       16.128   0.100E-07
     TRS4 it   2 1.00000000   0.634E+00       0.001       32.256   0.100E-07
     TRS4 it   3 1.00000000   0.437E+00       0.001       32.256   0.100E-07
     TRS4 it   4 1.00000000   0.231E+00       0.001       32.256   0.100E-07
     TRS4 it   5 1.00000000   0.800E-01       0.001       32.256   0.100E-07
     TRS4 it   6 1.00000000   0.121E-01       0.001       32.256   0.100E-07
     TRS4 it   7 1.00000000   0.376E-03       0.001       32.256   0.100E-07
     TRS4 it   8 1.00000000   0.513E-06       0.001       32.256   0.100E-07
     TRS4 it   9 1.00000000   0.115E-11       0.001       32.256   0.100E-07
     Final TRS4 iteration    9 1.00000000   0.115E-11
     Chemical potential (mu):       0.00103
 
 PAO| energy:  -7.8052893757478543      penalty:   1.3963688142763853E-005
 PAO|CG| trace_G_new    3.6884320503914193E-002
 PAO|CG| trace_G_prev   0.17391849201478851     
 PAO|CG| trace_G_mix   -1.4402806763380168E-003
 PAO|CG| trace_D   0.17391849201478851     
 PAO|CG| trace_D_Gnew   1.4402806763380168E-003
 PAO|CG| beta:   0.22035955312327235     
 PAO| norm of gradient:  0.19205291068847197     
 PAO| energy improvement:  -1.9761849321986880E-002
 PAO| step      9                   -7.805289376  0.120E-01  0.230E+00     0.087
 PAO|LS| adapt:  T F F
 PAO|LS| adapt: scan_steps:    0.0000000000000000        0.0000000000000000        0.0000000000000000     
 PAO|LS| adapt: energies:   -7.8052893757478543        0.0000000000000000        0.0000000000000000     
 PAO| ======================= Iteration:        10 =============================

     Lanczos converged:  T threshold:   0.100E-02
     Est. extremal eigenvalues:    0.282E+01   0.171E+00
     Est. condition number :    0.165E+02
     NS sqrt iter    1 1.00000000   0.718E+00       0.001       43.853
     NS sqrt iter    2 1.00000000   0.341E+00       0.002       69.161
     NS sqrt iter    3 1.00000000   0.831E-01       0.002       69.597
     NS sqrt iter    4 1.00000000   0.252E-02       0.002       69.530
     NS sqrt iter    5 1.00000000   0.146E-06       0.001       54.330
     Final NS sqrt iter    5 1.00000000   0.112E-08

     Est. extremal eigenvalues     -0.93734     1.73929  converged:  T
     TRS4 it   1 1.00000000   0.883E+00       0.001       16.128   0.100E-07
     TRS4 it   2 1.00000000   0.631E+00       0.001       32.256   0.100E-07
     TRS4 it   3 1.00000000   0.435E+00       0.001       32.256   0.100E-07
     TRS4 it   4 1.00000000   0.228E+00       0.001       32.256   0.100E-07
     TRS4 it   5 1.00000000   0.776E-01       0.001       32.256   0.100E-07
     TRS4 it   6 1.00000000   0.113E-01       0.001       32.256   0.100E-07
     TRS4 it   7 1.00000000   0.323E-03       0.001       32.256   0.100E-07
     TRS4 it   8 1.00000000   0.370E-06       0.001       32.256   0.100E-07
     TRS4 it   9 1.00000000   0.589E-12       0.001       32.256   0.100E-07
     Final TRS4 iteration    9 1.00000000   0.589E-12
     Chemical potential (mu):       0.00426
 
 PAO| energy:  -7.8103239299594573      penalty:   1.4504208748459455E-005
 PAO|LS| adapt:  T T F
 PAO|LS| adapt: scan_steps:    0.0000000000000000       0.22954300480098164        0.0000000000000000     
 PAO|LS| adapt: energies:   -7.8052893757478543       -7.8103239299594573        0.0000000000000000     
 PAO| ======================= Iteration:        11 =============================

     Lanczos converged:  T threshold:   0.100E-02
     Est. extremal eigenvalues:    0.279E+01   0.177E+00
     Est. condition number :    0.157E+02
     NS sqrt iter    1 1.00000000   0.710E+00       0.001       43.117
     NS sqrt iter    2 1.00000000   0.333E+00       0.002       67.479
     NS sqrt iter    3 1.00000000   0.777E-01       0.002       69.317
     NS sqrt iter    4 1.00000000   0.206E-02       0.002       68.765
     NS sqrt iter    5 1.00000000   0.794E-07       0.001       51.527
     Final NS sqrt iter    5 1.00000000   0.638E-09

     Est. extremal eigenvalues     -0.93725     1.73167  converged:  T
     TRS4 it   1 1.00000000   0.881E+00       0.001       16.128   0.100E-07
     TRS4 it   2 1.00000000   0.629E+00       0.001       32.256   0.100E-07
     TRS4 it   3 1.00000000   0.432E+00       0.001       32.256   0.100E-07
     TRS4 it   4 1.00000000   0.225E+00       0.001       32.256   0.100E-07
     TRS4 it   5 1.00000000   0.752E-01       0.001       32.256   0.100E-07
     TRS4 it   6 1.00000000   0.106E-01       0.001       32.256   0.100E-07
     TRS4 it   7 1.00000000   0.277E-03       0.001       32.256   0.100E-07
     TRS4 it   8 1.00000000   0.263E-06       0.001       32.256   0.100E-07
     TRS4 it   9 1.00000000   0.292E-12       0.001       32.256   0.100E-07
     Final TRS4 iteration    9 1.00000000   0.292E-12
     Chemical potential (mu):       0.00761
 
 PAO| energy:  -7.8088848020690769      penalty:   1.5715473944752291E-005
 PAO|LS| adapt:  T T T
 PAO|LS| adapt: scan_steps:    0.0000000000000000       0.22954300480098164       0.45908600960196327     
 PAO|LS| adapt: energies:   -7.8052893757478543       -7.8103239299594573       -7.8088848020690769     
 PAO|LS| adapt: suggested step_size:   0.29328609168047914     
 PAO|LS| adapt: predicted energy  -7.8105735384942081     
 PAO| ======================= Iteration:        12 =============================

     Lanczos converged:  T threshold:   0.100E-02
     Est. extremal eigenvalues:    0.281E+01   0.173E+00
     Est. condition number :    0.163E+02
     NS sqrt iter    1 1.00000000   0.716E+00       0.001       44.182
     NS sqrt iter    2 1.00000000   0.339E+00       0.002       68.155
     NS sqrt iter    3 1.00000000   0.815E-01       0.002       69.386
     NS sqrt iter    4 1.00000000   0.238E-02       0.002       68.702
     NS sqrt iter    5 1.00000000   0.123E-06       0.001       52.866
     Final NS sqrt iter    5 1.00000000   0.123E-08

     Est. extremal eigenvalues     -0.93741     1.73706  converged:  T
     TRS4 it   1 1.00000000   0.883E+00       0.001       16.128   0.100E-07
     TRS4 it   2 1.00000000   0.630E+00       0.001       32.256   0.100E-07
     TRS4 it   3 1.00000000   0.434E+00       0.001       32.256   0.100E-07
     TRS4 it   4 1.00000000   0.227E+00       0.001       32.256   0.100E-07
     TRS4 it   5 1.00000000   0.769E-01       0.001       32.256   0.100E-07
     TRS4 it   6 1.00000000   0.111E-01       0.001       32.256   0.100E-07
     TRS4 it   7 1.00000000   0.310E-03       0.001       32.256   0.100E-07
     TRS4 it   8 1.00000000   0.337E-06       0.001       32.256   0.100E-07
     TRS4 it   9 1.00000000   0.486E-12       0.001       32.256   0.100E-07
     Final TRS4 iteration    9 1.00000000   0.486E-12
     Chemical potential (mu):       0.00518
 
 PAO| energy:  -7.8105574474516395      penalty:   1.4765691614874214E-005
 PAO|CG| trace_G_new    1.1811127156194942E-002
 PAO|CG| trace_G_prev    3.6884320503914193E-002
 PAO|CG| trace_G_mix   -4.6062611599436082E-004
 PAO|CG| trace_D    4.4694753281202329E-002
 PAO|CG| trace_D_Gnew   2.1143909667054625E-004
 PAO|CG| beta:   0.33270921368571815     
 PAO| norm of gradient:  0.10867900973138714     
 PAO| energy improvement:  -5.2680717037851821E-003
 PAO| step     12                   -7.810557447  0.679E-02  0.293E+00     0.076
 PAO|LS| adapt:  T F F
 PAO|LS| adapt: scan_steps:    0.0000000000000000        0.0000000000000000        0.0000000000000000     
 PAO|LS| adapt: energies:   -7.8105574474516395        0.0000000000000000        0.0000000000000000     
 PAO| ======================= Iteration:        13 =============================

     Lanczos converged:  T threshold:   0.100E-02
     Est. extremal eigenvalues:    0.278E+01   0.177E+00
     Est. condition number :    0.157E+02
     NS sqrt iter    1 1.00000000   0.708E+00       0.001       43.971
     NS sqrt iter    2 1.00000000   0.332E+00       0.002       68.656
     NS sqrt iter    3 1.00000000   0.772E-01       0.002       68.360
     NS sqrt iter    4 1.00000000   0.204E-02       0.002       67.547
     NS sqrt iter    5 1.00000000   0.776E-07       0.002       49.202
     Final NS sqrt iter    5 1.00000000   0.633E-09

     Est. extremal eigenvalues     -0.93790     1.72889  converged:  T
     TRS4 it   1 1.00000000   0.881E+00       0.001       16.128   0.100E-07
     TRS4 it   2 1.00000000   0.627E+00       0.001       32.256   0.100E-07
     TRS4 it   3 1.00000000   0.430E+00       0.001       32.256   0.100E-07
     TRS4 it   4 1.00000000   0.222E+00       0.001       32.256   0.100E-07
     TRS4 it   5 1.00000000   0.732E-01       0.001       32.256   0.100E-07
     TRS4 it   6 1.00000000   0.100E-01       0.001       32.256   0.100E-07
     TRS4 it   7 1.00000000   0.248E-03       0.001       32.256   0.100E-07
     TRS4 it   8 1.00000000   0.209E-06       0.001       32.256   0.100E-07
     TRS4 it   9 1.00000000   0.185E-12       0.001       32.256   0.100E-07
     Final TRS4 iteration    9 1.00000000   0.185E-12
     Chemical potential (mu):       0.00979
 
 PAO| energy:  -7.8126215258153850      penalty:   1.5071593138911796E-005
 PAO|LS| adapt:  T T F
 PAO|LS| adapt: scan_steps:    0.0000000000000000       0.29328609168047914        0.0000000000000000     
 PAO|LS| adapt: energies:   -7.8105574474516395       -7.8126215258153850        0.0000000000000000     
 PAO| ======================= Iteration:        14 =============================

     Lanczos converged:  T threshold:   0.100E-02
     Est. extremal eigenvalues:    0.275E+01   0.181E+00
     Est. condition number :    0.151E+02
     NS sqrt iter    1 1.00000000   0.702E+00       0.002       42.353
     NS sqrt iter    2 1.00000000   0.325E+00       0.002       68.011
     NS sqrt iter    3 1.00000000   0.731E-01       0.002       67.560
     NS sqrt iter    4 1.00000000   0.174E-02       0.002       69.683
     NS sqrt iter    5 1.00000000   0.487E-07       0.001       49.176
     Final NS sqrt iter    5 1.00000000   0.419E-09

     Est. extremal eigenvalues     -0.93788     1.72109  converged:  T
     TRS4 it   1 1.00000000   0.880E+00       0.001       16.128   0.100E-07
     TRS4 it   2 1.00000000   0.624E+00       0.001       32.256   0.100E-07
     TRS4 it   3 1.00000000   0.426E+00       0.001       32.256   0.100E-07
     TRS4 it   4 1.00000000   0.217E+00       0.001       32.256   0.100E-07
     TRS4 it   5 1.00000000   0.696E-01       0.001       32.256   0.100E-07
     TRS4 it   6 1.00000000   0.901E-02       0.001       32.256   0.100E-07
     TRS4 it   7 1.00000000   0.198E-03       0.001       32.256   0.100E-07
     TRS4 it   8 1.00000000   0.130E-06       0.001       32.256   0.100E-07
     TRS4 it   9 1.00000000   0.693E-13       0.001       32.256   0.100E-07
     Final TRS4 iteration    9 1.00000000   0.693E-13
     Chemical potential (mu):       0.01430
 
 PAO| energy:  -7.8119764613225247      penalty:   1.5855282045234495E-005
 PAO|LS| adapt:  T T T
 PAO|LS| adapt: scan_steps:    0.0000000000000000       0.29328609168047914       0.58657218336095829     
 PAO|LS| adapt: energies:   -7.8105574474516395       -7.8126215258153850       -7.8119764613225247     
 PAO|LS| adapt: suggested step_size:   0.37009581605833841     
 PAO|LS| adapt: predicted energy  -7.8127144334467076     
 PAO| ======================= Iteration:        15 =============================

     Lanczos converged:  T threshold:   0.100E-02
     Est. extremal eigenvalues:    0.277E+01   0.178E+00
     Est. condition number :    0.155E+02
     NS sqrt iter    1 1.00000000   0.707E+00       0.002       40.034
     NS sqrt iter    2 1.00000000   0.330E+00       0.002       69.418
     NS sqrt iter    3 1.00000000   0.761E-01       0.002       68.934
     NS sqrt iter    4 1.00000000   0.195E-02       0.002       68.636
     NS sqrt iter    5 1.00000000   0.687E-07       0.001       50.798
     Final NS sqrt iter    5 1.00000000   0.557E-09

     Est. extremal eigenvalues     -0.93794     1.72681  converged:  T
     TRS4 it   1 1.00000000   0.881E+00       0.001       16.128   0.100E-07
     TRS4 it   2 1.00000000   0.626E+00       0.001       32.256   0.100E-07
     TRS4 it   3 1.00000000   0.429E+00       0.001       32.256   0.100E-07
     TRS4 it   4 1.00000000   0.221E+00       0.001       32.256   0.100E-07
     TRS4 it   5 1.00000000   0.722E-01       0.001       32.256   0.100E-07
     TRS4 it   6 1.00000000   0.974E-02       0.001       32.256   0.100E-07
     TRS4 it   7 1.00000000   0.233E-03       0.001       32.256   0.100E-07
     TRS4 it   8 1.00000000   0.185E-06       0.001       32.256   0.100E-07
     TRS4 it   9 1.00000000   0.142E-12       0.001       32.256   0.100E-07
     Final TRS4 iteration    9 1.00000000   0.142E-12
     Chemical potential (mu):       0.01098
 
 PAO| energy:  -7.8127113871610616      penalty:   1.5227621099789913E-005
 PAO|CG| trace_G_new    2.6169289753980546E-003
 PAO|CG| trace_G_prev    1.1811127156194942E-002
 PAO|CG| trace_G_mix    6.5376088720207388E-005
 PAO|CG| trace_D    1.6617936210208278E-002
 PAO|CG| trace_D_Gnew   3.3901303471473997E-005
 PAO|CG| beta:   0.21602958404690079     
 PAO| norm of gradient:   5.1155928057245274E-002
 PAO| energy improvement:  -2.1539397094221258E-003
 PAO| step     15                   -7.812711387  0.320E-02  0.370E+00     0.079
 PAO|LS| adapt:  T F F
 PAO|LS| adapt: scan_steps:    0.0000000000000000        0.0000000000000000        0.0000000000000000     
 PAO|LS| adapt: energies:   -7.8127113871610616        0.0000000000000000        0.0000000000000000     
 PAO| ======================= Iteration:        16 =============================

     Lanczos converged:  T threshold:   0.100E-02
     Est. extremal eigenvalues:    0.276E+01   0.179E+00
     Est. condition number :    0.154E+02
     NS sqrt iter    1 1.00000000   0.705E+00       0.002       38.798
     NS sqrt iter    2 1.00000000   0.329E+00       0.002       66.463
     NS sqrt iter    3 1.00000000   0.755E-01       0.002       68.288
     NS sqrt iter    4 1.00000000   0.190E-02       0.002       69.457
     NS sqrt iter    5 1.00000000   0.629E-07       0.001       51.061
     Final NS sqrt iter    5 1.00000000   0.570E-09

     Est. extremal eigenvalues     -0.93797     1.72566  converged:  T
     TRS4 it   1 1.00000000   0.881E+00       0.001       16.128   0.100E-07
     TRS4 it   2 1.00000000   0.625E+00       0.001       32.256   0.100E-07
     TRS4 it   3 1.00000000   0.427E+00       0.001       32.256   0.100E-07
     TRS4 it   4 1.00000000   0.219E+00       0.001       32.256   0.100E-07
     TRS4 it   5 1.00000000   0.710E-01       0.001       32.256   0.100E-07
     TRS4 it   6 1.00000000   0.942E-02       0.001       32.256   0.100E-07
     TRS4 it   7 1.00000000   0.220E-03       0.001       32.256   0.100E-07
     TRS4 it   8 1.00000000   0.165E-06       0.001       32.256   0.100E-07
     TRS4 it   9 1.00000000   0.115E-12       0.001       32.256   0.100E-07
     Final TRS4 iteration    9 1.00000000   0.115E-12
     Chemical potential (mu):       0.01183
 
 PAO| energy:  -7.8128382817699915      penalty:   1.5008668376074187E-005
 PAO|LS| adapt:  T T F
 PAO|LS| adapt: scan_steps:    0.0000000000000000       0.37009581605833841        0.0000000000000000     
 PAO|LS| adapt: energies:   -7.8127113871610616       -7.8128382817699915        0.0000000000000000     
 PAO| ======================= Iteration:        17 =============================

     Lanczos converged:  T threshold:   0.100E-02
     Est. extremal eigenvalues:    0.275E+01   0.180E+00
     Est. condition number :    0.153E+02
     NS sqrt iter    1 1.00000000   0.703E+00       0.002       39.470
     NS sqrt iter    2 1.00000000   0.328E+00       0.002       68.685
     NS sqrt iter    3 1.00000000   0.748E-01       0.002       68.904
     NS sqrt iter    4 1.00000000   0.184E-02       0.002       67.173
     NS sqrt iter    5 1.00000000   0.578E-07       0.001       50.103
     Final NS sqrt iter    5 1.00000000   0.534E-09

     Est. extremal eigenvalues     -0.93787     1.72458  converged:  T
     TRS4 it   1 1.00000000   0.881E+00       0.001       16.128   0.100E-07
     TRS4 it   2 1.00000000   0.624E+00       0.001       32.256   0.100E-07
     TRS4 it   3 1.00000000   0.426E+00       0.001       32.256   0.100E-07
     TRS4 it   4 1.00000000   0.217E+00       0.001       32.256   0.100E-07
     TRS4 it   5 1.00000000   0.699E-01       0.001       32.256   0.100E-07
     TRS4 it   6 1.00000000   0.912E-02       0.001       32.256   0.100E-07
     TRS4 it   7 1.00000000   0.207E-03       0.001       32.256   0.100E-07
     TRS4 it   8 1.00000000   0.148E-06       0.001       32.256   0.100E-07
     TRS4 it   9 1.00000000   0.924E-13       0.001       32.256   0.100E-07
     Final TRS4 iteration    9 1.00000000   0.924E-13
     Chemical potential (mu):       0.01265
 
 PAO| energy:  -7.8112817922554312      penalty:   1.4915038964907535E-005
 PAO|LS| adapt:  T T T
 PAO|LS| adapt: scan_steps:    0.0000000000000000       0.37009581605833841       0.74019163211667682     
 PAO|LS| adapt: energies:   -7.8127113871610616       -7.8128382817699915       -7.8112817922554312     
 PAO|LS| adapt: suggested step_size:   0.21294597549338087     
 PAO|LS| adapt: predicted energy  -7.8129900401807495     
 PAO| ======================= Iteration:        18 =============================

     Lanczos converged:  T threshold:   0.100E-02
     Est. extremal eigenvalues:    0.277E+01   0.179E+00
     Est. condition number :    0.155E+02
     NS sqrt iter    1 1.00000000   0.706E+00       0.002       40.963
     NS sqrt iter    2 1.00000000   0.330E+00       0.002       67.447
     NS sqrt iter    3 1.00000000   0.757E-01       0.002       68.721
     NS sqrt iter    4 1.00000000   0.192E-02       0.002       67.470
     NS sqrt iter    5 1.00000000   0.653E-07       0.001       50.066
     Final NS sqrt iter    5 1.00000000   0.571E-09

     Est. extremal eigenvalues     -0.93797     1.72614  converged:  T
     TRS4 it   1 1.00000000   0.881E+00       0.001       16.128   0.100E-07
     TRS4 it   2 1.00000000   0.626E+00       0.001       32.256   0.100E-07
     TRS4 it   3 1.00000000   0.428E+00       0.001       32.256   0.100E-07
     TRS4 it   4 1.00000000   0.220E+00       0.001       32.256   0.100E-07
     TRS4 it   5 1.00000000   0.715E-01       0.001       32.256   0.100E-07
     TRS4 it   6 1.00000000   0.955E-02       0.001       32.256   0.100E-07
     TRS4 it   7 1.00000000   0.225E-03       0.001       32.256   0.100E-07
     TRS4 it   8 1.00000000   0.173E-06       0.001       32.256   0.100E-07
     TRS4 it   9 1.00000000   0.126E-12       0.001       32.256   0.100E-07
     Final TRS4 iteration    9 1.00000000   0.126E-12
     Chemical potential (mu):       0.01147
 
 PAO| energy:  -7.8129895835011478      penalty:   1.5086603819640421E-005
 PAO|CG| trace_G_new    7.2644854475012758E-004
 PAO|CG| trace_G_prev    2.6169289753980546E-003
 PAO|CG| trace_G_mix    1.4785053942399900E-006
 PAO|CG| trace_D    3.3778204351380629E-003
 PAO|CG| trace_D_Gnew  -1.7486169706551487E-006
 PAO|CG| beta:   0.27703084270585304     
 PAO| norm of gradient:   2.6952709413899888E-002
 PAO| energy improvement:  -2.7819634008618976E-004
 PAO| step     18                   -7.812989584  0.168E-02  0.213E+00     0.079
 PAO|LS| adapt:  T F F
 PAO|LS| adapt: scan_steps:    0.0000000000000000        0.0000000000000000        0.0000000000000000     
 PAO|LS| adapt: energies:   -7.8129895835011478        0.0000000000000000        0.0000000000000000     
 PAO| ======================= Iteration:        19 =============================

     Lanczos converged:  T threshold:   0.100E-02
     Est. extremal eigenvalues:    0.277E+01   0.179E+00
     Est. condition number :    0.155E+02
     NS sqrt iter    1 1.00000000   0.706E+00       0.002       41.481
     NS sqrt iter    2 1.00000000   0.330E+00       0.002       68.333
     NS sqrt iter    3 1.00000000   0.760E-01       0.002       69.761
     NS sqrt iter    4 1.00000000   0.193E-02       0.002       68.303
     NS sqrt iter    5 1.00000000   0.661E-07       0.001       50.564
     Final NS sqrt iter    5 1.00000000   0.584E-09

     Est. extremal eigenvalues     -0.93797     1.72621  converged:  T
     TRS4 it   1 1.00000000   0.881E+00       0.001       16.128   0.100E-07
     TRS4 it   2 1.00000000   0.625E+00       0.001       32.256   0.100E-07
     TRS4 it   3 1.00000000   0.428E+00       0.001       32.256   0.100E-07
     TRS4 it   4 1.00000000   0.219E+00       0.001       32.256   0.100E-07
     TRS4 it   5 1.00000000   0.714E-01       0.001       32.256   0.100E-07
     TRS4 it   6 1.00000000   0.954E-02       0.001       32.256   0.100E-07
     TRS4 it   7 1.00000000   0.226E-03       0.001       32.256   0.100E-07
     TRS4 it   8 1.00000000   0.175E-06       0.001       32.256   0.100E-07
     TRS4 it   9 1.00000000   0.130E-12       0.001       32.256   0.100E-07
     Final TRS4 iteration    9 1.00000000   0.130E-12
     Chemical potential (mu):       0.01118
 
 PAO| energy:  -7.8131076342118861      penalty:   1.4797259585325038E-005
 PAO|LS| adapt:  T T F
 PAO|LS| adapt: scan_steps:    0.0000000000000000       0.21294597549338087        0.0000000000000000     
 PAO|LS| adapt: energies:   -7.8129895835011478       -7.8131076342118861        0.0000000000000000     
 PAO| ======================= Iteration:        20 =============================

     Lanczos converged:  T threshold:   0.100E-02
     Est. extremal eigenvalues:    0.277E+01   0.178E+00
     Est. condition number :    0.155E+02
     NS sqrt iter    1 1.00000000   0.706E+00       0.001       43.737
     NS sqrt iter    2 1.00000000   0.330E+00       0.002       68.762
     NS sqrt iter    3 1.00000000   0.762E-01       0.002       70.490
     NS sqrt iter    4 1.00000000   0.194E-02       0.002       69.546
     NS sqrt iter    5 1.00000000   0.669E-07       0.001       51.266
     Final NS sqrt iter    5 1.00000000   0.597E-09

     Est. extremal eigenvalues     -0.93797     1.72628  converged:  T
     TRS4 it   1 1.00000000   0.881E+00       0.001       16.128   0.100E-07
     TRS4 it   2 1.00000000   0.625E+00       0.001       32.256   0.100E-07
     TRS4 it   3 1.00000000   0.427E+00       0.001       32.256   0.100E-07
     TRS4 it   4 1.00000000   0.219E+00       0.001       32.256   0.100E-07
     TRS4 it   5 1.00000000   0.713E-01       0.001       32.256   0.100E-07
     TRS4 it   6 1.00000000   0.953E-02       0.001       32.256   0.100E-07
     TRS4 it   7 1.00000000   0.226E-03       0.001       32.256   0.100E-07
     TRS4 it   8 1.00000000   0.178E-06       0.001       32.256   0.100E-07
     TRS4 it   9 1.00000000   0.134E-12       0.001       32.256   0.100E-07
     Final TRS4 iteration    9 1.00000000   0.134E-12
     Chemical potential (mu):       0.01090
 
 PAO| energy:  -7.8131517961917645      penalty:   1.4520387513029188E-005
 PAO|LS| adapt:  T T F
 PAO|LS| adapt: scan_steps:    0.0000000000000000       0.42589195098676175        0.0000000000000000     
 PAO|LS| adapt: energies:   -7.8129895835011478       -7.8131517961917645        0.0000000000000000     
 PAO| ======================= Iteration:        21 =============================

     Lanczos converged:  T threshold:   0.100E-02
     Est. extremal eigenvalues:    0.277E+01   0.178E+00
     Est. condition number :    0.155E+02
     NS sqrt iter    1 1.00000000   0.705E+00       0.002       41.281
     NS sqrt iter    2 1.00000000   0.331E+00       0.002       68.826
     NS sqrt iter    3 1.00000000   0.766E-01       0.002       68.510
     NS sqrt iter    4 1.00000000   0.196E-02       0.002       69.757
     NS sqrt iter    5 1.00000000   0.686E-07       0.001       51.325
     Final NS sqrt iter    5 1.00000000   0.583E-09

     Est. extremal eigenvalues     -0.93796     1.72644  converged:  T
     TRS4 it   1 1.00000000   0.881E+00       0.001       16.128   0.100E-07
     TRS4 it   2 1.00000000   0.625E+00       0.001       32.256   0.100E-07
     TRS4 it   3 1.00000000   0.427E+00       0.001       32.256   0.100E-07
     TRS4 it   4 1.00000000   0.219E+00       0.001       32.256   0.100E-07
     TRS4 it   5 1.00000000   0.711E-01       0.001       32.256   0.100E-07
     TRS4 it   6 1.00000000   0.950E-02       0.001       32.256   0.100E-07
     TRS4 it   7 1.00000000   0.228E-03       0.001       32.256   0.100E-07
     TRS4 it   8 1.00000000   0.183E-06       0.001       32.256   0.100E-07
     TRS4 it   9 1.00000000   0.143E-12       0.001       32.256   0.100E-07
     Final TRS4 iteration    9 1.00000000   0.143E-12
     Chemical potential (mu):       0.01032
 
 PAO| energy:  -7.8130160750489646      penalty:   1.4003477646820484E-005
 PAO|LS| Need extra step
 PAO|LS| adapt:  T T T
 PAO|LS| adapt: scan_steps:    0.0000000000000000       0.42589195098676175       0.85178390197352349     
 PAO|LS| adapt: energies:   -7.8129895835011478       -7.8131517961917645       -7.8130160750489646     
 PAO|LS| adapt: suggested step_size:   0.44482658633004035     
 PAO|LS| adapt: predicted energy  -7.8131520906372200     
 PAO| ======================= Iteration:        22 =============================

     Lanczos converged:  T threshold:   0.100E-02
     Est. extremal eigenvalues:    0.277E+01   0.178E+00
     Est. condition number :    0.155E+02
     NS sqrt iter    1 1.00000000   0.706E+00       0.002       42.624
     NS sqrt iter    2 1.00000000   0.330E+00       0.002       69.523
     NS sqrt iter    3 1.00000000   0.762E-01       0.002       68.990
     NS sqrt iter    4 1.00000000   0.194E-02       0.002       70.379
     NS sqrt iter    5 1.00000000   0.669E-07       0.001       51.795
     Final NS sqrt iter    5 1.00000000   0.598E-09

     Est. extremal eigenvalues     -0.93797     1.72629  converged:  T
     TRS4 it   1 1.00000000   0.881E+00       0.001       16.128   0.100E-07
     TRS4 it   2 1.00000000   0.625E+00       0.001       32.256   0.100E-07
     TRS4 it   3 1.00000000   0.427E+00       0.001       32.256   0.100E-07
     TRS4 it   4 1.00000000   0.219E+00       0.001       32.256   0.100E-07
     TRS4 it   5 1.00000000   0.713E-01       0.001       32.256   0.100E-07
     TRS4 it   6 1.00000000   0.953E-02       0.001       32.256   0.100E-07
     TRS4 it   7 1.00000000   0.226E-03       0.001       32.256   0.100E-07
     TRS4 it   8 1.00000000   0.178E-06       0.001       32.256   0.100E-07
     TRS4 it   9 1.00000000   0.135E-12       0.001       32.256   0.100E-07
     Final TRS4 iteration    9 1.00000000   0.135E-12
     Chemical potential (mu):       0.01087
 
 PAO| energy:  -7.8131521258565888      penalty:   1.4496366528618710E-005
 PAO|CG| trace_G_new    2.2329452314474082E-004
 PAO|CG| trace_G_prev    7.2644854475012758E-004
 PAO|CG| trace_G_mix    2.9806312365319190E-006
 PAO|CG| trace_D    9.8665189013861067E-004
 PAO|CG| trace_D_Gnew  -1.8530176275865368E-006
 PAO|CG| beta:   0.30327528838809775     
 PAO| norm of gradient:   1.4943042633437837E-002
 PAO| energy improvement:  -1.6254235544099771E-004
 PAO| step     22                   -7.813152126  0.934E-03  0.445E+00     0.101
 PAO|LS| adapt:  T F F
 PAO|LS| adapt: scan_steps:    0.0000000000000000        0.0000000000000000        0.0000000000000000     
 PAO|LS| adapt: energies:   -7.8131521258565888        0.0000000000000000        0.0000000000000000     
 PAO| ======================= Iteration:        23 =============================

     Lanczos converged:  T threshold:   0.100E-02
     Est. extremal eigenvalues:    0.277E+01   0.178E+00
     Est. condition number :    0.155E+02
     NS sqrt iter    1 1.00000000   0.705E+00       0.002       41.526
     NS sqrt iter    2 1.00000000   0.330E+00       0.002       68.795
     NS sqrt iter    3 1.00000000   0.762E-01       0.002       68.620
     NS sqrt iter    4 1.00000000   0.194E-02       0.002       69.568
     NS sqrt iter    5 1.00000000   0.668E-07       0.001       49.990
     Final NS sqrt iter    5 1.00000000   0.603E-09

     Est. extremal eigenvalues     -0.93797     1.72569  converged:  T
     TRS4 it   1 1.00000000   0.881E+00       0.001       16.128   0.100E-07
     TRS4 it   2 1.00000000   0.625E+00       0.001       32.256   0.100E-07
     TRS4 it   3 1.00000000   0.427E+00       0.001       32.256   0.100E-07
     TRS4 it   4 1.00000000   0.219E+00       0.001       32.256   0.100E-07
     TRS4 it   5 1.00000000   0.714E-01       0.001       32.256   0.100E-07
     TRS4 it   6 1.00000000   0.956E-02       0.001       32.256   0.100E-07
     TRS4 it   7 1.00000000   0.229E-03       0.001       32.256   0.100E-07
     TRS4 it   8 1.00000000   0.182E-06       0.001       32.256   0.100E-07
     TRS4 it   9 1.00000000   0.141E-12       0.001       32.256   0.100E-07
     Final TRS4 iteration    9 1.00000000   0.141E-12
     Chemical potential (mu):       0.01055
 
 PAO| energy:  -7.8132019426016566      penalty:   1.3813980065432774E-005
 PAO|LS| adapt:  T T F
 PAO|LS| adapt: scan_steps:    0.0000000000000000       0.44482658633004035        0.0000000000000000     
 PAO|LS| adapt: energies:   -7.8131521258565888       -7.8132019426016566        0.0000000000000000     
 PAO| ======================= Iteration:        24 =============================

     Lanczos converged:  T threshold:   0.100E-02
     Est. extremal eigenvalues:    0.277E+01   0.178E+00
     Est. condition number :    0.155E+02
     NS sqrt iter    1 1.00000000   0.705E+00       0.002       38.678
     NS sqrt iter    2 1.00000000   0.330E+00       0.002       66.863
     NS sqrt iter    3 1.00000000   0.763E-01       0.002       67.825
     NS sqrt iter    4 1.00000000   0.194E-02       0.002       69.660
     NS sqrt iter    5 1.00000000   0.667E-07       0.001       51.401
     Final NS sqrt iter    5 1.00000000   0.604E-09

     Est. extremal eigenvalues     -0.93797     1.72509  converged:  T
     TRS4 it   1 1.00000000   0.881E+00       0.001       16.128   0.100E-07
     TRS4 it   2 1.00000000   0.625E+00       0.001       32.256   0.100E-07
     TRS4 it   3 1.00000000   0.427E+00       0.001       32.256   0.100E-07
     TRS4 it   4 1.00000000   0.219E+00       0.001       32.256   0.100E-07
     TRS4 it   5 1.00000000   0.714E-01       0.001       32.256   0.100E-07
     TRS4 it   6 1.00000000   0.959E-02       0.001       32.256   0.100E-07
     TRS4 it   7 1.00000000   0.231E-03       0.001       32.256   0.100E-07
     TRS4 it   8 1.00000000   0.186E-06       0.001       32.256   0.100E-07
     TRS4 it   9 1.00000000   0.147E-12       0.001       32.256   0.100E-07
     Final TRS4 iteration    9 1.00000000   0.147E-12
     Chemical potential (mu):       0.01022
 
 PAO| energy:  -7.8131516044572482      penalty:   1.3160109024094930E-005
 PAO|LS| adapt:  T T T
 PAO|LS| adapt: scan_steps:    0.0000000000000000       0.44482658633004035       0.88965317266008070     
 PAO|LS| adapt: energies:   -7.8131521258565888       -7.8132019426016566       -7.8131516044572482     
 PAO|LS| adapt: suggested step_size:   0.44366871830181281     
 PAO|LS| adapt: predicted energy  -7.8132019429409532     
 PAO| ======================= Iteration:        25 =============================

     Lanczos converged:  T threshold:   0.100E-02
     Est. extremal eigenvalues:    0.277E+01   0.178E+00
     Est. condition number :    0.155E+02
     NS sqrt iter    1 1.00000000   0.705E+00       0.002       39.046
     NS sqrt iter    2 1.00000000   0.330E+00       0.002       68.927
     NS sqrt iter    3 1.00000000   0.762E-01       0.002       70.087
     NS sqrt iter    4 1.00000000   0.194E-02       0.002       69.482
     NS sqrt iter    5 1.00000000   0.668E-07       0.001       51.710
     Final NS sqrt iter    5 1.00000000   0.603E-09

     Est. extremal eigenvalues     -0.93797     1.72570  converged:  T
     TRS4 it   1 1.00000000   0.881E+00       0.001       16.128   0.100E-07
     TRS4 it   2 1.00000000   0.625E+00       0.001       32.256   0.100E-07
     TRS4 it   3 1.00000000   0.427E+00       0.001       32.256   0.100E-07
     TRS4 it   4 1.00000000   0.219E+00       0.001       32.256   0.100E-07
     TRS4 it   5 1.00000000   0.714E-01       0.001       32.256   0.100E-07
     TRS4 it   6 1.00000000   0.956E-02       0.001       32.256   0.100E-07
     TRS4 it   7 1.00000000   0.229E-03       0.001       32.256   0.100E-07
     TRS4 it   8 1.00000000   0.182E-06       0.001       32.256   0.100E-07
     TRS4 it   9 1.00000000   0.141E-12       0.001       32.256   0.100E-07
     Final TRS4 iteration    9 1.00000000   0.141E-12
     Chemical potential (mu):       0.01055
 
 PAO| energy:  -7.8132019425284760      penalty:   1.3815719008624228E-005
 PAO|CG| trace_G_new    8.0593780131175133E-005
 PAO|CG| trace_G_prev    2.2329452314474082E-004
 PAO|CG| trace_G_mix    7.0632852545603782E-007
 PAO|CG| trace_D    3.1516666817731374E-004
 PAO|CG| trace_D_Gnew  -3.5627615712808080E-007
 PAO|CG| beta:   0.35776717888389753     
 PAO| norm of gradient:   8.9774038636554129E-003
 PAO| energy improvement:  -4.9816671887192854E-005
 PAO| step     25                   -7.813201943  0.561E-03  0.444E+00     0.079
 PAO|LS| adapt:  T F F
 PAO|LS| adapt: scan_steps:    0.0000000000000000        0.0000000000000000        0.0000000000000000     
 PAO|LS| adapt: energies:   -7.8132019425284760        0.0000000000000000        0.0000000000000000     
 PAO| ======================= Iteration:        26 =============================

     Lanczos converged:  T threshold:   0.100E-02
     Est. extremal eigenvalues:    0.277E+01   0.179E+00
     Est. condition number :    0.155E+02
     NS sqrt iter    1 1.00000000   0.705E+00       0.002       41.404
     NS sqrt iter    2 1.00000000   0.330E+00       0.002       68.148
     NS sqrt iter    3 1.00000000   0.761E-01       0.002       68.881
     NS sqrt iter    4 1.00000000   0.193E-02       0.002       69.255
     NS sqrt iter    5 1.00000000   0.659E-07       0.001       51.300
     Final NS sqrt iter    5 1.00000000   0.597E-09

     Est. extremal eigenvalues     -0.93797     1.72488  converged:  T
     TRS4 it   1 1.00000000   0.881E+00       0.001       16.128   0.100E-07
     TRS4 it   2 1.00000000   0.625E+00       0.001       32.256   0.100E-07
     TRS4 it   3 1.00000000   0.427E+00       0.001       32.256   0.100E-07
     TRS4 it   4 1.00000000   0.219E+00       0.001       32.256   0.100E-07
     TRS4 it   5 1.00000000   0.712E-01       0.001       32.256   0.100E-07
     TRS4 it   6 1.00000000   0.953E-02       0.001       32.256   0.100E-07
     TRS4 it   7 1.00000000   0.227E-03       0.001       32.256   0.100E-07
     TRS4 it   8 1.00000000   0.179E-06       0.001       32.256   0.100E-07
     TRS4 it   9 1.00000000   0.136E-12       0.001       32.256   0.100E-07
     Final TRS4 iteration    9 1.00000000   0.136E-12
     Chemical potential (mu):       0.01066
 
 PAO| energy:  -7.8132060182406748      penalty:   1.3089620885515320E-005
 PAO|LS| adapt:  T T F
 PAO|LS| adapt: scan_steps:    0.0000000000000000       0.44366871830181281        0.0000000000000000     
 PAO|LS| adapt: energies:   -7.8132019425284760       -7.8132060182406748        0.0000000000000000     
 PAO| ======================= Iteration:        27 =============================

     Lanczos converged:  T threshold:   0.100E-02
     Est. extremal eigenvalues:    0.276E+01   0.179E+00
     Est. condition number :    0.155E+02
     NS sqrt iter    1 1.00000000   0.705E+00       0.002       39.943
     NS sqrt iter    2 1.00000000   0.330E+00       0.002       67.082
     NS sqrt iter    3 1.00000000   0.760E-01       0.002       69.865
     NS sqrt iter    4 1.00000000   0.193E-02       0.002       68.637
     NS sqrt iter    5 1.00000000   0.650E-07       0.001       51.016
     Final NS sqrt iter    5 1.00000000   0.594E-09

     Est. extremal eigenvalues     -0.93797     1.72406  converged:  T
     TRS4 it   1 1.00000000   0.881E+00       0.001       16.128   0.100E-07
     TRS4 it   2 1.00000000   0.625E+00       0.001       32.256   0.100E-07
     TRS4 it   3 1.00000000   0.427E+00       0.001       32.256   0.100E-07
     TRS4 it   4 1.00000000   0.219E+00       0.001       32.256   0.100E-07
     TRS4 it   5 1.00000000   0.711E-01       0.001       32.256   0.100E-07
     TRS4 it   6 1.00000000   0.950E-02       0.001       32.256   0.100E-07
     TRS4 it   7 1.00000000   0.225E-03       0.001       31.678   0.100E-07
     TRS4 it   8 1.00000000   0.176E-06       0.001       28.476   0.100E-07
     TRS4 it   9 1.00000000   0.132E-12       0.001       28.122   0.100E-07
     Final TRS4 iteration    9 1.00000000   0.132E-12
     Chemical potential (mu):       0.01078
 
 PAO| energy:  -7.8131465118229659      penalty:   1.2387537122846151E-005
 PAO|LS| adapt:  T T T
 PAO|LS| adapt: scan_steps:    0.0000000000000000       0.44366871830181281       0.88733743660362563     
 PAO|LS| adapt: energies:   -7.8132019425284760       -7.8132060182406748       -7.8131465118229659     
 PAO|LS| adapt: suggested step_size:   0.25027420553625385     
 PAO|LS| adapt: predicted energy  -7.8132120587805192     
 PAO| ======================= Iteration:        28 =============================

     Lanczos converged:  T threshold:   0.100E-02
     Est. extremal eigenvalues:    0.277E+01   0.179E+00
     Est. condition number :    0.155E+02
     NS sqrt iter    1 1.00000000   0.705E+00       0.002       30.946
     NS sqrt iter    2 1.00000000   0.330E+00       0.002       65.926
     NS sqrt iter    3 1.00000000   0.762E-01       0.002       65.910
     NS sqrt iter    4 1.00000000   0.194E-02       0.002       66.267
     NS sqrt iter    5 1.00000000   0.663E-07       0.002       48.269
     Final NS sqrt iter    5 1.00000000   0.600E-09

     Est. extremal eigenvalues     -0.93797     1.72523  converged:  T
     TRS4 it   1 1.00000000   0.881E+00       0.001       16.128   0.100E-07
     TRS4 it   2 1.00000000   0.625E+00       0.001       30.921   0.100E-07
     TRS4 it   3 1.00000000   0.427E+00       0.001       32.256   0.100E-07
     TRS4 it   4 1.00000000   0.219E+00       0.001       32.256   0.100E-07
     TRS4 it   5 1.00000000   0.713E-01       0.001       32.256   0.100E-07
     TRS4 it   6 1.00000000   0.954E-02       0.001       32.256   0.100E-07
     TRS4 it   7 1.00000000   0.228E-03       0.001       32.256   0.100E-07
     TRS4 it   8 1.00000000   0.180E-06       0.001       32.256   0.100E-07
     TRS4 it   9 1.00000000   0.138E-12       0.001       32.256   0.100E-07
     Final TRS4 iteration    9 1.00000000   0.138E-12
     Chemical potential (mu):       0.01061
 
 PAO| energy:  -7.8132120493911152      penalty:   1.3403153764106496E-005
 PAO|CG| trace_G_new    3.2467749767572544E-005
 PAO|CG| trace_G_prev    8.0593780131175133E-005
 PAO|CG| trace_G_mix    5.2184596352268010E-008
 PAO|CG| trace_D    1.2118920764845463E-004
 PAO|CG| trace_D_Gnew  -2.5891483505747023E-008
 PAO|CG| beta:   0.40220926625429931     
 PAO| norm of gradient:   5.6980478909511231E-003
 PAO| energy improvement:  -1.0106862639247538E-005
 PAO| step     28                   -7.813212049  0.356E-03  0.250E+00     0.084
 PAO|LS| adapt:  T F F
 PAO|LS| adapt: scan_steps:    0.0000000000000000        0.0000000000000000        0.0000000000000000     
 PAO|LS| adapt: energies:   -7.8132120493911152        0.0000000000000000        0.0000000000000000     
 PAO| ======================= Iteration:        29 =============================

     Lanczos converged:  T threshold:   0.100E-02
     Est. extremal eigenvalues:    0.277E+01   0.179E+00
     Est. condition number :    0.155E+02
     NS sqrt iter    1 1.00000000   0.705E+00       0.002       40.470
     NS sqrt iter    2 1.00000000   0.330E+00       0.001       75.232
     NS sqrt iter    3 1.00000000   0.761E-01       0.001       76.965
     NS sqrt iter    4 1.00000000   0.193E-02       0.001       74.867
     NS sqrt iter    5 1.00000000   0.659E-07       0.001       55.804
     Final NS sqrt iter    5 1.00000000   0.597E-09

     Est. extremal eigenvalues     -0.93797     1.72493  converged:  T
     TRS4 it   1 1.00000000   0.881E+00       0.001       16.128   0.100E-07
     TRS4 it   2 1.00000000   0.625E+00       0.001       32.256   0.100E-07
     TRS4 it   3 1.00000000   0.427E+00       0.001       32.256   0.100E-07
     TRS4 it   4 1.00000000   0.219E+00       0.001       32.256   0.100E-07
     TRS4 it   5 1.00000000   0.712E-01       0.001       32.256   0.100E-07
     TRS4 it   6 1.00000000   0.951E-02       0.001       32.256   0.100E-07
     TRS4 it   7 1.00000000   0.226E-03       0.001       32.256   0.100E-07
     TRS4 it   8 1.00000000   0.178E-06       0.001       32.256   0.100E-07
     TRS4 it   9 1.00000000   0.135E-12       0.001       32.256   0.100E-07
     Final TRS4 iteration    9 1.00000000   0.135E-12
     Chemical potential (mu):       0.01074
 
 PAO| energy:  -7.8132191955252832      penalty:   1.2969319053919109E-005
 PAO|LS| adapt:  T T F
 PAO|LS| adapt: scan_steps:    0.0000000000000000       0.25027420553625385        0.0000000000000000     
 PAO|LS| adapt: energies:   -7.8132120493911152       -7.8132191955252832        0.0000000000000000     
 PAO| ======================= Iteration:        30 =============================

     Lanczos converged:  T threshold:   0.100E-02
     Est. extremal eigenvalues:    0.276E+01   0.179E+00
     Est. condition number :    0.155E+02
     NS sqrt iter    1 1.00000000   0.705E+00       0.001       44.823
     NS sqrt iter    2 1.00000000   0.330E+00       0.001       75.449
     NS sqrt iter    3 1.00000000   0.760E-01       0.002       73.576
     NS sqrt iter    4 1.00000000   0.193E-02       0.001       74.973
     NS sqrt iter    5 1.00000000   0.655E-07       0.001       53.632
     Final NS sqrt iter    5 1.00000000   0.594E-09

     Est. extremal eigenvalues     -0.93797     1.72462  converged:  T
     TRS4 it   1 1.00000000   0.881E+00       0.001       16.128   0.100E-07
     TRS4 it   2 1.00000000   0.625E+00       0.001       26.052   0.100E-07
     TRS4 it   3 1.00000000   0.427E+00       0.001       25.782   0.100E-07
     TRS4 it   4 1.00000000   0.219E+00       0.001       31.304   0.100E-07
     TRS4 it   5 1.00000000   0.711E-01       0.001       32.256   0.100E-07
     TRS4 it   6 1.00000000   0.949E-02       0.001       32.256   0.100E-07
     TRS4 it   7 1.00000000   0.225E-03       0.001       32.256   0.100E-07
     TRS4 it   8 1.00000000   0.175E-06       0.001       32.256   0.100E-07
     TRS4 it   9 1.00000000   0.131E-12       0.001       32.256   0.100E-07
     Final TRS4 iteration    9 1.00000000   0.131E-12
     Chemical potential (mu):       0.01087
 
 PAO| energy:  -7.8132243774397603      penalty:   1.2543456762860694E-005
 PAO|LS| adapt:  T T F
 PAO|LS| adapt: scan_steps:    0.0000000000000000       0.50054841107250769        0.0000000000000000     
 PAO|LS| adapt: energies:   -7.8132120493911152       -7.8132243774397603        0.0000000000000000     
 PAO| ======================= Iteration:        31 =============================

     Lanczos converged:  T threshold:   0.100E-02
     Est. extremal eigenvalues:    0.276E+01   0.179E+00
     Est. condition number :    0.155E+02
     NS sqrt iter    1 1.00000000   0.705E+00       0.002       35.496
     NS sqrt iter    2 1.00000000   0.330E+00       0.002       64.832
     NS sqrt iter    3 1.00000000   0.759E-01       0.002       67.205
     NS sqrt iter    4 1.00000000   0.192E-02       0.002       64.826
     NS sqrt iter    5 1.00000000   0.647E-07       0.002       48.202
     Final NS sqrt iter    5 1.00000000   0.600E-09

     Est. extremal eigenvalues     -0.93798     1.72400  converged:  T
     TRS4 it   1 1.00000000   0.881E+00       0.001       15.716   0.100E-07
     TRS4 it   2 1.00000000   0.625E+00       0.001       28.062   0.100E-07
     TRS4 it   3 1.00000000   0.427E+00       0.001       32.256   0.100E-07
     TRS4 it   4 1.00000000   0.218E+00       0.001       32.256   0.100E-07
     TRS4 it   5 1.00000000   0.709E-01       0.001       32.256   0.100E-07
     TRS4 it   6 1.00000000   0.943E-02       0.001       32.256   0.100E-07
     TRS4 it   7 1.00000000   0.222E-03       0.001       32.256   0.100E-07
     TRS4 it   8 1.00000000   0.170E-06       0.001       32.256   0.100E-07
     TRS4 it   9 1.00000000   0.123E-12       0.001       32.256   0.100E-07
     Final TRS4 iteration    9 1.00000000   0.123E-12
     Chemical potential (mu):       0.01113
 
 PAO| energy:  -7.8132288503180884      penalty:   1.1715484103640488E-005
 PAO|LS| Need extra step
 PAO|LS| adapt:  T T F
 PAO|LS| adapt: scan_steps:    0.0000000000000000        1.0010968221450154        0.0000000000000000     
 PAO|LS| adapt: energies:   -7.8132120493911152       -7.8132288503180884        0.0000000000000000     
 PAO| ======================= Iteration:        32 =============================

     Lanczos converged:  T threshold:   0.100E-02
     Est. extremal eigenvalues:    0.276E+01   0.179E+00
     Est. condition number :    0.154E+02
     NS sqrt iter    1 1.00000000   0.704E+00       0.002       41.545
     NS sqrt iter    2 1.00000000   0.329E+00       0.001       76.006
     NS sqrt iter    3 1.00000000   0.756E-01       0.001       76.403
     NS sqrt iter    4 1.00000000   0.191E-02       0.001       75.938
     NS sqrt iter    5 1.00000000   0.632E-07       0.001       55.527
     Final NS sqrt iter    5 1.00000000   0.594E-09

     Est. extremal eigenvalues     -0.93798     1.72275  converged:  T
     TRS4 it   1 1.00000000   0.881E+00       0.001       16.128   0.100E-07
     TRS4 it   2 1.00000000   0.624E+00       0.001       32.256   0.100E-07
     TRS4 it   3 1.00000000   0.426E+00       0.001       32.256   0.100E-07
     TRS4 it   4 1.00000000   0.218E+00       0.001       32.256   0.100E-07
     TRS4 it   5 1.00000000   0.704E-01       0.001       32.256   0.100E-07
     TRS4 it   6 1.00000000   0.932E-02       0.001       32.256   0.100E-07
     TRS4 it   7 1.00000000   0.216E-03       0.001       32.256   0.100E-07
     TRS4 it   8 1.00000000   0.161E-06       0.001       32.256   0.100E-07
     TRS4 it   9 1.00000000   0.109E-12       0.001       32.256   0.100E-07
     Final TRS4 iteration    9 1.00000000   0.109E-12
     Chemical potential (mu):       0.01165
 
 PAO| energy:  -7.8132142370819064      penalty:   1.0153400745857920E-005
 PAO|LS| Need extra step
 PAO|LS| adapt:  T T T
 PAO|LS| adapt: scan_steps:    0.0000000000000000        1.0010968221450154        2.0021936442900308     
 PAO|LS| adapt: energies:   -7.8132120493911152       -7.8132288503180884       -7.8132142370819064     
 PAO|LS| adapt: suggested step_size:    1.0359551484367862     
 PAO|LS| adapt: predicted energy  -7.8132288693620104     
 PAO| ======================= Iteration:        33 =============================

     Lanczos converged:  T threshold:   0.100E-02
     Est. extremal eigenvalues:    0.276E+01   0.179E+00
     Est. condition number :    0.155E+02
     NS sqrt iter    1 1.00000000   0.705E+00       0.002       32.822
     NS sqrt iter    2 1.00000000   0.330E+00       0.002       59.729
     NS sqrt iter    3 1.00000000   0.759E-01       0.002       61.978
     NS sqrt iter    4 1.00000000   0.192E-02       0.002       56.946
     NS sqrt iter    5 1.00000000   0.646E-07       0.002       41.265
     Final NS sqrt iter    5 1.00000000   0.599E-09

     Est. extremal eigenvalues     -0.93798     1.72396  converged:  T
     TRS4 it   1 1.00000000   0.881E+00       0.001       16.128   0.100E-07
     TRS4 it   2 1.00000000   0.625E+00       0.001       30.586   0.100E-07
     TRS4 it   3 1.00000000   0.427E+00       0.001       32.256   0.100E-07
     TRS4 it   4 1.00000000   0.218E+00       0.001       32.256   0.100E-07
     TRS4 it   5 1.00000000   0.708E-01       0.001       32.256   0.100E-07
     TRS4 it   6 1.00000000   0.943E-02       0.001       31.608   0.100E-07
[...]
     NS sqrt iter    3 1.00000000   0.489E-01       0.002       67.505
     NS sqrt iter    4 1.00000000   0.785E-03       0.002       66.819
     NS sqrt iter    5 1.00000000   0.637E-08       0.001       29.236
     Final NS sqrt iter    5 1.00000000   0.371E-09

     Est. extremal eigenvalues     -0.93766     1.63356  converged:  T
     TRS4 it   1 1.00000000   0.880E+00       0.001       16.128   0.100E-07
     TRS4 it   2 1.00000000   0.634E+00       0.001       32.256   0.100E-07
     TRS4 it   3 1.00000000   0.456E+00       0.001       32.256   0.100E-07
     TRS4 it   4 1.00000000   0.279E+00       0.001       32.256   0.100E-07
     TRS4 it   5 1.00000000   0.138E+00       0.001       32.256   0.100E-07
     TRS4 it   6 1.00000000   0.441E-01       0.001       32.256   0.100E-07
     TRS4 it   7 1.00000000   0.626E-02       0.001       32.256   0.100E-07
     TRS4 it   8 1.00000000   0.166E-03       0.001       32.256   0.100E-07
     TRS4 it   9 1.00000000   0.124E-06       0.001       32.256   0.100E-07
     TRS4 it  10 1.00000000   0.698E-13       0.001       32.256   0.100E-07
     Final TRS4 iteration   10 1.00000000   0.698E-13
     Chemical potential (mu):      -0.07751
 
 PAO| energy:  -7.8123250442608683      penalty:   2.2495148189987701E-008
 PAO|LS| Need extra step
 PAO|LS| adapt:  T T T
 PAO|LS| adapt: scan_steps:    0.0000000000000000       0.20000000000000001       0.40000000000000002     
 PAO|LS| adapt: energies:   -7.8123250410574627       -7.8123250457378015       -7.8123250442608683     
 PAO|LS| adapt: suggested step_size:   0.25202637673834100     
 PAO|LS| adapt: predicted energy  -7.8123250459461282     
 PAO| ======================= Iteration:       425 =============================

     Lanczos converged:  T threshold:   0.100E-02
     Est. extremal eigenvalues:    0.250E+01   0.190E+00
     Est. condition number :    0.132E+02
     NS sqrt iter    1 1.00000000   0.635E+00       0.002       40.450
     NS sqrt iter    2 1.00000000   0.276E+00       0.002       66.517
     NS sqrt iter    3 1.00000000   0.489E-01       0.002       66.328
     NS sqrt iter    4 1.00000000   0.785E-03       0.002       67.149
     NS sqrt iter    5 1.00000000   0.637E-08       0.001       28.751
     Final NS sqrt iter    5 1.00000000   0.371E-09

     Est. extremal eigenvalues     -0.93766     1.63356  converged:  T
     TRS4 it   1 1.00000000   0.880E+00       0.001       16.128   0.100E-07
     TRS4 it   2 1.00000000   0.634E+00       0.001       32.256   0.100E-07
     TRS4 it   3 1.00000000   0.456E+00       0.001       32.256   0.100E-07
     TRS4 it   4 1.00000000   0.279E+00       0.001       32.256   0.100E-07
     TRS4 it   5 1.00000000   0.138E+00       0.001       32.256   0.100E-07
     TRS4 it   6 1.00000000   0.441E-01       0.001       32.256   0.100E-07
     TRS4 it   7 1.00000000   0.626E-02       0.001       32.256   0.100E-07
     TRS4 it   8 1.00000000   0.166E-03       0.001       32.256   0.100E-07
     TRS4 it   9 1.00000000   0.124E-06       0.001       32.256   0.100E-07
     TRS4 it  10 1.00000000   0.694E-13       0.001       32.256   0.100E-07
     Final TRS4 iteration   10 1.00000000   0.694E-13
     Chemical potential (mu):      -0.07752
 
 PAO| energy:  -7.8123250459461380      penalty:   2.2766416481463196E-008
 PAO|CG| warming up with steepest descent
 PAO|CG| beta:    0.0000000000000000     
 PAO| norm of gradient:   1.2068949244125529E-004
 PAO| energy improvement:  -4.8886752423982216E-009
 PAO| step    425                   -7.812325046  0.754E-05  0.252E+00     0.107
 PAO| converged after          425  steps :-)
 PAO| Recalculating energy after mixing.

     Lanczos converged:  T threshold:   0.100E-02
     Est. extremal eigenvalues:    0.250E+01   0.190E+00
     Est. condition number :    0.132E+02
     NS sqrt iter    1 1.00000000   0.635E+00       0.002       42.296
     NS sqrt iter    2 1.00000000   0.276E+00       0.002       67.134
     NS sqrt iter    3 1.00000000   0.489E-01       0.002       67.779
     NS sqrt iter    4 1.00000000   0.785E-03       0.002       67.808
     NS sqrt iter    5 1.00000000   0.637E-08       0.001       28.632
     Final NS sqrt iter    5 1.00000000   0.371E-09

     Est. extremal eigenvalues     -0.93766     1.63356  converged:  T
     TRS4 it   1 1.00000000   0.880E+00       0.001       16.128   0.100E-07
     TRS4 it   2 1.00000000   0.634E+00       0.001       32.256   0.100E-07
     TRS4 it   3 1.00000000   0.456E+00       0.001       32.256   0.100E-07
     TRS4 it   4 1.00000000   0.279E+00       0.001       32.256   0.100E-07
     TRS4 it   5 1.00000000   0.138E+00       0.001       32.256   0.100E-07
     TRS4 it   6 1.00000000   0.441E-01       0.001       32.256   0.100E-07
     TRS4 it   7 1.00000000   0.626E-02       0.001       32.256   0.100E-07
     TRS4 it   8 1.00000000   0.166E-03       0.001       32.256   0.100E-07
     TRS4 it   9 1.00000000   0.124E-06       0.001       32.256   0.100E-07
     TRS4 it  10 1.00000000   0.697E-13       0.001       32.256   0.100E-07
     Final TRS4 iteration   10 1.00000000   0.697E-13
     Chemical potential (mu):      -0.07752
 
 PAO| energy:  -7.8123250447239547      penalty:   2.2998703719219190E-008
 PAO| Writing restart file.
     Est. extremal eigenvalues     -0.93766     1.63356  converged:  T
     TRS4 it   1 1.00000000   0.880E+00       0.001       16.128   0.100E-07
     TRS4 it   2 1.00000000   0.634E+00       0.001       32.256   0.100E-07
     TRS4 it   3 1.00000000   0.456E+00       0.001       32.256   0.100E-07
     TRS4 it   4 1.00000000   0.279E+00       0.001       32.256   0.100E-07
     TRS4 it   5 1.00000000   0.138E+00       0.001       32.256   0.100E-07
     TRS4 it   6 1.00000000   0.441E-01       0.001       32.256   0.100E-07
     TRS4 it   7 1.00000000   0.626E-02       0.001       32.256   0.100E-07
     TRS4 it   8 1.00000000   0.166E-03       0.001       32.256   0.100E-07
     TRS4 it   9 1.00000000   0.124E-06       0.001       32.256   0.100E-07
     TRS4 it  10 1.00000000   0.697E-13       0.001       32.256   0.100E-07
     Final TRS4 iteration   10 1.00000000   0.697E-13
     Chemical potential (mu):      -0.07752

 SCF     1       -34.449894616       -34.449894616    2.226722

*********************************************************
 Using MIXING_FRACTION=0.450 to mix KS matrix:  iscf=  2
 KS_nw=0.450*KS + 0.550*KS_old
*********************************************************
     Est. extremal eigenvalues     -0.93766     1.63356  converged:  T
     TRS4 it   1 1.00000000   0.880E+00       0.001       16.128   0.100E-07
     TRS4 it   2 1.00000000   0.634E+00       0.001       32.256   0.100E-07
     TRS4 it   3 1.00000000   0.456E+00       0.001       32.256   0.100E-07
     TRS4 it   4 1.00000000   0.279E+00       0.001       32.256   0.100E-07
     TRS4 it   5 1.00000000   0.138E+00       0.001       32.256   0.100E-07
     TRS4 it   6 1.00000000   0.441E-01       0.001       32.256   0.100E-07
     TRS4 it   7 1.00000000   0.626E-02       0.001       32.256   0.100E-07
     TRS4 it   8 1.00000000   0.166E-03       0.001       32.256   0.100E-07
     TRS4 it   9 1.00000000   0.124E-06       0.001       32.256   0.100E-07
     TRS4 it  10 1.00000000   0.697E-13       0.001       32.256   0.100E-07
     Final TRS4 iteration   10 1.00000000   0.697E-13
     Chemical potential (mu):      -0.07751

 SCF     2       -34.449894616        -0.000000000    2.326318

 PAO| Storing density matrix for ASPC guess in slot:           1

 ENERGY| Total FORCE_EVAL ( QS ) energy (a.u.):              -34.449894616267386


 -------------------------------------------------------------------------------
 -                                                                             -
 -                                DBCSR STATISTICS                             -
 -                                                                             -
 -------------------------------------------------------------------------------
 COUNTER                                    TOTAL       BLAS       SMM       ACC
 flops     5 x     5 x     4                20000     100.0%      0.0%      0.0%
 flops    13 x     5 x     4                20800     100.0%      0.0%      0.0%
 flops     5 x    13 x     4                20800     100.0%      0.0%      0.0%
 flops    13 x    13 x     4                40560     100.0%      0.0%      0.0%
 flops     4 x     4 x     5              3336960     100.0%      0.0%      0.0%
 flops     5 x     4 x     5              4076800     100.0%      0.0%      0.0%
 flops     4 x     4 x    13              4338048     100.0%      0.0%      0.0%
 flops    13 x     4 x     5              5299840     100.0%      0.0%      0.0%
 flops     5 x     4 x    13              5299840     100.0%      0.0%      0.0%
 flops     5 x     4 x     4              6432640     100.0%      0.0%      0.0%
 flops    13 x     4 x    13              6889792     100.0%      0.0%      0.0%
 flops    13 x     4 x     4              8494304     100.0%      0.0%      0.0%
 flops     4 x     4 x     4            432320256     100.0%      0.0%      0.0%
 flops inhomo. stacks                           0       0.0%      0.0%      0.0%
 flops total                       476.590640E+06     100.0%      0.0%      0.0%
 flops max/rank                    476.590640E+06     100.0%      0.0%      0.0%
 matmuls inhomo. stacks                         0       0.0%      0.0%      0.0%
 matmuls total                            3515483     100.0%      0.0%      0.0%
 number of processed stacks                 27998     100.0%      0.0%      0.0%
 average stack size                                   125.6       0.0       0.0
 marketing flops                   775.247616E+06
 -------------------------------------------------------------------------------
 # multiplications                          23430
 max memory usage/rank             328.372224E+06
 # max total images/rank                        1
 # max 3D layers                                1
 # MPI messages exchanged                       0
 MPI messages size (bytes):
  total size                         0.000000E+00
  min size                           0.000000E+00
  max size                           0.000000E+00
  average size                       0.000000E+00
 MPI breakdown and total messages size (bytes):
             size <=      128                   0                        0
       128 < size <=     8192                   0                        0
      8192 < size <=    32768                   0                        0
     32768 < size <=   131072                   0                        0
    131072 < size <=  4194304                   0                        0
   4194304 < size <= 16777216                   0                        0
  16777216 < size                               0                        0
 -------------------------------------------------------------------------------

 MEMORY| Estimated peak process memory [MiB]                                 314

 -------------------------------------------------------------------------------
 -                                                                             -
 -                           R E F E R E N C E S                               -
 -                                                                             -
 -------------------------------------------------------------------------------
 
 CP2K version 7.0 (Development Version), the CP2K developers group (2018).
 CP2K is freely available from https://www.cp2k.org/ .

 Schuett, O; VandeVondele, J. 
 Journal of Chemical Theory and Computation, 14, (2018). 
 Machine Learning Adaptive Basis Sets for Efficient Large Scale Density Functional Theory Simulation.
 https://dx.doi.org/10.1021/acs.jctc.8b00378


 Schuett, Ole; Messmer, Peter; Hutter, Juerg; VandeVondele, Joost. 
 Electronic Structure Calculations on Graphics Processing Units, John Wiley & Sons, Ltd, 173-190 (2016). 
 GPU-Accelerated Sparse Matrix-Matrix Multiplication for Linear Scaling Density Functional Theory.
 https://dx.doi.org/10.1002/9781118670712.ch8


 Borstnik, U; VandeVondele, J; Weber, V; Hutter, J. 
 PARALLEL COMPUTING, 40 (5-6), 47-58 (2014). 
 Sparse matrix multiplication: The distributed block-compressed sparse
 row library.
 https://dx.doi.org/10.1016/j.parco.2014.03.012


 Hutter, J; Iannuzzi, M; Schiffmann, F; VandeVondele, J. 
 WILEY INTERDISCIPLINARY REVIEWS-COMPUTATIONAL MOLECULAR SCIENCE, 4 (1), 15-25 (2014). 
 CP2K: atomistic simulations of condensed matter systems.
 https://dx.doi.org/10.1002/wcms.1159


 VandeVondele, J; Borstnik, U; Hutter, J. 
 JOURNAL OF CHEMICAL THEORY AND COMPUTATION, 8 (10), 3565-3573 (2012). 
 Linear Scaling Self-Consistent Field Calculations with Millions of Atoms
 in the Condensed Phase.
 https://dx.doi.org/10.1021/ct200897x


 VandeVondele, J; Hutter, J. 
 JOURNAL OF CHEMICAL PHYSICS, 127 (11), 114105 (2007). 
 Gaussian basis sets for accurate calculations on molecular systems in
 gas and condensed phases.
 https://dx.doi.org/10.1063/1.2770708


 Krack, M. 
 THEORETICAL CHEMISTRY ACCOUNTS, 114 (1-3), 145-152 (2005). 
 Pseudopotentials for H to Kr optimized for gradient-corrected
 exchange-correlation functionals.
 https://dx.doi.org/10.1007/s00214-005-0655-y


 VandeVondele, J; Krack, M; Mohamed, F; Parrinello, M; Chassaing, T;
 Hutter, J. COMPUTER PHYSICS COMMUNICATIONS, 167 (2), 103-128 (2005). 
 QUICKSTEP: Fast and accurate density functional calculations using a
 mixed Gaussian and plane waves approach.
 https://dx.doi.org/10.1016/j.cpc.2004.12.014


 Frigo, M; Johnson, SG. 
 PROCEEDINGS OF THE IEEE, 93 (2), 216-231 (2005). 
 The design and implementation of FFTW3.
 https://dx.doi.org/10.1109/JPROC.2004.840301


 Niklasson, AMN; Tymczak, CJ; Challacombe, M. 
 JOURNAL OF CHEMICAL PHYSICS, 118 (19), 8611-8620 (2003). 
 Trace resetting density matrix purification in O(N)
 self-consistent-field theory.
 https://dx.doi.org/10.1063/1.1559913


 Hartwigsen, C; Goedecker, S; Hutter, J. 
 PHYSICAL REVIEW B, 58 (7), 3641-3662 (1998). 
 Relativistic separable dual-space Gaussian pseudopotentials from H to Rn.
 https://dx.doi.org/10.1103/PhysRevB.58.3641


 Lippert, G; Hutter, J; Parrinello, M. 
 MOLECULAR PHYSICS, 92 (3), 477-487 (1997). 
 A hybrid Gaussian and plane wave density functional scheme.
 https://dx.doi.org/10.1080/002689797170220


 Perdew, JP; Burke, K; Ernzerhof, M. 
 PHYSICAL REVIEW LETTERS, 77 (18), 3865-3868 (1996). 
 Generalized gradient approximation made simple.
 https://dx.doi.org/10.1103/PhysRevLett.77.3865


 Goedecker, S; Teter, M; Hutter, J. 
 PHYSICAL REVIEW B, 54 (3), 1703-1710 (1996). 
 Separable dual-space Gaussian pseudopotentials.
 https://dx.doi.org/10.1103/PhysRevB.54.1703


 -------------------------------------------------------------------------------
 -                                                                             -
 -                                T I M I N G                                  -
 -                                                                             -
 -------------------------------------------------------------------------------
 SUBROUTINE                       CALLS  ASD         SELF TIME        TOTAL TIME
                                MAXIMUM       AVERAGE  MAXIMUM  AVERAGE  MAXIMUM
 CP2K                                 1  1.0    0.033    0.033   35.347   35.347
 qs_energies                          1  2.0    0.000    0.000   34.988   34.988
 ls_scf                               1  3.0    0.000    0.000   34.820   34.820
 ls_scf_main                          4  4.0    0.001    0.001   20.419   20.419
 ls_scf_dm_to_ks                      9  5.0    0.000    0.000   20.296   20.296
 qs_ks_update_qs_env                 10  6.0    0.000    0.000   16.176   16.176
 rebuild_ks_matrix                   10  7.0    0.000    0.000   16.176   16.176
 qs_ks_build_kohn_sham_matrix        10  8.0    0.001    0.001   16.176   16.176
 pao_update                           4  4.0    0.012    0.012   11.768   11.768
 pao_calc_energy                    428  5.0    0.005    0.005   10.613   10.613
 qs_vxc_create                       10  9.0    0.000    0.000    9.689    9.689
 xc_vxc_pw_create                    10 10.0    0.111    0.111    9.689    9.689
 dbcsr_multiply_generic           23430  8.4    0.553    0.553    9.057    9.057
 xc_rho_set_and_dset_create          10 11.0    0.034    0.034    6.990    6.990
 pw_transfer                        191 10.6    0.013    0.013    6.696    6.696
 qs_rho_update_rho                   10  6.0    0.000    0.000    6.673    6.673
 calculate_rho_elec                  10  7.0    5.313    5.313    6.673    6.673
 fft_wrap_pw1pw2                    171 11.7    0.002    0.002    6.604    6.604
 fft_wrap_pw1pw2_200                111 12.8    0.344    0.344    6.317    6.317
 sum_up_and_integrate                10  9.0    0.018    0.018    5.553    5.553
 integrate_v_rspace                  10 10.0    4.717    4.717    5.534    5.534
 pao_dm_trs4                        428  6.0    0.010    0.010    5.517    5.517
 density_matrix_trs4                437  7.0    0.199    0.199    5.313    5.313
 ls_scf_init_matrix_S               432  7.0    0.004    0.004    5.090    5.090
 pao_rebuild_S                      428  6.0    0.003    0.003    5.046    5.046
 xc_functional_eval                  10 12.0    0.000    0.000    4.902    4.902
 pbe_lda_eval                        10 13.0    4.902    4.902    4.902    4.902
 matrix_sqrt_Newton_Schulz          432  8.0    0.127    0.127    4.601    4.601
 multiply_cannon                  23430  9.4    1.419    1.419    4.259    4.259
 fft3d_s                            172 13.6    3.520    3.520    3.535    3.535
 make_m2s                         46860  9.4    0.203    0.203    2.892    2.892
 pao_guess_initial_P                  1  4.0    0.000    0.000    2.560    2.560
 pao_read_preopt_dm                   1  5.0    0.000    0.000    2.560    2.560
 make_images                      46860 10.4    0.688    0.688    2.558    2.558
 multiply_cannon_multrec          23430 10.4    1.528    1.528    1.669    1.669
 pw_gather_s                         81 13.1    1.554    1.554    1.554    1.554
 density_rs2pw                       10  8.0    0.001    0.001    1.347    1.347
 arnoldi_extremal                   869  8.5    0.005    0.005    1.293    1.293
 arnoldi_normal_ev                  869  9.5    0.015    0.015    1.288    1.288
 pw_scatter_s                        90 14.2    1.155    1.155    1.155    1.155
 pao_calc_AB                        564  5.8    0.001    0.001    1.133    1.133
 pao_calc_AB_direct                 564  6.8    0.032    0.032    1.132    1.132
 pao_calc_grad_lnv_wrt_AB           135  7.0    0.009    0.009    1.067    1.067
 build_subspace                     869 10.5    0.068    0.068    0.960    0.960
 dbcsr_matrix_vector_mult         20829 11.5    0.130    0.130    0.861    0.861
 dbcsr_finalize                   55871  9.6    0.134    0.134    0.832    0.832
 potential_pw2rs                     10 11.0    0.003    0.003    0.815    0.815
 dbcsr_create_new                179175 10.7    0.398    0.398    0.777    0.777
 -------------------------------------------------------------------------------

 The number of warnings for this run is : 0
 
 -------------------------------------------------------------------------------
  **** **** ******  **  PROGRAM ENDED AT                 2019-03-28 17:33:26.356
 ***** ** ***  *** **   PROGRAM RAN ON            oleschuett.zrh.corp.google.com
 **    ****   ******    PROGRAM RAN BY                                oleschuett
 ***** **    ** ** **   PROGRAM PROCESS ID                                 32271
  **** **  *******  **  PROGRAM STOPPED IN /usr/local/google/home/oleschuett/git
                                           /pao_ml_equivar/2H2O_rotations/phi_20
