       6
 i =      675, time =      135.000, E =       -34.4486501272
  O         2.5213926640        4.2555564914        3.7120547497
  H         1.9864472564        4.7186690335        4.3616092965
  H         1.8777927226        3.7950958160        3.1540560087
  O         5.3494727313        4.2620765537        4.2999222185
  H         4.8809197555        3.9355613422        5.0969114277
  H         4.6136440454        4.3305327118        3.6876862101
