 DBCSR| CPU Multiplication driver                                           XSMM (U)
 DBCSR| Multrec recursion limit                                              512 (U)
 DBCSR| Multiplication stack size                                           1000 (D)
 DBCSR| Maximum elements for images                                    UNLIMITED (U)
 DBCSR| Multiplicative factor virtual images                                   1 (U)
 DBCSR| Use multiplication densification                                       T (D)
 DBCSR| Multiplication size stacks                                             3 (U)
 DBCSR| Use memory pool for CPU allocation                                     F (U)
 DBCSR| OMP: Current number of threads                                         1
 DBCSR| OMP: Max number of threads                                             1
 DBCSR| Split modifier for TAS multiplication algorithm                  1.0E+00 (U)


  **** **** ******  **  PROGRAM STARTED AT               2023-02-01 10:43:54.934
 ***** ** ***  *** **   PROGRAM STARTED ON                                moritz
 **    ****   ******    PROGRAM STARTED BY                                   ole
 ***** **    ** ** **   PROGRAM PROCESS ID                                148509
  **** **  *******  **  PROGRAM STARTED IN /home/ole/git/pao_ml_equivar/2H2O_rot
                                           ations/rand_10

 CP2K| version string:                 CP2K version 2023.1 (Development Version)
 CP2K| source code revision number:                                  git:03b4147
 CP2K| cp2kflags: omp libint fftw3 libxc quip xsmm spglib libvori libbqb libtorc
 CP2K|            h
 CP2K| is freely available from                            https://www.cp2k.org/
 CP2K| Program compiled at                           Mi 01 Feb 2023 10:36:52 CET
 CP2K| Program compiled on                                                moritz
 CP2K| Program compiled for                                                local
 CP2K| Data directory path                               /home/ole/git/cp2k/data
 CP2K| Input file name                                            2H2O_pao44.inp

 GLOBAL| Force Environment number                                              1
 GLOBAL| Basis set file name                                        BASIS_MOLOPT
 GLOBAL| Potential file name                                      GTH_POTENTIALS
 GLOBAL| MM Potential file name                                     MM_POTENTIAL
 GLOBAL| Coordinate file name                                         coords.xyz
 GLOBAL| Method name                                                        CP2K
 GLOBAL| Project name                                                 2H2O_pao44
 GLOBAL| Run type                                                         ENERGY
 GLOBAL| FFT library                                                       FFTW3
 GLOBAL| Diagonalization library                                       ScaLAPACK
 GLOBAL| DGEMM library                                                      BLAS
 GLOBAL| Orthonormality check for eigenvectors                          DISABLED
 GLOBAL| Matrix multiplication library                                 ScaLAPACK
 GLOBAL| All-to-all communication in single precision                          F
 GLOBAL| FFTs using library dependent lengths                                  F
 GLOBAL| Grid backend                                                       AUTO
 GLOBAL| Global print level                                                  LOW
 GLOBAL| MPI I/O enabled                                                       T
 GLOBAL| Total number of message passing processes                             1
 GLOBAL| Number of threads for this process                                    1
 GLOBAL| This output is from process                                           0
 GLOBAL| Stack size for threads created by OpenMP (OMP_STACKSIZE)        default
 GLOBAL| CPU model name           AMD Ryzen Threadripper 3970X 32-Core Processor
 GLOBAL| CPUID                                                              1002
 GLOBAL| Compiled for CPUID                                                    0

 *** HINT in environment.F:884 :: The compiler target flags (generic) used ***
 *** to build this binary cannot exploit all extensions of this CPU model  ***
 *** (x86_avx2). Consider compiler target flags as part of FCFLAGS and     ***
 *** CFLAGS (ARCH file).                                                   ***


 MEMORY| system memory details [Kb]
 MEMORY|                        rank 0           min           max       average
 MEMORY| MemTotal            131773860     131773860     131773860     131773860
 MEMORY| MemFree             115406308     115406308     115406308     115406308
 MEMORY| Buffers                301492        301492        301492        301492
 MEMORY| Cached                7000768       7000768       7000768       7000768
 MEMORY| Slab                   776600        776600        776600        776600
 MEMORY| SReclaimable           330700        330700        330700        330700
 MEMORY| MemLikelyFree       123039268     123039268     123039268     123039268


 GENERATE|  Preliminary Number of Bonds generated:                             0
 GENERATE|  Achieved consistency in connectivity generation.

 *******************************************************************************
 *******************************************************************************
 **                                                                           **
 **     #####                         ##              ##                      **
 **    ##   ##            ##          ##              ##                      **
 **   ##     ##                       ##            ######                    **
 **   ##     ##  ##   ##  ##   #####  ##  ##   ####   ##    #####    #####    **
 **   ##     ##  ##   ##  ##  ##      ## ##   ##      ##   ##   ##  ##   ##   **
 **   ##  ## ##  ##   ##  ##  ##      ####     ###    ##   ######   ######    **
 **    ##  ###   ##   ##  ##  ##      ## ##      ##   ##   ##       ##        **
 **     #######   #####   ##   #####  ##  ##  ####    ##    #####   ##        **
 **           ##                                                    ##        **
 **                                                                           **
 **                                                ... make the atoms dance   **
 **                                                                           **
 **            Copyright (C) by CP2K developers group (2000-2023)             **
 **                      J. Chem. Phys. 152, 194103 (2020)                    **
 **                                                                           **
 *******************************************************************************


 TOTAL NUMBERS AND MAXIMUM NUMBERS

  Total number of            - Atomic kinds:                                   2
                             - Atoms:                                          6
                             - Shell sets:                                     6
                             - Shells:                                        22
                             - Primitive Cartesian functions:                 42
                             - Cartesian basis functions:                     48
                             - Spherical basis functions:                     46

  Maximum angular momentum of- Orbital basis functions:                        2
                             - Local part of the GTH pseudopotential:          2
                             - Non-local part of the GTH pseudopotential:      0

 ------------------------------ Linear scaling SCF -----------------------------
 eps_scf:                                                              0.100E-07
 eps_filter:                                                           0.100E-07
 mixing_fraction:                                                      0.450E+00
 max_scf:                                                                     25
 fixed chemical potential (mu)                                                 F
 has unit metric:                                                              F
 Computing inv(S):                                                             T
 Computing sqrt(S):                                                            T
 Computing S preconditioner                                                    F
 S sqrt method:                                                     NEWTONSCHULZ
 S sqrt order:                                                                 3
 Extrapolation order:                                                          1
 Use single precision matrices                                                 F
 S preconditioner type                                                      NONE
 Polarized Atomic Orbitals (PAO)                                               T
 Purification method                                   Trace resetting 4th order
 Cluster type                                                             ATOMIC
 Computing Chebyshev                                                       FALSE
 Using PAO                                                                     T
 -------------------------------------------------------------------------------

 
 PAO|                                  EPS_PAO                           0.1E-04
 PAO|                                  MIXING                            0.5E+00
 PAO|                                  MAX_PAO                              1000
 PAO|                                  MAX_CYCLES                           1000
 PAO|                                  PARAMETERIZATION              EQUIVARIANT
 PAO|                                  PRECONDITION                            F
 PAO|                                  REGULARIZATION                    0.0E+00
 PAO|                                  EPS_PGF                           0.1E-09
 PAO|                                  PENALTY_DISTANCE                  0.1E+00
 PAO|                                  PENALTY_STRENGTH                  0.5E-02
 PAO|                                  LINPOT_PRECONDITION_DELTA         0.0E+00
 PAO|                                  LINPOT_INITGUESS_DELT             0.0E+00
 PAO|                                  LINPOT_REGULARIZATION_DELTA       0.0E+00
 PAO|                                  LINPOT_REGULARIZATION_STRENGTH    0.0E+00
 PAO|                                  OPTIMIZER                              CG
 PAO|                                  CG_INIT_STEPS                           2
 PAO|                                  CG_RESET_LIMIT                    0.1E+00
 PAO|                                  CHECK_UNITARY_TOL                -0.1E+01
 PAO|                                  CHECK_GRADIENT_TOL               -0.1E+01
 PAO|                                  NUM_GRADIENT_ORDER                      2
 PAO|                                  NUM_GRADIENT_EPS                  0.1E-07
 PAO|                                  PRINT%RESTART%WRITE_CYCLES            100
 PAO|                                  RESTART_FILE 
 PAO|                                  PREOPT_DM_FILE 2H2O_ref_LS_DM_SPIN_1_RESTART.dm
 PAO|                                  MACHINE_LEARNING%METHOD       GAUSSIAN_PR
 PAO|                                  MACHINE_LEARNING%PRIOR               ZERO
 PAO|                                  MACHINE_LEARNING%DESCRIPTOR     POTENTIAL
 PAO|                                  MACHINE_LEARNING%TOLERANCE        0.1E-01
 PAO|                                  MACHINE_LEARNING%GP_NOISE_VAR     0.1E+00
 PAO|                                  MACHINE_LEARNING%GP_SCALE         0.5E-01
 

 Calculating atomic Fock matrix for atomic kind: O

 Electronic structure
    Total number of core electrons                                          2.00
    Total number of valence electrons                                       6.00
    Total number of electrons                                               8.00
    Multiplicity                                                   not specified
    S   [  2.00] 2.00
    P      4.00


 *******************************************************************************
                  Iteration          Convergence                     Energy [au]
 *******************************************************************************
                          1        0.708315                     -15.576645311500
                          2        0.608879                     -15.587933561584
                          3        0.102828E-01                 -15.656849565404
                          4        0.113889E-02                 -15.656866888140
                          5        0.434197E-03                 -15.656867072159
                          6        0.263771E-03                 -15.656867091904
                          7        0.478536E-06                 -15.656867103452

 Energy components [Hartree]           Total Energy ::          -15.656867103452
                                        Band Energy ::           -3.000198112285
                                     Kinetic Energy ::           11.759971203220
                                   Potential Energy ::          -27.416838306672
                                      Virial (-V/T) ::            2.331369510426
                                        Core Energy ::          -26.140716385623
                                          XC Energy ::           -3.154051012914
                                     Coulomb Energy ::           13.637900295084
                       Total Pseudopotential Energy ::          -37.935781716540
                       Local Pseudopotential Energy ::          -39.218907440693
                    Nonlocal Pseudopotential Energy ::            1.283125724153
                                        Confinement ::            0.350941276976

 Orbital energies  State     L     Occupation   Energy[a.u.]          Energy[eV]

                       1     0          2.000      -0.864471          -23.523463

                       1     1          4.000      -0.317814           -8.648154


 Total Electron Density at R=0:                                         0.000068

 Calculating atomic Fock matrix for atomic kind: H

 Electronic structure
    Total number of core electrons                                          0.00
    Total number of valence electrons                                       1.00
    Total number of electrons                                               1.00
    Multiplicity                                                   not specified
    S      1.00


 *******************************************************************************
                  Iteration          Convergence                     Energy [au]
 *******************************************************************************
                          1        0.437545E-02                  -0.424159432110
                          2        0.531356E-03                  -0.424178438213
                          3        0.259176E-06                  -0.424178722480

 Energy components [Hartree]           Total Energy ::           -0.424178722480
                                        Band Energy ::           -0.199015229016
                                     Kinetic Energy ::            0.464007633961
                                   Potential Energy ::           -0.888186356441
                                      Virial (-V/T) ::            1.914163240935
                                        Core Energy ::           -0.479160803564
                                          XC Energy ::           -0.244352904054
                                     Coulomb Energy ::            0.299334985138
                       Total Pseudopotential Energy ::           -0.962295316385
                       Local Pseudopotential Energy ::           -0.962295316385
                    Nonlocal Pseudopotential Energy ::            0.000000000000
                                        Confinement ::            0.191268788606

 Orbital energies  State     L     Occupation   Energy[a.u.]          Energy[eV]

                       1     0          1.000      -0.199015           -5.415480


 Total Electron Density at R=0:                                         0.242907
 PAO| Made initial guess for matrix_X with norm:   4.8989794855663558     

     Lanczos converged:  T threshold:   0.100E-02
     Est. extremal eigenvalues:    0.336E+01   0.113E+00
     Est. condition number :    0.296E+02

 Order=           3
     NS sqrt iter    1 1.00000000   0.820E+00       0.001       47.609
     NS sqrt iter    2 1.00000000   0.440E+00       0.001      109.623
     NS sqrt iter    3 1.00000000   0.171E+00       0.001      110.592
     NS sqrt iter    4 1.00000000   0.207E-01       0.001      110.592
     NS sqrt iter    5 1.00000000   0.550E-04       0.001       93.312
     Symmetrizing Results
     Final NS sqrt iter    5 1.00000000   0.397E-08

 PAO| Read restart DM 2H2O_ref_LS_DM_SPIN_1_RESTART.dm with checksum:    49.162080966954605     
 PAO| Quickstep energy from restart density:  -34.450665271455648     
 PAO| ======================= Iteration:         1 =============================

     Lanczos converged:  T threshold:   0.100E-02
     Est. extremal eigenvalues:    0.336E+01   0.113E+00
     Est. condition number :    0.296E+02

 Order=           3
     NS sqrt iter    1 1.00000000   0.820E+00       0.001       59.565
     NS sqrt iter    2 1.00000000   0.440E+00       0.001      100.388
     NS sqrt iter    3 1.00000000   0.171E+00       0.001      100.964
     NS sqrt iter    4 1.00000000   0.207E-01       0.001      100.485
     NS sqrt iter    5 1.00000000   0.550E-04       0.001       86.252
     Symmetrizing Results
     Final NS sqrt iter    5 1.00000000   0.397E-08

     Est. extremal eigenvalues     -0.91988     1.90492  converged:  T
     TRS4 it   1 1.00000000   0.888E+00       0.000       16.128   0.100E-07
     TRS4 it   2 1.00000000   0.696E+00       0.001       32.256   0.100E-07
     TRS4 it   3 1.00000000   0.501E+00       0.001       32.256   0.100E-07
     TRS4 it   4 1.00000000   0.314E+00       0.001       32.256   0.100E-07
     TRS4 it   5 1.00000000   0.156E+00       0.001       32.256   0.100E-07
     TRS4 it   6 1.00000000   0.492E-01       0.001       32.256   0.100E-07
     TRS4 it   7 1.00000000   0.684E-02       0.001       32.256   0.100E-07
     TRS4 it   8 1.00000000   0.186E-03       0.001       32.256   0.100E-07
     TRS4 it   9 1.00000000   0.153E-06       0.001       32.256   0.100E-07
     TRS4 it  10 1.00000000   0.105E-12       0.001       32.256   0.100E-07
     Final TRS4 iteration   10 1.00000000   0.105E-12
     Chemical potential (mu):      -0.06534
 
 PAO| energy:  -7.6241819461374902      penalty:   4.9303806576313247E-033
 PAO|CG| warming up with steepest descent
 PAO|CG| beta:    0.0000000000000000     
 PAO| norm of gradient:  0.78333476535370050     
 PAO|LS| adapt:  T F F
 PAO|LS| adapt: scan_steps:    0.0000000000000000        0.0000000000000000        0.0000000000000000     
 PAO|LS| adapt: energies:   -7.6241819461374902        0.0000000000000000        0.0000000000000000     
 PAO| ======================= Iteration:         2 =============================

     Lanczos converged:  T threshold:   0.100E-02
     Est. extremal eigenvalues:    0.327E+01   0.126E+00
     Est. condition number :    0.260E+02

 Order=           3
     NS sqrt iter    1 1.00000000   0.804E+00       0.001       59.290
     NS sqrt iter    2 1.00000000   0.425E+00       0.001       99.700
     NS sqrt iter    3 1.00000000   0.153E+00       0.001       99.636
     NS sqrt iter    4 1.00000000   0.144E-01       0.001      100.169
     NS sqrt iter    5 1.00000000   0.179E-04       0.001       76.643
     Symmetrizing Results
     Final NS sqrt iter    5 1.00000000   0.493E-09

     Est. extremal eigenvalues     -0.92354     1.85083  converged:  T
     TRS4 it   1 1.00000000   0.885E+00       0.000       16.128   0.100E-07
     TRS4 it   2 1.00000000   0.678E+00       0.001       32.256   0.100E-07
     TRS4 it   3 1.00000000   0.486E+00       0.001       32.256   0.100E-07
     TRS4 it   4 1.00000000   0.294E+00       0.001       32.256   0.100E-07
     TRS4 it   5 1.00000000   0.137E+00       0.001       32.256   0.100E-07
     TRS4 it   6 1.00000000   0.381E-01       0.001       32.256   0.100E-07
     TRS4 it   7 1.00000000   0.414E-02       0.001       32.256   0.100E-07
     TRS4 it   8 1.00000000   0.686E-04       0.001       32.256   0.100E-07
     TRS4 it   9 1.00000000   0.209E-07       0.001       32.256   0.100E-07
     Final TRS4 iteration    9 1.00000000   0.209E-07
     Chemical potential (mu):      -0.05333
 
 PAO| energy:  -7.6796656257599176      penalty:   2.2470182783239922E-008
 PAO|LS| adapt:  T T F
 PAO|LS| adapt: scan_steps:    0.0000000000000000       0.10000000000000001        0.0000000000000000     
 PAO|LS| adapt: energies:   -7.6241819461374902       -7.6796656257599176        0.0000000000000000     
 PAO| ======================= Iteration:         3 =============================

     Lanczos converged:  T threshold:   0.100E-02
     Est. extremal eigenvalues:    0.318E+01   0.137E+00
     Est. condition number :    0.232E+02

 Order=           3
     NS sqrt iter    1 1.00000000   0.786E+00       0.001       59.454
     NS sqrt iter    2 1.00000000   0.408E+00       0.001       98.880
     NS sqrt iter    3 1.00000000   0.136E+00       0.001       98.916
     NS sqrt iter    4 1.00000000   0.994E-02       0.001      100.489
     NS sqrt iter    5 1.00000000   0.615E-05       0.001       77.158
     Symmetrizing Results
     Final NS sqrt iter    5 1.00000000   0.587E-10

     Est. extremal eigenvalues     -0.92697     1.80688  converged:  T
     TRS4 it   1 1.00000000   0.882E+00       0.000       16.128   0.100E-07
     TRS4 it   2 1.00000000   0.662E+00       0.001       32.256   0.100E-07
     TRS4 it   3 1.00000000   0.471E+00       0.001       32.256   0.100E-07
     TRS4 it   4 1.00000000   0.275E+00       0.001       32.256   0.100E-07
     TRS4 it   5 1.00000000   0.119E+00       0.001       32.256   0.100E-07
     TRS4 it   6 1.00000000   0.285E-01       0.001       32.256   0.100E-07
     TRS4 it   7 1.00000000   0.233E-02       0.001       32.256   0.100E-07
     TRS4 it   8 1.00000000   0.217E-04       0.001       32.256   0.100E-07
     TRS4 it   9 1.00000000   0.209E-08       0.001       32.256   0.100E-07
     Final TRS4 iteration    9 1.00000000   0.209E-08
     Chemical potential (mu):      -0.04034
 
 PAO| energy:  -7.7227343570498874      penalty:   3.5952298794381129E-007
 PAO|LS| adapt:  T T F
 PAO|LS| adapt: scan_steps:    0.0000000000000000       0.20000000000000001        0.0000000000000000     
 PAO|LS| adapt: energies:   -7.6241819461374902       -7.7227343570498874        0.0000000000000000     
 PAO| ======================= Iteration:         4 =============================

     Lanczos converged:  T threshold:   0.100E-02
     Est. extremal eigenvalues:    0.299E+01   0.155E+00
     Est. condition number :    0.193E+02

 Order=           3
     NS sqrt iter    1 1.00000000   0.750E+00       0.001       59.115
     NS sqrt iter    2 1.00000000   0.374E+00       0.001       98.877
     NS sqrt iter    3 1.00000000   0.107E+00       0.001      100.706
     NS sqrt iter    4 1.00000000   0.490E-02       0.001      100.440
     NS sqrt iter    5 1.00000000   0.907E-06       0.001       76.932
     Symmetrizing Results
     Final NS sqrt iter    5 1.00000000   0.139E-11

     Est. extremal eigenvalues     -0.93231     1.74210  converged:  T
     TRS4 it   1 1.00000000   0.878E+00       0.000       16.128   0.100E-07
     TRS4 it   2 1.00000000   0.635E+00       0.001       32.256   0.100E-07
     TRS4 it   3 1.00000000   0.442E+00       0.001       32.256   0.100E-07
     TRS4 it   4 1.00000000   0.239E+00       0.001       32.256   0.100E-07
     TRS4 it   5 1.00000000   0.874E-01       0.001       32.256   0.100E-07
     TRS4 it   6 1.00000000   0.149E-01       0.001       32.256   0.100E-07
     TRS4 it   7 1.00000000   0.603E-03       0.001       32.256   0.100E-07
     TRS4 it   8 1.00000000   0.141E-05       0.001       32.256   0.100E-07
     TRS4 it   9 1.00000000   0.886E-11       0.001       32.256   0.100E-07
     Final TRS4 iteration    9 1.00000000   0.886E-11
     Chemical potential (mu):      -0.01165
 
 PAO| energy:  -7.7700011117359251      penalty:   5.7523683144098032E-006
 PAO|LS| Need extra step
 PAO|LS| adapt:  T T F
 PAO|LS| adapt: scan_steps:    0.0000000000000000       0.40000000000000002        0.0000000000000000     
 PAO|LS| adapt: energies:   -7.6241819461374902       -7.7700011117359251        0.0000000000000000     
 PAO| ======================= Iteration:         5 =============================

     Lanczos converged:  T threshold:   0.100E-02
     Est. extremal eigenvalues:    0.263E+01   0.182E+00
     Est. condition number :    0.144E+02

 Order=           3
     NS sqrt iter    1 1.00000000   0.687E+00       0.001       58.791
     NS sqrt iter    2 1.00000000   0.313E+00       0.001       99.971
     NS sqrt iter    3 1.00000000   0.660E-01       0.001      100.207
     NS sqrt iter    4 1.00000000   0.137E-02       0.001       98.501
     NS sqrt iter    5 1.00000000   0.254E-07       0.001       54.138
     Symmetrizing Results
     Final NS sqrt iter    5 1.00000000   0.383E-08

     Est. extremal eigenvalues     -0.93358     1.66763  converged:  T
     TRS4 it   1 1.00000000   0.872E+00       0.000       16.128   0.100E-07
     TRS4 it   2 1.00000000   0.598E+00       0.001       32.256   0.100E-07
     TRS4 it   3 1.00000000   0.394E+00       0.001       32.256   0.100E-07
     TRS4 it   4 1.00000000   0.182E+00       0.001       32.256   0.100E-07
     TRS4 it   5 1.00000000   0.474E-01       0.001       32.256   0.100E-07
     TRS4 it   6 1.00000000   0.396E-02       0.001       32.256   0.100E-07
     TRS4 it   7 1.00000000   0.358E-04       0.001       32.256   0.100E-07
     TRS4 it   8 1.00000000   0.372E-08       0.001       32.256   0.100E-07
     Final TRS4 iteration    8 1.00000000   0.372E-08
     Chemical potential (mu):       0.03746
 
 PAO| energy:  -7.7152784992491492      penalty:   9.2037897089077868E-005
 PAO|LS| Need extra step
 PAO|LS| adapt:  T T T
 PAO|LS| adapt: scan_steps:    0.0000000000000000       0.40000000000000002       0.80000000000000004     
 PAO|LS| adapt: energies:   -7.6241819461374902       -7.7700011117359251       -7.7152784992491492     
 PAO|LS| adapt: suggested step_size:   0.49085044919961945     
 PAO|LS| adapt: predicted energy  -7.7751737134676322     
 PAO| ======================= Iteration:         6 =============================

     Lanczos converged:  T threshold:   0.100E-02
     Est. extremal eigenvalues:    0.290E+01   0.162E+00
     Est. condition number :    0.179E+02

 Order=           3
     NS sqrt iter    1 1.00000000   0.733E+00       0.001       59.333
     NS sqrt iter    2 1.00000000   0.359E+00       0.001       99.552
     NS sqrt iter    3 1.00000000   0.952E-01       0.001      100.424
     NS sqrt iter    4 1.00000000   0.361E-02       0.001       98.953
     NS sqrt iter    5 1.00000000   0.399E-06       0.001       77.283
     Symmetrizing Results
     Final NS sqrt iter    5 1.00000000   0.179E-09

     Est. extremal eigenvalues     -0.93380     1.72015  converged:  T
     TRS4 it   1 1.00000000   0.876E+00       0.000       16.128   0.100E-07
     TRS4 it   2 1.00000000   0.625E+00       0.001       32.256   0.100E-07
     TRS4 it   3 1.00000000   0.430E+00       0.001       32.256   0.100E-07
     TRS4 it   4 1.00000000   0.224E+00       0.001       32.256   0.100E-07
     TRS4 it   5 1.00000000   0.757E-01       0.001       32.256   0.100E-07
     TRS4 it   6 1.00000000   0.109E-01       0.001       32.256   0.100E-07
     TRS4 it   7 1.00000000   0.307E-03       0.001       32.256   0.100E-07
     TRS4 it   8 1.00000000   0.349E-06       0.001       32.256   0.100E-07
     TRS4 it   9 1.00000000   0.537E-12       0.001       32.256   0.100E-07
     Final TRS4 iteration    9 1.00000000   0.537E-12
     Chemical potential (mu):       0.00226
 
 PAO| energy:  -7.7744563697668418      penalty:   1.3043780991500362E-005
 PAO|CG| warming up with steepest descent
 PAO|CG| beta:    0.0000000000000000     
 PAO| norm of gradient:  0.41779237885352094     
 PAO| energy improvement: -0.15027442362935162     
 PAO| step      6                   -7.774456370  0.261E-01  0.491E+00     0.092
 PAO|LS| adapt:  T F F
 PAO|LS| adapt: scan_steps:    0.0000000000000000        0.0000000000000000        0.0000000000000000     
 PAO|LS| adapt: energies:   -7.7744563697668418        0.0000000000000000        0.0000000000000000     
 PAO| ======================= Iteration:         7 =============================

     Lanczos converged:  T threshold:   0.100E-02
     Est. extremal eigenvalues:    0.281E+01   0.176E+00
     Est. condition number :    0.160E+02

 Order=           3
     NS sqrt iter    1 1.00000000   0.716E+00       0.001       58.136
     NS sqrt iter    2 1.00000000   0.338E+00       0.001       99.938
     NS sqrt iter    3 1.00000000   0.796E-01       0.001      100.617
     NS sqrt iter    4 1.00000000   0.220E-02       0.001      100.089
     NS sqrt iter    5 1.00000000   0.101E-06       0.001       71.428
     Symmetrizing Results
     Final NS sqrt iter    5 1.00000000   0.103E-08

     Est. extremal eigenvalues     -0.93553     1.70725  converged:  T
     TRS4 it   1 1.00000000   0.875E+00       0.000       16.128   0.100E-07
     TRS4 it   2 1.00000000   0.623E+00       0.001       32.256   0.100E-07
     TRS4 it   3 1.00000000   0.430E+00       0.001       32.256   0.100E-07
     TRS4 it   4 1.00000000   0.225E+00       0.001       32.256   0.100E-07
     TRS4 it   5 1.00000000   0.763E-01       0.001       32.256   0.100E-07
     TRS4 it   6 1.00000000   0.108E-01       0.001       32.256   0.100E-07
     TRS4 it   7 1.00000000   0.286E-03       0.001       32.256   0.100E-07
     TRS4 it   8 1.00000000   0.287E-06       0.001       32.256   0.100E-07
     TRS4 it   9 1.00000000   0.355E-12       0.001       32.256   0.100E-07
     Final TRS4 iteration    9 1.00000000   0.355E-12
     Chemical potential (mu):       0.00446
 
 PAO| energy:  -7.7685203209169140      penalty:   1.9786036618553411E-005
 PAO|LS| adapt:  T F T
 PAO|LS| adapt: scan_steps:    0.0000000000000000        0.0000000000000000       0.49085044919961945     
 PAO|LS| adapt: energies:   -7.7744563697668418        0.0000000000000000       -7.7685203209169140     
 PAO| ======================= Iteration:         8 =============================

     Lanczos converged:  T threshold:   0.100E-02
     Est. extremal eigenvalues:    0.286E+01   0.169E+00
     Est. condition number :    0.169E+02

 Order=           3
     NS sqrt iter    1 1.00000000   0.725E+00       0.001       59.552
     NS sqrt iter    2 1.00000000   0.349E+00       0.001      100.565
     NS sqrt iter    3 1.00000000   0.872E-01       0.001      100.081
     NS sqrt iter    4 1.00000000   0.284E-02       0.001       99.154
     NS sqrt iter    5 1.00000000   0.205E-06       0.001       74.597
     Symmetrizing Results
     Final NS sqrt iter    5 1.00000000   0.861E-09

     Est. extremal eigenvalues     -0.93561     1.71308  converged:  T
     TRS4 it   1 1.00000000   0.875E+00       0.000       16.128   0.100E-07
     TRS4 it   2 1.00000000   0.624E+00       0.001       32.256   0.100E-07
     TRS4 it   3 1.00000000   0.429E+00       0.001       32.256   0.100E-07
     TRS4 it   4 1.00000000   0.224E+00       0.001       32.256   0.100E-07
     TRS4 it   5 1.00000000   0.757E-01       0.001       32.256   0.100E-07
     TRS4 it   6 1.00000000   0.109E-01       0.001       32.256   0.100E-07
     TRS4 it   7 1.00000000   0.304E-03       0.001       32.256   0.100E-07
     TRS4 it   8 1.00000000   0.336E-06       0.001       32.256   0.100E-07
     TRS4 it   9 1.00000000   0.493E-12       0.001       32.256   0.100E-07
     Final TRS4 iteration    9 1.00000000   0.493E-12
     Chemical potential (mu):       0.00289
 
 PAO| energy:  -7.7941505061943612      penalty:   1.4152150956900832E-005
 PAO|LS| adapt:  T T T
 PAO|LS| adapt: scan_steps:    0.0000000000000000       0.24542522459980973       0.49085044919961945     
 PAO|LS| adapt: energies:   -7.7744563697668418       -7.7941505061943612       -7.7685203209169140     
 PAO|LS| adapt: suggested step_size:   0.22935376376568828     
 PAO|LS| adapt: predicted energy  -7.7942476854642964     
 PAO| ======================= Iteration:         9 =============================

     Lanczos converged:  T threshold:   0.100E-02
     Est. extremal eigenvalues:    0.286E+01   0.168E+00
     Est. condition number :    0.170E+02

 Order=           3
     NS sqrt iter    1 1.00000000   0.725E+00       0.001       58.814
     NS sqrt iter    2 1.00000000   0.349E+00       0.001       98.600
     NS sqrt iter    3 1.00000000   0.877E-01       0.001       99.671
     NS sqrt iter    4 1.00000000   0.288E-02       0.001       99.849
     NS sqrt iter    5 1.00000000   0.214E-06       0.001       75.051
     Symmetrizing Results
     Final NS sqrt iter    5 1.00000000   0.903E-09

     Est. extremal eigenvalues     -0.93555     1.71350  converged:  T
     TRS4 it   1 1.00000000   0.875E+00       0.000       16.128   0.100E-07
     TRS4 it   2 1.00000000   0.624E+00       0.001       32.256   0.100E-07
     TRS4 it   3 1.00000000   0.429E+00       0.001       32.256   0.100E-07
     TRS4 it   4 1.00000000   0.224E+00       0.001       32.256   0.100E-07
     TRS4 it   5 1.00000000   0.757E-01       0.001       32.256   0.100E-07
     TRS4 it   6 1.00000000   0.109E-01       0.001       32.256   0.100E-07
     TRS4 it   7 1.00000000   0.305E-03       0.001       32.256   0.100E-07
     TRS4 it   8 1.00000000   0.338E-06       0.001       32.256   0.100E-07
     TRS4 it   9 1.00000000   0.499E-12       0.001       32.256   0.100E-07
     Final TRS4 iteration    9 1.00000000   0.499E-12
     Chemical potential (mu):       0.00281
 
 PAO| energy:  -7.7942718129232533      penalty:   1.3979531549729514E-005
 PAO|CG| trace_G_new    3.6986074635107023E-002
 PAO|CG| trace_G_prev   0.17455047182808398     
 PAO|CG| trace_G_mix   -1.4535278051936986E-003
 PAO|CG| trace_D   0.17455047182808398     
 PAO|CG| trace_D_Gnew   1.4535278051936986E-003
 PAO|CG| beta:   0.22022055877431351     
 PAO| norm of gradient:  0.19231763994783999     
 PAO| energy improvement:  -1.9815443156411483E-002
 PAO| step      9                   -7.794271813  0.120E-01  0.229E+00     0.058
 PAO|LS| adapt:  T F F
 PAO|LS| adapt: scan_steps:    0.0000000000000000        0.0000000000000000        0.0000000000000000     
 PAO|LS| adapt: energies:   -7.7942718129232533        0.0000000000000000        0.0000000000000000     
 PAO| ======================= Iteration:        10 =============================

     Lanczos converged:  T threshold:   0.100E-02
     Est. extremal eigenvalues:    0.282E+01   0.174E+00
     Est. condition number :    0.162E+02

 Order=           3
     NS sqrt iter    1 1.00000000   0.718E+00       0.001       58.973
     NS sqrt iter    2 1.00000000   0.341E+00       0.001       99.852
     NS sqrt iter    3 1.00000000   0.821E-01       0.001       99.728
     NS sqrt iter    4 1.00000000   0.237E-02       0.001       99.759
     NS sqrt iter    5 1.00000000   0.119E-06       0.001       72.504
     Symmetrizing Results
     Final NS sqrt iter    5 1.00000000   0.124E-08

     Est. extremal eigenvalues     -0.93644     1.70875  converged:  T
     TRS4 it   1 1.00000000   0.873E+00       0.000       16.128   0.100E-07
     TRS4 it   2 1.00000000   0.622E+00       0.001       32.256   0.100E-07
     TRS4 it   3 1.00000000   0.427E+00       0.001       32.256   0.100E-07
     TRS4 it   4 1.00000000   0.221E+00       0.001       32.256   0.100E-07
     TRS4 it   5 1.00000000   0.737E-01       0.001       32.256   0.100E-07
     TRS4 it   6 1.00000000   0.103E-01       0.001       32.256   0.100E-07
     TRS4 it   7 1.00000000   0.265E-03       0.001       32.256   0.100E-07
     TRS4 it   8 1.00000000   0.249E-06       0.001       32.256   0.100E-07
     TRS4 it   9 1.00000000   0.269E-12       0.001       32.256   0.100E-07
     Final TRS4 iteration    9 1.00000000   0.269E-12
     Chemical potential (mu):       0.00603
 
 PAO| energy:  -7.7993292950921003      penalty:   1.4523239567830708E-005
 PAO|LS| adapt:  T T F
 PAO|LS| adapt: scan_steps:    0.0000000000000000       0.22935376376568828        0.0000000000000000     
 PAO|LS| adapt: energies:   -7.7942718129232533       -7.7993292950921003        0.0000000000000000     
 PAO| ======================= Iteration:        11 =============================

     Lanczos converged:  T threshold:   0.100E-02
     Est. extremal eigenvalues:    0.278E+01   0.180E+00
     Est. condition number :    0.155E+02

 Order=           3
     NS sqrt iter    1 1.00000000   0.710E+00       0.001       59.524
     NS sqrt iter    2 1.00000000   0.333E+00       0.001       99.062
     NS sqrt iter    3 1.00000000   0.767E-01       0.001      100.271
     NS sqrt iter    4 1.00000000   0.194E-02       0.001       99.732
     NS sqrt iter    5 1.00000000   0.655E-07       0.001       68.242
     Symmetrizing Results
     Final NS sqrt iter    5 1.00000000   0.640E-09

     Est. extremal eigenvalues     -0.93636     1.70532  converged:  T
     TRS4 it   1 1.00000000   0.872E+00       0.000       16.128   0.100E-07
     TRS4 it   2 1.00000000   0.621E+00       0.001       32.256   0.100E-07
     TRS4 it   3 1.00000000   0.425E+00       0.001       32.256   0.100E-07
     TRS4 it   4 1.00000000   0.219E+00       0.001       32.256   0.100E-07
     TRS4 it   5 1.00000000   0.717E-01       0.001       32.256   0.100E-07
     TRS4 it   6 1.00000000   0.965E-02       0.001       32.256   0.100E-07
     TRS4 it   7 1.00000000   0.230E-03       0.001       32.256   0.100E-07
     TRS4 it   8 1.00000000   0.182E-06       0.001       32.256   0.100E-07
     TRS4 it   9 1.00000000   0.140E-12       0.001       32.256   0.100E-07
     Final TRS4 iteration    9 1.00000000   0.140E-12
     Chemical potential (mu):       0.00936
 
 PAO| energy:  -7.7979262993908325      penalty:   1.5740252997563866E-005
 PAO|LS| adapt:  T T T
 PAO|LS| adapt: scan_steps:    0.0000000000000000       0.22935376376568828       0.45870752753137656     
 PAO|LS| adapt: energies:   -7.7942718129232533       -7.7993292950921003       -7.7979262993908325     
 PAO|LS| adapt: suggested step_size:   0.29422282166056268     
 PAO|LS| adapt: predicted energy  -7.7995876984101331     
 PAO| ======================= Iteration:        12 =============================

     Lanczos converged:  T threshold:   0.100E-02
     Est. extremal eigenvalues:    0.281E+01   0.176E+00
     Est. condition number :    0.160E+02

 Order=           3
     NS sqrt iter    1 1.00000000   0.715E+00       0.001       57.309
     NS sqrt iter    2 1.00000000   0.339E+00       0.001      100.435
     NS sqrt iter    3 1.00000000   0.806E-01       0.001      100.480
     NS sqrt iter    4 1.00000000   0.224E-02       0.001       99.418
     NS sqrt iter    5 1.00000000   0.101E-06       0.001       70.923
     Symmetrizing Results
     Final NS sqrt iter    5 1.00000000   0.101E-08

     Est. extremal eigenvalues     -0.93652     1.70765  converged:  T
     TRS4 it   1 1.00000000   0.873E+00       0.000       16.128   0.100E-07
     TRS4 it   2 1.00000000   0.621E+00       0.001       32.256   0.100E-07
     TRS4 it   3 1.00000000   0.427E+00       0.001       32.256   0.100E-07
     TRS4 it   4 1.00000000   0.220E+00       0.001       32.256   0.100E-07
     TRS4 it   5 1.00000000   0.731E-01       0.001       32.256   0.100E-07
     TRS4 it   6 1.00000000   0.101E-01       0.001       32.256   0.100E-07
     TRS4 it   7 1.00000000   0.255E-03       0.001       32.256   0.100E-07
     TRS4 it   8 1.00000000   0.228E-06       0.001       32.256   0.100E-07
     TRS4 it   9 1.00000000   0.224E-12       0.001       32.256   0.100E-07
     Final TRS4 iteration    9 1.00000000   0.224E-12
     Chemical potential (mu):       0.00696
 
 PAO| energy:  -7.7995714371308686      penalty:   1.4791437010408085E-005
 PAO|CG| trace_G_new    1.1869686117057006E-002
 PAO|CG| trace_G_prev    3.6986074635107023E-002
 PAO|CG| trace_G_mix   -4.5799216862459535E-004
 PAO|CG| trace_D    4.4811071952665010E-002
 PAO|CG| trace_D_Gnew   2.0826365971173748E-004
 PAO|CG| beta:   0.33330593763470706     
 PAO| norm of gradient:  0.10894808909318697     
 PAO| energy improvement:  -5.2996242076153166E-003
 PAO| step     12                   -7.799571437  0.681E-02  0.294E+00     0.058
 PAO|LS| adapt:  T F F
 PAO|LS| adapt: scan_steps:    0.0000000000000000        0.0000000000000000        0.0000000000000000     
 PAO|LS| adapt: energies:   -7.7995714371308686        0.0000000000000000        0.0000000000000000     
 PAO| ======================= Iteration:        13 =============================

     Lanczos converged:  T threshold:   0.100E-02
     Est. extremal eigenvalues:    0.278E+01   0.180E+00
     Est. condition number :    0.154E+02

 Order=           3
     NS sqrt iter    1 1.00000000   0.708E+00       0.001       59.097
     NS sqrt iter    2 1.00000000   0.332E+00       0.001       99.653
     NS sqrt iter    3 1.00000000   0.762E-01       0.001       99.513
     NS sqrt iter    4 1.00000000   0.191E-02       0.001       99.638
     NS sqrt iter    5 1.00000000   0.633E-07       0.001       68.296
     Symmetrizing Results
     Final NS sqrt iter    5 1.00000000   0.631E-09

     Est. extremal eigenvalues     -0.93700     1.70121  converged:  T
     TRS4 it   1 1.00000000   0.872E+00       0.000       16.128   0.100E-07
     TRS4 it   2 1.00000000   0.618E+00       0.001       32.256   0.100E-07
     TRS4 it   3 1.00000000   0.423E+00       0.001       32.256   0.100E-07
     TRS4 it   4 1.00000000   0.215E+00       0.001       32.256   0.100E-07
     TRS4 it   5 1.00000000   0.696E-01       0.001       32.256   0.100E-07
     TRS4 it   6 1.00000000   0.907E-02       0.001       32.256   0.100E-07
     TRS4 it   7 1.00000000   0.203E-03       0.001       32.256   0.100E-07
     TRS4 it   8 1.00000000   0.141E-06       0.001       32.256   0.100E-07
     TRS4 it   9 1.00000000   0.842E-13       0.001       32.256   0.100E-07
     Final TRS4 iteration    9 1.00000000   0.842E-13
     Chemical potential (mu):       0.01157
 
 PAO| energy:  -7.8016489638809894      penalty:   1.5105214060329185E-005
 PAO|LS| adapt:  T T F
 PAO|LS| adapt: scan_steps:    0.0000000000000000       0.29422282166056268        0.0000000000000000     
 PAO|LS| adapt: energies:   -7.7995714371308686       -7.8016489638809894        0.0000000000000000     
 PAO| ======================= Iteration:        14 =============================

     Lanczos converged:  T threshold:   0.100E-02
     Est. extremal eigenvalues:    0.274E+01   0.184E+00
     Est. condition number :    0.149E+02

 Order=           3
     NS sqrt iter    1 1.00000000   0.701E+00       0.001       59.241
     NS sqrt iter    2 1.00000000   0.325E+00       0.001      100.205
     NS sqrt iter    3 1.00000000   0.721E-01       0.001      100.360
     NS sqrt iter    4 1.00000000   0.163E-02       0.001       96.635
     NS sqrt iter    5 1.00000000   0.396E-07       0.001       64.061
     Symmetrizing Results
     Final NS sqrt iter    5 1.00000000   0.348E-09

     Est. extremal eigenvalues     -0.93698     1.69510  converged:  T
     TRS4 it   1 1.00000000   0.872E+00       0.000       16.128   0.100E-07
     TRS4 it   2 1.00000000   0.616E+00       0.001       32.256   0.100E-07
     TRS4 it   3 1.00000000   0.419E+00       0.001       32.256   0.100E-07
     TRS4 it   4 1.00000000   0.211E+00       0.001       32.256   0.100E-07
     TRS4 it   5 1.00000000   0.662E-01       0.001       32.256   0.100E-07
     TRS4 it   6 1.00000000   0.816E-02       0.001       32.256   0.100E-07
     TRS4 it   7 1.00000000   0.162E-03       0.001       32.256   0.100E-07
     TRS4 it   8 1.00000000   0.871E-07       0.001       32.256   0.100E-07
     TRS4 it   9 1.00000000   0.308E-13       0.001       32.256   0.100E-07
     Final TRS4 iteration    9 1.00000000   0.308E-13
     Chemical potential (mu):       0.01608
 
 PAO| energy:  -7.8009879763561409      penalty:   1.5904126162044809E-005
 PAO|LS| adapt:  T T T
 PAO|LS| adapt: scan_steps:    0.0000000000000000       0.29422282166056268       0.58844564332112537     
 PAO|LS| adapt: energies:   -7.7995714371308686       -7.8016489638809894       -7.8009879763561409     
 PAO|LS| adapt: suggested step_size:   0.37031849362071195     
 PAO|LS| adapt: predicted energy  -7.8017405547572487     
 PAO| ======================= Iteration:        15 =============================

     Lanczos converged:  T threshold:   0.100E-02
     Est. extremal eigenvalues:    0.277E+01   0.181E+00
     Est. condition number :    0.153E+02

 Order=           3
     NS sqrt iter    1 1.00000000   0.707E+00       0.001       58.697
     NS sqrt iter    2 1.00000000   0.330E+00       0.001      100.342
     NS sqrt iter    3 1.00000000   0.751E-01       0.001       99.322
     NS sqrt iter    4 1.00000000   0.183E-02       0.001       99.382
     NS sqrt iter    5 1.00000000   0.561E-07       0.001       67.453
     Symmetrizing Results
     Final NS sqrt iter    5 1.00000000   0.570E-09

     Est. extremal eigenvalues     -0.93705     1.69960  converged:  T
     TRS4 it   1 1.00000000   0.872E+00       0.000       16.128   0.100E-07
     TRS4 it   2 1.00000000   0.618E+00       0.001       32.256   0.100E-07
     TRS4 it   3 1.00000000   0.422E+00       0.001       32.256   0.100E-07
     TRS4 it   4 1.00000000   0.214E+00       0.001       32.256   0.100E-07
     TRS4 it   5 1.00000000   0.687E-01       0.001       32.256   0.100E-07
     TRS4 it   6 1.00000000   0.882E-02       0.001       32.256   0.100E-07
     TRS4 it   7 1.00000000   0.191E-03       0.001       32.256   0.100E-07
     TRS4 it   8 1.00000000   0.124E-06       0.001       32.256   0.100E-07
     TRS4 it   9 1.00000000   0.649E-13       0.001       32.256   0.100E-07
     Final TRS4 iteration    9 1.00000000   0.649E-13
     Chemical potential (mu):       0.01275
 
 PAO| energy:  -7.8017374944229463      penalty:   1.5262266665748447E-005
 PAO|CG| trace_G_new    2.6242130886438772E-003
 PAO|CG| trace_G_prev    1.1869686117057006E-002
 PAO|CG| trace_G_mix    6.4513236677903035E-005
 PAO|CG| trace_D    1.6709044696263553E-002
 PAO|CG| trace_D_Gnew   3.4513390203080960E-005
 PAO|CG| beta:   0.21565017193568650     
 PAO| norm of gradient:   5.1227073785683655E-002
 PAO| energy improvement:  -2.1660572920776389E-003
 PAO| step     15                   -7.801737494  0.320E-02  0.370E+00     0.058
 PAO|LS| adapt:  T F F
 PAO|LS| adapt: scan_steps:    0.0000000000000000        0.0000000000000000        0.0000000000000000     
 PAO|LS| adapt: energies:   -7.8017374944229463        0.0000000000000000        0.0000000000000000     
 PAO| ======================= Iteration:        16 =============================

     Lanczos converged:  T threshold:   0.100E-02
     Est. extremal eigenvalues:    0.276E+01   0.181E+00
     Est. condition number :    0.152E+02

 Order=           3
     NS sqrt iter    1 1.00000000   0.705E+00       0.001       59.267
     NS sqrt iter    2 1.00000000   0.329E+00       0.001       99.983
     NS sqrt iter    3 1.00000000   0.745E-01       0.001      100.228
     NS sqrt iter    4 1.00000000   0.178E-02       0.001      100.027
     NS sqrt iter    5 1.00000000   0.512E-07       0.001       67.184
     Symmetrizing Results
     Final NS sqrt iter    5 1.00000000   0.535E-09

     Est. extremal eigenvalues     -0.93707     1.69920  converged:  T
     TRS4 it   1 1.00000000   0.873E+00       0.000       16.128   0.100E-07
     TRS4 it   2 1.00000000   0.617E+00       0.001       32.256   0.100E-07
     TRS4 it   3 1.00000000   0.420E+00       0.001       32.256   0.100E-07
     TRS4 it   4 1.00000000   0.213E+00       0.001       32.256   0.100E-07
     TRS4 it   5 1.00000000   0.675E-01       0.001       32.256   0.100E-07
     TRS4 it   6 1.00000000   0.854E-02       0.001       32.256   0.100E-07
     TRS4 it   7 1.00000000   0.180E-03       0.001       32.256   0.100E-07
     TRS4 it   8 1.00000000   0.112E-06       0.001       32.256   0.100E-07
     TRS4 it   9 1.00000000   0.521E-13       0.001       32.256   0.100E-07
     Final TRS4 iteration    9 1.00000000   0.521E-13
     Chemical potential (mu):       0.01359
 
 PAO| energy:  -7.8018642971682830      penalty:   1.5044617880761675E-005
 PAO|LS| adapt:  T T F
 PAO|LS| adapt: scan_steps:    0.0000000000000000       0.37031849362071195        0.0000000000000000     
 PAO|LS| adapt: energies:   -7.8017374944229463       -7.8018642971682830        0.0000000000000000     
 PAO| ======================= Iteration:        17 =============================

     Lanczos converged:  T threshold:   0.100E-02
     Est. extremal eigenvalues:    0.275E+01   0.182E+00
     Est. condition number :    0.151E+02

 Order=           3
     NS sqrt iter    1 1.00000000   0.703E+00       0.001       59.292
     NS sqrt iter    2 1.00000000   0.327E+00       0.001      101.157
     NS sqrt iter    3 1.00000000   0.738E-01       0.001       99.987
     NS sqrt iter    4 1.00000000   0.173E-02       0.001      101.129
     NS sqrt iter    5 1.00000000   0.468E-07       0.001       66.261
     Symmetrizing Results
     Final NS sqrt iter    5 1.00000000   0.400E-09

     Est. extremal eigenvalues     -0.93698     1.69887  converged:  T
     TRS4 it   1 1.00000000   0.873E+00       0.000       16.128   0.100E-07
     TRS4 it   2 1.00000000   0.616E+00       0.001       32.256   0.100E-07
     TRS4 it   3 1.00000000   0.419E+00       0.001       32.256   0.100E-07
     TRS4 it   4 1.00000000   0.211E+00       0.001       32.256   0.100E-07
     TRS4 it   5 1.00000000   0.665E-01       0.001       32.256   0.100E-07
     TRS4 it   6 1.00000000   0.828E-02       0.001       32.256   0.100E-07
     TRS4 it   7 1.00000000   0.170E-03       0.001       32.256   0.100E-07
     TRS4 it   8 1.00000000   0.100E-06       0.001       32.256   0.100E-07
     TRS4 it   9 1.00000000   0.426E-13       0.001       32.256   0.100E-07
     Final TRS4 iteration    9 1.00000000   0.426E-13
     Chemical potential (mu):       0.01441
 
 PAO| energy:  -7.8003008887215657      penalty:   1.4952804140948962E-005
 PAO|LS| adapt:  T T T
 PAO|LS| adapt: scan_steps:    0.0000000000000000       0.37031849362071195       0.74063698724142391     
 PAO|LS| adapt: energies:   -7.8017374944229463       -7.8018642971682830       -7.8003008887215657     
 PAO|LS| adapt: suggested step_size:   0.21294121977374589     
 PAO|LS| adapt: predicted energy  -7.8020169286819465     
 PAO| ======================= Iteration:        18 =============================

     Lanczos converged:  T threshold:   0.100E-02
     Est. extremal eigenvalues:    0.276E+01   0.181E+00
     Est. condition number :    0.152E+02

 Order=           3
     NS sqrt iter    1 1.00000000   0.705E+00       0.001       59.156
     NS sqrt iter    2 1.00000000   0.329E+00       0.001       99.809
     NS sqrt iter    3 1.00000000   0.747E-01       0.001      100.168
     NS sqrt iter    4 1.00000000   0.180E-02       0.001      100.294
     NS sqrt iter    5 1.00000000   0.532E-07       0.001       65.942
     Symmetrizing Results
     Final NS sqrt iter    5 1.00000000   0.547E-09

     Est. extremal eigenvalues     -0.93708     1.69936  converged:  T
     TRS4 it   1 1.00000000   0.872E+00       0.000       16.128   0.100E-07
     TRS4 it   2 1.00000000   0.617E+00       0.001       32.256   0.100E-07
     TRS4 it   3 1.00000000   0.421E+00       0.001       32.256   0.100E-07
     TRS4 it   4 1.00000000   0.213E+00       0.001       32.256   0.100E-07
     TRS4 it   5 1.00000000   0.680E-01       0.001       32.256   0.100E-07
     TRS4 it   6 1.00000000   0.866E-02       0.001       32.256   0.100E-07
     TRS4 it   7 1.00000000   0.185E-03       0.001       32.256   0.100E-07
     TRS4 it   8 1.00000000   0.117E-06       0.001       32.256   0.100E-07
     TRS4 it   9 1.00000000   0.585E-13       0.001       32.256   0.100E-07
     Final TRS4 iteration    9 1.00000000   0.585E-13
     Chemical potential (mu):       0.01324
 
 PAO| energy:  -7.8020164563971246      penalty:   1.5122011035469613E-005
 PAO|CG| trace_G_new    7.3208256403505662E-004
 PAO|CG| trace_G_prev    2.6242130886438772E-003
 PAO|CG| trace_G_mix    1.7690781037533189E-006
 PAO|CG| trace_D    3.3863815193039934E-003
 PAO|CG| trace_D_Gnew  -1.7979791920919457E-006
 PAO|CG| beta:   0.27829808832662661     
 PAO| norm of gradient:   2.7057024301187605E-002
 PAO| energy improvement:  -2.7896197417831559E-004
 PAO| step     18                   -7.802016456  0.169E-02  0.213E+00     0.057
 PAO|LS| adapt:  T F F
 PAO|LS| adapt: scan_steps:    0.0000000000000000        0.0000000000000000        0.0000000000000000     
 PAO|LS| adapt: energies:   -7.8020164563971246        0.0000000000000000        0.0000000000000000     
 PAO| ======================= Iteration:        19 =============================

     Lanczos converged:  T threshold:   0.100E-02
     Est. extremal eigenvalues:    0.276E+01   0.181E+00
     Est. condition number :    0.153E+02

 Order=           3
     NS sqrt iter    1 1.00000000   0.705E+00       0.001       59.237
     NS sqrt iter    2 1.00000000   0.329E+00       0.001       99.541
     NS sqrt iter    3 1.00000000   0.750E-01       0.001       98.948
     NS sqrt iter    4 1.00000000   0.181E-02       0.001       99.856
     NS sqrt iter    5 1.00000000   0.537E-07       0.001       67.352
     Symmetrizing Results
     Final NS sqrt iter    5 1.00000000   0.560E-09

     Est. extremal eigenvalues     -0.93708     1.69959  converged:  T
     TRS4 it   1 1.00000000   0.873E+00       0.000       16.128   0.100E-07
     TRS4 it   2 1.00000000   0.617E+00       0.001       32.256   0.100E-07
     TRS4 it   3 1.00000000   0.421E+00       0.001       32.256   0.100E-07
     TRS4 it   4 1.00000000   0.213E+00       0.001       32.256   0.100E-07
     TRS4 it   5 1.00000000   0.679E-01       0.001       32.256   0.100E-07
     TRS4 it   6 1.00000000   0.865E-02       0.001       32.256   0.100E-07
     TRS4 it   7 1.00000000   0.186E-03       0.001       32.256   0.100E-07
     TRS4 it   8 1.00000000   0.119E-06       0.001       32.256   0.100E-07
     TRS4 it   9 1.00000000   0.593E-13       0.001       32.256   0.100E-07
     Final TRS4 iteration    9 1.00000000   0.593E-13
     Chemical potential (mu):       0.01296
 
 PAO| energy:  -7.8021353784928094      penalty:   1.4832156232145761E-005
 PAO|LS| adapt:  T T F
 PAO|LS| adapt: scan_steps:    0.0000000000000000       0.21294121977374589        0.0000000000000000     
 PAO|LS| adapt: energies:   -7.8020164563971246       -7.8021353784928094        0.0000000000000000     
 PAO| ======================= Iteration:        20 =============================

     Lanczos converged:  T threshold:   0.100E-02
     Est. extremal eigenvalues:    0.276E+01   0.181E+00
     Est. condition number :    0.153E+02

 Order=           3
     NS sqrt iter    1 1.00000000   0.705E+00       0.001       59.540
     NS sqrt iter    2 1.00000000   0.330E+00       0.001       99.846
     NS sqrt iter    3 1.00000000   0.752E-01       0.001      100.515
     NS sqrt iter    4 1.00000000   0.182E-02       0.001       99.936
     NS sqrt iter    5 1.00000000   0.543E-07       0.001       64.509
     Symmetrizing Results
     Final NS sqrt iter    5 1.00000000   0.571E-09

     Est. extremal eigenvalues     -0.93707     1.69983  converged:  T
     TRS4 it   1 1.00000000   0.873E+00       0.000       16.128   0.100E-07
     TRS4 it   2 1.00000000   0.617E+00       0.001       32.256   0.100E-07
     TRS4 it   3 1.00000000   0.421E+00       0.001       32.256   0.100E-07
     TRS4 it   4 1.00000000   0.213E+00       0.001       32.256   0.100E-07
     TRS4 it   5 1.00000000   0.678E-01       0.001       32.256   0.100E-07
     TRS4 it   6 1.00000000   0.864E-02       0.001       32.256   0.100E-07
     TRS4 it   7 1.00000000   0.186E-03       0.001       32.256   0.100E-07
     TRS4 it   8 1.00000000   0.120E-06       0.001       32.256   0.100E-07
     TRS4 it   9 1.00000000   0.617E-13       0.001       32.256   0.100E-07
     Final TRS4 iteration    9 1.00000000   0.617E-13
     Chemical potential (mu):       0.01268
 
 PAO| energy:  -7.8021797491266929      penalty:   1.4554831021504784E-005
 PAO|LS| adapt:  T T F
 PAO|LS| adapt: scan_steps:    0.0000000000000000       0.42588243954749178        0.0000000000000000     
 PAO|LS| adapt: energies:   -7.8020164563971246       -7.8021797491266929        0.0000000000000000     
 PAO| ======================= Iteration:        21 =============================

     Lanczos converged:  T threshold:   0.100E-02
     Est. extremal eigenvalues:    0.276E+01   0.181E+00
     Est. condition number :    0.153E+02

 Order=           3
     NS sqrt iter    1 1.00000000   0.705E+00       0.001       59.150
     NS sqrt iter    2 1.00000000   0.330E+00       0.001      100.294
     NS sqrt iter    3 1.00000000   0.756E-01       0.001      100.418
     NS sqrt iter    4 1.00000000   0.184E-02       0.001       98.945
     NS sqrt iter    5 1.00000000   0.555E-07       0.001       67.146
     Symmetrizing Results
     Final NS sqrt iter    5 1.00000000   0.558E-09

     Est. extremal eigenvalues     -0.93707     1.70031  converged:  T
     TRS4 it   1 1.00000000   0.873E+00       0.000       16.128   0.100E-07
     TRS4 it   2 1.00000000   0.617E+00       0.001       32.256   0.100E-07
     TRS4 it   3 1.00000000   0.420E+00       0.001       32.256   0.100E-07
     TRS4 it   4 1.00000000   0.213E+00       0.001       32.256   0.100E-07
     TRS4 it   5 1.00000000   0.676E-01       0.001       32.256   0.100E-07
     TRS4 it   6 1.00000000   0.862E-02       0.001       32.256   0.100E-07
     TRS4 it   7 1.00000000   0.187E-03       0.001       32.256   0.100E-07
     TRS4 it   8 1.00000000   0.124E-06       0.001       32.256   0.100E-07
     TRS4 it   9 1.00000000   0.661E-13       0.001       32.256   0.100E-07
     Final TRS4 iteration    9 1.00000000   0.661E-13
     Chemical potential (mu):       0.01212
 
 PAO| energy:  -7.8020423915351556      penalty:   1.4037193526484564E-005
 PAO|LS| Need extra step
 PAO|LS| adapt:  T T T
 PAO|LS| adapt: scan_steps:    0.0000000000000000       0.42588243954749178       0.85176487909498355     
 PAO|LS| adapt: energies:   -7.8020164563971246       -7.8021797491266929       -7.8020423915351556     
 PAO|LS| adapt: suggested step_size:   0.44425148670833520     
 PAO|LS| adapt: predicted energy  -7.8021800287835470     
 PAO| ======================= Iteration:        22 =============================

     Lanczos converged:  T threshold:   0.100E-02
     Est. extremal eigenvalues:    0.276E+01   0.181E+00
     Est. condition number :    0.153E+02

 Order=           3
     NS sqrt iter    1 1.00000000   0.705E+00       0.001       59.112
     NS sqrt iter    2 1.00000000   0.330E+00       0.001      100.411
     NS sqrt iter    3 1.00000000   0.752E-01       0.001       98.916
     NS sqrt iter    4 1.00000000   0.182E-02       0.001       99.755
     NS sqrt iter    5 1.00000000   0.543E-07       0.001       66.697
     Symmetrizing Results
     Final NS sqrt iter    5 1.00000000   0.572E-09

     Est. extremal eigenvalues     -0.93707     1.69985  converged:  T
     TRS4 it   1 1.00000000   0.873E+00       0.000       16.128   0.100E-07
     TRS4 it   2 1.00000000   0.617E+00       0.001       32.256   0.100E-07
     TRS4 it   3 1.00000000   0.421E+00       0.001       32.256   0.100E-07
     TRS4 it   4 1.00000000   0.213E+00       0.001       32.256   0.100E-07
     TRS4 it   5 1.00000000   0.678E-01       0.001       32.256   0.100E-07
     TRS4 it   6 1.00000000   0.864E-02       0.001       32.256   0.100E-07
     TRS4 it   7 1.00000000   0.186E-03       0.001       32.256   0.100E-07
     TRS4 it   8 1.00000000   0.120E-06       0.001       32.256   0.100E-07
     TRS4 it   9 1.00000000   0.616E-13       0.001       32.256   0.100E-07
     Final TRS4 iteration    9 1.00000000   0.616E-13
     Chemical potential (mu):       0.01265
 
 PAO| energy:  -7.8021800638557375      penalty:   1.4531489255852864E-005
 PAO|CG| trace_G_new    2.2529947245592642E-004
 PAO|CG| trace_G_prev    7.3208256403505662E-004
 PAO|CG| trace_G_mix    3.0732462702255928E-006
 PAO|CG| trace_D    9.9535797170451296E-004
 PAO|CG| trace_D_Gnew  -1.9026764408821421E-006
 PAO|CG| beta:   0.30355350216353366     
 PAO| norm of gradient:   1.5009979095785790E-002
 PAO| energy improvement:  -1.6360745861287995E-004
 PAO| step     22                   -7.802180064  0.938E-03  0.444E+00     0.075
 PAO|LS| adapt:  T F F
 PAO|LS| adapt: scan_steps:    0.0000000000000000        0.0000000000000000        0.0000000000000000     
 PAO|LS| adapt: energies:   -7.8021800638557375        0.0000000000000000        0.0000000000000000     
 PAO| ======================= Iteration:        23 =============================

     Lanczos converged:  T threshold:   0.100E-02
     Est. extremal eigenvalues:    0.276E+01   0.181E+00
     Est. condition number :    0.153E+02

 Order=           3
     NS sqrt iter    1 1.00000000   0.705E+00       0.001       59.372
     NS sqrt iter    2 1.00000000   0.330E+00       0.001       99.724
     NS sqrt iter    3 1.00000000   0.752E-01       0.001      100.914
     NS sqrt iter    4 1.00000000   0.182E-02       0.001       99.734
     NS sqrt iter    5 1.00000000   0.543E-07       0.001       67.007
     Symmetrizing Results
     Final NS sqrt iter    5 1.00000000   0.575E-09

     Est. extremal eigenvalues     -0.93707     1.69953  converged:  T
     TRS4 it   1 1.00000000   0.872E+00       0.000       16.128   0.100E-07
     TRS4 it   2 1.00000000   0.617E+00       0.001       32.256   0.100E-07
     TRS4 it   3 1.00000000   0.421E+00       0.001       32.256   0.100E-07
     TRS4 it   4 1.00000000   0.213E+00       0.001       32.256   0.100E-07
     TRS4 it   5 1.00000000   0.679E-01       0.001       32.256   0.100E-07
     TRS4 it   6 1.00000000   0.867E-02       0.001       32.256   0.100E-07
     TRS4 it   7 1.00000000   0.188E-03       0.001       32.256   0.100E-07
     TRS4 it   8 1.00000000   0.123E-06       0.001       32.256   0.100E-07
     TRS4 it   9 1.00000000   0.655E-13       0.001       32.256   0.100E-07
     Final TRS4 iteration    9 1.00000000   0.655E-13
     Chemical potential (mu):       0.01235
 
 PAO| energy:  -7.8022300748693407      penalty:   1.3848283125395296E-005
 PAO|LS| adapt:  T T F
 PAO|LS| adapt: scan_steps:    0.0000000000000000       0.44425148670833520        0.0000000000000000     
 PAO|LS| adapt: energies:   -7.8021800638557375       -7.8022300748693407        0.0000000000000000     
 PAO| ======================= Iteration:        24 =============================

     Lanczos converged:  T threshold:   0.100E-02
     Est. extremal eigenvalues:    0.276E+01   0.181E+00
     Est. condition number :    0.153E+02

 Order=           3
     NS sqrt iter    1 1.00000000   0.705E+00       0.001       59.558
     NS sqrt iter    2 1.00000000   0.330E+00       0.001      100.475
     NS sqrt iter    3 1.00000000   0.753E-01       0.001       99.164
     NS sqrt iter    4 1.00000000   0.183E-02       0.001      100.099
     NS sqrt iter    5 1.00000000   0.543E-07       0.001       67.083
     Symmetrizing Results
     Final NS sqrt iter    5 1.00000000   0.578E-09

     Est. extremal eigenvalues     -0.93707     1.69921  converged:  T
     TRS4 it   1 1.00000000   0.872E+00       0.000       16.128   0.100E-07
     TRS4 it   2 1.00000000   0.617E+00       0.001       32.256   0.100E-07
     TRS4 it   3 1.00000000   0.421E+00       0.001       32.256   0.100E-07
     TRS4 it   4 1.00000000   0.213E+00       0.001       32.256   0.100E-07
     TRS4 it   5 1.00000000   0.680E-01       0.001       32.256   0.100E-07
     TRS4 it   6 1.00000000   0.871E-02       0.001       32.256   0.100E-07
     TRS4 it   7 1.00000000   0.190E-03       0.001       32.256   0.100E-07
     TRS4 it   8 1.00000000   0.126E-06       0.001       32.256   0.100E-07
     TRS4 it   9 1.00000000   0.686E-13       0.001       32.256   0.100E-07
     Final TRS4 iteration    9 1.00000000   0.686E-13
     Chemical potential (mu):       0.01204
 
 PAO| energy:  -7.8021787656633306      penalty:   1.3193618162044004E-005
 PAO|LS| adapt:  T T T
 PAO|LS| adapt: scan_steps:    0.0000000000000000       0.44425148670833520       0.88850297341667039     
 PAO|LS| adapt: energies:   -7.8021800638557375       -7.8022300748693407       -7.8021787656633306     
 PAO|LS| adapt: suggested step_size:   0.44140544122500364     
 PAO|LS| adapt: predicted energy  -7.8022300769485202     
 PAO| ======================= Iteration:        25 =============================

     Lanczos converged:  T threshold:   0.100E-02
     Est. extremal eigenvalues:    0.276E+01   0.181E+00
     Est. condition number :    0.153E+02

 Order=           3
     NS sqrt iter    1 1.00000000   0.705E+00       0.001       58.541
     NS sqrt iter    2 1.00000000   0.330E+00       0.001       99.423
     NS sqrt iter    3 1.00000000   0.752E-01       0.001       99.852
     NS sqrt iter    4 1.00000000   0.182E-02       0.001       99.928
     NS sqrt iter    5 1.00000000   0.543E-07       0.001       66.334
     Symmetrizing Results
     Final NS sqrt iter    5 1.00000000   0.575E-09

     Est. extremal eigenvalues     -0.93707     1.69953  converged:  T
     TRS4 it   1 1.00000000   0.872E+00       0.000       16.128   0.100E-07
     TRS4 it   2 1.00000000   0.617E+00       0.001       32.256   0.100E-07
     TRS4 it   3 1.00000000   0.421E+00       0.001       32.256   0.100E-07
     TRS4 it   4 1.00000000   0.213E+00       0.001       32.256   0.100E-07
     TRS4 it   5 1.00000000   0.679E-01       0.001       32.256   0.100E-07
     TRS4 it   6 1.00000000   0.867E-02       0.001       32.256   0.100E-07
     TRS4 it   7 1.00000000   0.188E-03       0.001       32.256   0.100E-07
     TRS4 it   8 1.00000000   0.123E-06       0.001       32.256   0.100E-07
     TRS4 it   9 1.00000000   0.643E-13       0.001       32.256   0.100E-07
     Final TRS4 iteration    9 1.00000000   0.643E-13
     Chemical potential (mu):       0.01235
 
 PAO| energy:  -7.8022300759076479      penalty:   1.3852568512460299E-005
 PAO|CG| trace_G_new    8.1311827204883958E-005
 PAO|CG| trace_G_prev    2.2529947245592642E-004
 PAO|CG| trace_G_mix    7.2726192888066499E-007
 PAO|CG| trace_D    3.1817159088810772E-004
 PAO|CG| trace_D_Gnew  -3.6570732006326916E-007
 PAO|CG| beta:   0.35767755866258155     
 PAO| norm of gradient:   9.0173070927458132E-003
 PAO| energy improvement:  -5.0012051910464095E-005
 PAO| step     25                   -7.802230076  0.564E-03  0.441E+00     0.057
 PAO|LS| adapt:  T F F
 PAO|LS| adapt: scan_steps:    0.0000000000000000        0.0000000000000000        0.0000000000000000     
 PAO|LS| adapt: energies:   -7.8022300759076479        0.0000000000000000        0.0000000000000000     
 PAO| ======================= Iteration:        26 =============================

     Lanczos converged:  T threshold:   0.100E-02
     Est. extremal eigenvalues:    0.276E+01   0.181E+00
     Est. condition number :    0.153E+02

 Order=           3
     NS sqrt iter    1 1.00000000   0.705E+00       0.001       59.570
     NS sqrt iter    2 1.00000000   0.330E+00       0.001       99.090
     NS sqrt iter    3 1.00000000   0.751E-01       0.001      100.120
     NS sqrt iter    4 1.00000000   0.182E-02       0.001      100.427
     NS sqrt iter    5 1.00000000   0.538E-07       0.001       66.943
     Symmetrizing Results
     Final NS sqrt iter    5 1.00000000   0.568E-09

     Est. extremal eigenvalues     -0.93708     1.69904  converged:  T
     TRS4 it   1 1.00000000   0.872E+00       0.000       16.128   0.100E-07
     TRS4 it   2 1.00000000   0.617E+00       0.001       32.256   0.100E-07
     TRS4 it   3 1.00000000   0.420E+00       0.001       32.256   0.100E-07
     TRS4 it   4 1.00000000   0.213E+00       0.001       32.256   0.100E-07
     TRS4 it   5 1.00000000   0.678E-01       0.001       32.256   0.100E-07
     TRS4 it   6 1.00000000   0.865E-02       0.001       32.256   0.100E-07
     TRS4 it   7 1.00000000   0.187E-03       0.001       32.256   0.100E-07
     TRS4 it   8 1.00000000   0.121E-06       0.001       32.256   0.100E-07
     TRS4 it   9 1.00000000   0.624E-13       0.001       32.256   0.100E-07
     Final TRS4 iteration    9 1.00000000   0.624E-13
     Chemical potential (mu):       0.01248
 
 PAO| energy:  -7.8022344259844658      penalty:   1.3128240946928852E-005
 PAO|LS| adapt:  T T F
 PAO|LS| adapt: scan_steps:    0.0000000000000000       0.44140544122500364        0.0000000000000000     
 PAO|LS| adapt: energies:   -7.8022300759076479       -7.8022344259844658        0.0000000000000000     
 PAO| ======================= Iteration:        27 =============================

     Lanczos converged:  T threshold:   0.100E-02
     Est. extremal eigenvalues:    0.276E+01   0.181E+00
     Est. condition number :    0.152E+02

 Order=           3
     NS sqrt iter    1 1.00000000   0.705E+00       0.001       59.058
     NS sqrt iter    2 1.00000000   0.329E+00       0.001      100.169
     NS sqrt iter    3 1.00000000   0.750E-01       0.001       99.992
     NS sqrt iter    4 1.00000000   0.181E-02       0.001      100.035
     NS sqrt iter    5 1.00000000   0.533E-07       0.001       65.996
     Symmetrizing Results
     Final NS sqrt iter    5 1.00000000   0.563E-09

     Est. extremal eigenvalues     -0.93708     1.69855  converged:  T
     TRS4 it   1 1.00000000   0.872E+00       0.000       16.128   0.100E-07
     TRS4 it   2 1.00000000   0.617E+00       0.001       32.256   0.100E-07
     TRS4 it   3 1.00000000   0.420E+00       0.001       32.256   0.100E-07
     TRS4 it   4 1.00000000   0.213E+00       0.001       32.256   0.100E-07
     TRS4 it   5 1.00000000   0.677E-01       0.001       32.256   0.100E-07
     TRS4 it   6 1.00000000   0.862E-02       0.001       32.256   0.100E-07
     TRS4 it   7 1.00000000   0.186E-03       0.001       32.256   0.100E-07
     TRS4 it   8 1.00000000   0.119E-06       0.001       32.256   0.100E-07
     TRS4 it   9 1.00000000   0.615E-13       0.001       32.256   0.100E-07
     Final TRS4 iteration    9 1.00000000   0.615E-13
     Chemical potential (mu):       0.01261
 
 PAO| energy:  -7.8021754708563673      penalty:   1.2427763810883386E-005
 PAO|LS| adapt:  T T T
 PAO|LS| adapt: scan_steps:    0.0000000000000000       0.44140544122500364       0.88281088245000727     
 PAO|LS| adapt: energies:   -7.8022300759076479       -7.8022344259844658       -7.8021754708563673     
 PAO|LS| adapt: suggested step_size:   0.25103431150920280     
 PAO|LS| adapt: predicted energy  -7.8022403135564860     
 PAO| ======================= Iteration:        28 =============================

     Lanczos converged:  T threshold:   0.100E-02
     Est. extremal eigenvalues:    0.276E+01   0.181E+00
     Est. condition number :    0.153E+02

 Order=           3
     NS sqrt iter    1 1.00000000   0.705E+00       0.001       59.544
     NS sqrt iter    2 1.00000000   0.330E+00       0.001       99.890
     NS sqrt iter    3 1.00000000   0.752E-01       0.001      100.472
     NS sqrt iter    4 1.00000000   0.182E-02       0.001       98.954
     NS sqrt iter    5 1.00000000   0.540E-07       0.001       66.608
     Symmetrizing Results
     Final NS sqrt iter    5 1.00000000   0.571E-09

     Est. extremal eigenvalues     -0.93708     1.69925  converged:  T
     TRS4 it   1 1.00000000   0.872E+00       0.000       16.128   0.100E-07
     TRS4 it   2 1.00000000   0.617E+00       0.001       32.256   0.100E-07
     TRS4 it   3 1.00000000   0.420E+00       0.001       32.256   0.100E-07
     TRS4 it   4 1.00000000   0.213E+00       0.001       32.256   0.100E-07
     TRS4 it   5 1.00000000   0.678E-01       0.001       32.256   0.100E-07
     TRS4 it   6 1.00000000   0.866E-02       0.001       32.256   0.100E-07
     TRS4 it   7 1.00000000   0.187E-03       0.001       32.256   0.100E-07
     TRS4 it   8 1.00000000   0.122E-06       0.001       32.256   0.100E-07
     TRS4 it   9 1.00000000   0.640E-13       0.001       32.256   0.100E-07
     Final TRS4 iteration    9 1.00000000   0.640E-13
     Chemical potential (mu):       0.01243
 
 PAO| energy:  -7.8022403042598318      penalty:   1.3437687468558644E-005
 PAO|CG| trace_G_new    3.2573128241238939E-005
 PAO|CG| trace_G_prev    8.1311827204883958E-005
 PAO|CG| trace_G_mix    5.5169457598994145E-008
 PAO|CG| trace_D    1.2227815902403542E-004
 PAO|CG| trace_D_Gnew  -2.6650851996469683E-008
 PAO|CG| beta:   0.39991671447381727     
 PAO| norm of gradient:   5.7072872926845850E-003
 PAO| energy improvement:  -1.0228352183894174E-005
 PAO| step     28                   -7.802240304  0.357E-03  0.251E+00     0.058
 PAO|LS| adapt:  T F F
 PAO|LS| adapt: scan_steps:    0.0000000000000000        0.0000000000000000        0.0000000000000000     
 PAO|LS| adapt: energies:   -7.8022403042598318        0.0000000000000000        0.0000000000000000     
 PAO| ======================= Iteration:        29 =============================

     Lanczos converged:  T threshold:   0.100E-02
     Est. extremal eigenvalues:    0.276E+01   0.181E+00
     Est. condition number :    0.153E+02

 Order=           3
     NS sqrt iter    1 1.00000000   0.705E+00       0.001       58.913
     NS sqrt iter    2 1.00000000   0.330E+00       0.001       99.209
     NS sqrt iter    3 1.00000000   0.751E-01       0.001       99.729
     NS sqrt iter    4 1.00000000   0.182E-02       0.001      100.322
     NS sqrt iter    5 1.00000000   0.539E-07       0.001       66.187
     Symmetrizing Results
     Final NS sqrt iter    5 1.00000000   0.565E-09

     Est. extremal eigenvalues     -0.93708     1.69911  converged:  T
     TRS4 it   1 1.00000000   0.872E+00       0.000       16.128   0.100E-07
     TRS4 it   2 1.00000000   0.617E+00       0.001       32.256   0.100E-07
     TRS4 it   3 1.00000000   0.420E+00       0.001       32.256   0.100E-07
     TRS4 it   4 1.00000000   0.213E+00       0.001       32.256   0.100E-07
     TRS4 it   5 1.00000000   0.677E-01       0.001       32.256   0.100E-07
     TRS4 it   6 1.00000000   0.863E-02       0.001       32.256   0.100E-07
     TRS4 it   7 1.00000000   0.186E-03       0.001       32.256   0.100E-07
     TRS4 it   8 1.00000000   0.120E-06       0.001       32.256   0.100E-07
     TRS4 it   9 1.00000000   0.623E-13       0.001       32.256   0.100E-07
     Final TRS4 iteration    9 1.00000000   0.623E-13
     Chemical potential (mu):       0.01257
 
 PAO| energy:  -7.8022475023777300      penalty:   1.3002358490221959E-005
 PAO|LS| adapt:  T T F
 PAO|LS| adapt: scan_steps:    0.0000000000000000       0.25103431150920280        0.0000000000000000     
 PAO|LS| adapt: energies:   -7.8022403042598318       -7.8022475023777300        0.0000000000000000     
 PAO| ======================= Iteration:        30 =============================

     Lanczos converged:  T threshold:   0.100E-02
     Est. extremal eigenvalues:    0.276E+01   0.181E+00
     Est. condition number :    0.153E+02

 Order=           3
     NS sqrt iter    1 1.00000000   0.705E+00       0.001       60.039
     NS sqrt iter    2 1.00000000   0.329E+00       0.001       99.453
     NS sqrt iter    3 1.00000000   0.750E-01       0.001       99.266
     NS sqrt iter    4 1.00000000   0.182E-02       0.001       99.719
     NS sqrt iter    5 1.00000000   0.537E-07       0.001       67.149
     Symmetrizing Results
     Final NS sqrt iter    5 1.00000000   0.562E-09

     Est. extremal eigenvalues     -0.93708     1.69897  converged:  T
     TRS4 it   1 1.00000000   0.872E+00       0.000       16.128   0.100E-07
     TRS4 it   2 1.00000000   0.617E+00       0.001       32.256   0.100E-07
     TRS4 it   3 1.00000000   0.420E+00       0.001       32.256   0.100E-07
     TRS4 it   4 1.00000000   0.213E+00       0.001       32.256   0.100E-07
     TRS4 it   5 1.00000000   0.676E-01       0.001       32.256   0.100E-07
     TRS4 it   6 1.00000000   0.861E-02       0.001       32.256   0.100E-07
     TRS4 it   7 1.00000000   0.185E-03       0.001       32.256   0.100E-07
     TRS4 it   8 1.00000000   0.119E-06       0.001       32.256   0.100E-07
     TRS4 it   9 1.00000000   0.603E-13       0.001       32.256   0.100E-07
     Final TRS4 iteration    9 1.00000000   0.603E-13
     Chemical potential (mu):       0.01271
 
 PAO| energy:  -7.8022527335784524      penalty:   1.2575049647863521E-005
 PAO|LS| adapt:  T T F
 PAO|LS| adapt: scan_steps:    0.0000000000000000       0.50206862301840560        0.0000000000000000     
 PAO|LS| adapt: energies:   -7.8022403042598318       -7.8022527335784524        0.0000000000000000     
 PAO| ======================= Iteration:        31 =============================

     Lanczos converged:  T threshold:   0.100E-02
     Est. extremal eigenvalues:    0.276E+01   0.181E+00
     Est. condition number :    0.152E+02

 Order=           3
     NS sqrt iter    1 1.00000000   0.704E+00       0.001       59.640
     NS sqrt iter    2 1.00000000   0.329E+00       0.001       99.724
     NS sqrt iter    3 1.00000000   0.749E-01       0.001      100.109
     NS sqrt iter    4 1.00000000   0.181E-02       0.001      100.011
     NS sqrt iter    5 1.00000000   0.534E-07       0.001       67.514
     Symmetrizing Results
     Final NS sqrt iter    5 1.00000000   0.555E-09

     Est. extremal eigenvalues     -0.93708     1.69868  converged:  T
     TRS4 it   1 1.00000000   0.872E+00       0.000       16.128   0.100E-07
     TRS4 it   2 1.00000000   0.617E+00       0.001       32.256   0.100E-07
     TRS4 it   3 1.00000000   0.420E+00       0.001       32.256   0.100E-07
     TRS4 it   4 1.00000000   0.212E+00       0.001       32.256   0.100E-07
     TRS4 it   5 1.00000000   0.674E-01       0.001       32.256   0.100E-07
     TRS4 it   6 1.00000000   0.856E-02       0.001       32.256   0.100E-07
     TRS4 it   7 1.00000000   0.183E-03       0.001       32.256   0.100E-07
     TRS4 it   8 1.00000000   0.115E-06       0.001       32.256   0.100E-07
     TRS4 it   9 1.00000000   0.573E-13       0.001       32.256   0.100E-07
     Final TRS4 iteration    9 1.00000000   0.573E-13
     Chemical potential (mu):       0.01299
 
 PAO| energy:  -7.8022573013701617      penalty:   1.1744323415193377E-005
 PAO|LS| Need extra step
 PAO|LS| adapt:  T T F
 PAO|LS| adapt: scan_steps:    0.0000000000000000        1.0041372460368112        0.0000000000000000     
 PAO|LS| adapt: energies:   -7.8022403042598318       -7.8022573013701617        0.0000000000000000     
 PAO| ======================= Iteration:        32 =============================

     Lanczos converged:  T threshold:   0.100E-02
     Est. extremal eigenvalues:    0.276E+01   0.181E+00
     Est. condition number :    0.152E+02

 Order=           3
[...]
     TRS4 it   1 1.00000000   0.878E+00       0.000       16.128   0.100E-07
     TRS4 it   2 1.00000000   0.632E+00       0.000       32.256   0.100E-07
     TRS4 it   3 1.00000000   0.455E+00       0.000       32.256   0.100E-07
     TRS4 it   4 1.00000000   0.278E+00       0.000       32.256   0.100E-07
     TRS4 it   5 1.00000000   0.137E+00       0.000       32.256   0.100E-07
     TRS4 it   6 1.00000000   0.430E-01       0.000       32.256   0.100E-07
     TRS4 it   7 1.00000000   0.587E-02       0.000       32.256   0.100E-07
     TRS4 it   8 1.00000000   0.146E-03       0.000       32.256   0.100E-07
     TRS4 it   9 1.00000000   0.958E-07       0.000       32.256   0.100E-07
     TRS4 it  10 1.00000000   0.413E-13       0.000       32.256   0.100E-07
     Final TRS4 iteration   10 1.00000000   0.413E-13
     Chemical potential (mu):      -0.07531
 
 PAO| energy:  -7.8014660810608012      penalty:   3.6470451249922269E-008
 PAO|CG| warming up with steepest descent
 PAO|CG| beta:    0.0000000000000000     
 PAO| norm of gradient:   1.4247739939344959E-004
 PAO| energy improvement:  -5.6565161443700163E-009
 PAO| step    411                   -7.801466081  0.890E-05  0.267E+00     0.049
 PAO| converged after          411  steps :-)
 PAO| Recalculating energy after mixing.

     Lanczos converged:  T threshold:   0.100E-02
     Est. extremal eigenvalues:    0.251E+01   0.190E+00
     Est. condition number :    0.132E+02

 Order=           3
     NS sqrt iter    1 1.00000000   0.637E+00       0.001       64.512
     NS sqrt iter    2 1.00000000   0.277E+00       0.001      110.592
     NS sqrt iter    3 1.00000000   0.492E-01       0.001      110.592
     NS sqrt iter    4 1.00000000   0.792E-03       0.001      110.592
     NS sqrt iter    5 1.00000000   0.652E-08       0.001       38.272
     Symmetrizing Results
     Final NS sqrt iter    5 1.00000000   0.383E-09

     Est. extremal eigenvalues     -0.93677     1.63177  converged:  T
     TRS4 it   1 1.00000000   0.878E+00       0.000       16.128   0.100E-07
     TRS4 it   2 1.00000000   0.632E+00       0.000       32.256   0.100E-07
     TRS4 it   3 1.00000000   0.455E+00       0.000       32.256   0.100E-07
     TRS4 it   4 1.00000000   0.278E+00       0.000       32.256   0.100E-07
     TRS4 it   5 1.00000000   0.137E+00       0.000       32.256   0.100E-07
     TRS4 it   6 1.00000000   0.430E-01       0.000       32.256   0.100E-07
     TRS4 it   7 1.00000000   0.587E-02       0.000       32.256   0.100E-07
     TRS4 it   8 1.00000000   0.146E-03       0.000       32.256   0.100E-07
     TRS4 it   9 1.00000000   0.958E-07       0.000       32.256   0.100E-07
     TRS4 it  10 1.00000000   0.409E-13       0.000       32.256   0.100E-07
     Final TRS4 iteration   10 1.00000000   0.409E-13
     Chemical potential (mu):      -0.07531
 
 PAO| energy:  -7.8014660796466639      penalty:   3.6864841873128979E-008
 PAO| Writing restart file.
     Est. extremal eigenvalues     -0.93677     1.63177  converged:  T
     TRS4 it   1 1.00000000   0.878E+00       0.000       16.128   0.100E-07
     TRS4 it   2 1.00000000   0.632E+00       0.000       32.256   0.100E-07
     TRS4 it   3 1.00000000   0.455E+00       0.000       32.256   0.100E-07
     TRS4 it   4 1.00000000   0.278E+00       0.000       32.256   0.100E-07
     TRS4 it   5 1.00000000   0.137E+00       0.000       32.256   0.100E-07
     TRS4 it   6 1.00000000   0.430E-01       0.000       32.256   0.100E-07
     TRS4 it   7 1.00000000   0.587E-02       0.000       32.256   0.100E-07
     TRS4 it   8 1.00000000   0.146E-03       0.000       32.256   0.100E-07
     TRS4 it   9 1.00000000   0.958E-07       0.000       32.256   0.100E-07
     TRS4 it  10 1.00000000   0.409E-13       0.000       32.256   0.100E-07
     Final TRS4 iteration   10 1.00000000   0.409E-13
     Chemical potential (mu):      -0.07531

 SCF     1       -34.450118703       -34.450118703    2.500059

*********************************************************
 Using MIXING_FRACTION=0.450 to mix KS matrix:  iscf=  2
 KS_nw=0.450*KS + 0.550*KS_old
*********************************************************
     Est. extremal eigenvalues     -0.93677     1.63177  converged:  T
     TRS4 it   1 1.00000000   0.878E+00       0.000       16.128   0.100E-07
     TRS4 it   2 1.00000000   0.632E+00       0.000       32.256   0.100E-07
     TRS4 it   3 1.00000000   0.455E+00       0.000       32.256   0.100E-07
     TRS4 it   4 1.00000000   0.278E+00       0.000       32.256   0.100E-07
     TRS4 it   5 1.00000000   0.137E+00       0.000       32.256   0.100E-07
     TRS4 it   6 1.00000000   0.430E-01       0.000       32.256   0.100E-07
     TRS4 it   7 1.00000000   0.587E-02       0.000       32.256   0.100E-07
     TRS4 it   8 1.00000000   0.146E-03       0.000       32.256   0.100E-07
     TRS4 it   9 1.00000000   0.959E-07       0.000       32.256   0.100E-07
     TRS4 it  10 1.00000000   0.410E-13       0.000       32.256   0.100E-07
     Final TRS4 iteration   10 1.00000000   0.410E-13
     Chemical potential (mu):      -0.07531

 SCF     2       -34.450118703        -0.000000000    1.721710


 SCF run converged in     2 steps.

 PAO| Storing density matrix for ASPC guess in slot:           1

 ENERGY| Total FORCE_EVAL ( QS ) energy [a.u.]:              -34.450118703442058

 -------------------------------------------------------------------------------
 -                                                                             -
 -                                DBCSR STATISTICS                             -
 -                                                                             -
 -------------------------------------------------------------------------------
 COUNTER                                    TOTAL       BLAS       SMM       ACC
 flops     5 x     5 x     4                20000       0.0%    100.0%      0.0%
 flops    13 x     5 x     4                20800       0.0%    100.0%      0.0%
 flops     5 x    13 x     4                20800       0.0%    100.0%      0.0%
 flops    13 x    13 x     4                40560       0.0%    100.0%      0.0%
 flops     4 x     4 x     5              3229440       0.0%    100.0%      0.0%
 flops     5 x     4 x     5              3939200       0.0%    100.0%      0.0%
 flops     4 x     4 x    13              4198272       0.0%    100.0%      0.0%
 flops    13 x     4 x     5              5120960       0.0%    100.0%      0.0%
 flops     5 x     4 x    13              5120960       0.0%    100.0%      0.0%
 flops     5 x     4 x     4              6263840       0.0%    100.0%      0.0%
 flops    13 x     4 x    13              6657248       0.0%    100.0%      0.0%
 flops    13 x     4 x     4              8322912       0.0%    100.0%      0.0%
 flops     4 x     4 x     4            416668800       0.0%    100.0%      0.0%
 flops inhomo. stacks                           0       0.0%      0.0%      0.0%
 flops total                       459.623792E+06       0.0%    100.0%      0.0%
 flops max/rank                    459.623792E+06       0.0%    100.0%      0.0%
 matmuls inhomo. stacks                         0       0.0%      0.0%      0.0%
 matmuls total                            3389183       0.0%    100.0%      0.0%
 number of processed stacks                 27021       0.0%    100.0%      0.0%
 average stack size                                     0.0     125.4       0.0
 marketing flops                   747.450816E+06
 -------------------------------------------------------------------------------
 # multiplications                          22579
 max memory usage/rank             506.089472E+06
 # max total images/rank                        1
 # max 3D layers                                1
 # MPI messages exchanged                       0
 -------------------------------------------------------------------------------

 -------------------------------------------------------------------------------
 -                                                                             -
 -                                DBM STATISTICS                               -
 -                                                                             -
 -------------------------------------------------------------------------------
    M  x    N  x    K                                          COUNT     PERCENT
 -------------------------------------------------------------------------------

 -------------------------------------------------------------------------------
 -                                                                             -
 -                                GRID STATISTICS                              -
 -                                                                             -
 -------------------------------------------------------------------------------
 LP    KERNEL             BACKEND                              COUNT     PERCENT
 2     collocate ortho    REF                                  38180      30.79%
 2     integrate ortho    REF                                  38180      30.79%
 3     collocate ortho    REF                                  19550      15.77%
 3     integrate ortho    REF                                  19550      15.77%
 4     collocate ortho    REF                                   4270       3.44%
 4     integrate ortho    REF                                   4270       3.44%
 0     collocate general  REF                                      6       0.00%
 -------------------------------------------------------------------------------

 MEMORY| Estimated peak process memory [MiB]                                 483

 -------------------------------------------------------------------------------
 -                                                                             -
 -                           R E F E R E N C E S                               -
 -                                                                             -
 -------------------------------------------------------------------------------
 
 CP2K version 2023.1 (Development Version), the CP2K developers group (2023).
 CP2K is freely available from https://www.cp2k.org/ .

 Kuehne,Thomas D.; Iannuzzi,Marcella; Del Ben,Mauro;
 Rybkin,Vladimir V.; Seewald,Patrick; Stein,Frederick; Laino,Teodoro;
 Khaliullin,Rustam Z.; Schuett,Ole; Schiffmann,Florian; Golze,Dorothea;
 Wilhelm,Jan; Chulkov,Sergey; Bani-Hashemian,Mohammad Hossein;
 Weber,Valery; Borstnik,Urban; Taillefumier,Mathieu;
 Jakobovits,Alice Shoshana; Lazzaro,Alfio; Pabst,Hans; Mueller,Tiziano;
 Schade,Robert; Guidon,Manuel; Andermatt,Samuel; Holmberg,Nico;
 Schenter,Gregory K.; Hehn,Anna; Bussy,Augustin; Belleflamme,Fabian;
 Tabacchi,Gloria; Gloess,Andreas; Lass,Michael; Bethune,Iain;
 Mundy,Christopher J.; Plessl,Christian; Watkins,Matt;
 VandeVondele,Joost; Krack,Matthias; Hutter,Juerg. 
 The Journal of Chemical Physics, 152 (19), (2020). 
 CP2K: An electronic structure and molecular dynamics software package -
 Quickstep: Efficient and accurate electronic structure calculations.
 https://doi.org/10.1063/5.0007045

 Schuett, O; VandeVondele, J. 
 Journal of Chemical Theory and Computation, 14, (2018). 
 Machine Learning Adaptive Basis Sets for Efficient Large Scale
 Density Functional Theory Simulation.
 https://doi.org/10.1021/acs.jctc.8b00378

 Schuett, Ole; Messmer, Peter; Hutter, Juerg; VandeVondele, Joost. 
 Electronic Structure Calculations on Graphics Processing Units, John
 Wiley & Sons, Ltd, 173-190 (2016). 
 GPU-Accelerated Sparse Matrix-Matrix Multiplication for
 Linear Scaling Density Functional Theory.
 https://doi.org/10.1002/9781118670712.ch8

 Heinecke, A; Henry, G; Hutchinson, M; Pabst, H. 
 Proceedings of Intl. Supercomputing Conference, 981-991 (2016). 
 LIBXSMM: Accelerating Small Matrix Multiplications
 by Runtime Code Generation.
 https://doi.org/10.1109/SC.2016.83

 Borstnik, U; VandeVondele, J; Weber, V; Hutter, J. 
 PARALLEL COMPUTING, 40 (5-6), 47-58 (2014). 
 Sparse matrix multiplication: The distributed block-compressed sparse
 row library.
 https://doi.org/10.1016/j.parco.2014.03.012

 Hutter, J; Iannuzzi, M; Schiffmann, F; VandeVondele, J. 
 WIREs Comput Mol Sci., 4 (1), 15-25 (2014). 
 CP2K: atomistic simulations of condensed matter systems.
 https://doi.org/10.1002/wcms.1159

 VandeVondele, J; Borstnik, U; Hutter, J. 
 JOURNAL OF CHEMICAL THEORY AND COMPUTATION, 8 (10), 3565-3573 (2012). 
 Linear Scaling Self-Consistent Field Calculations with Millions of Atoms
 in the Condensed Phase.
 https://doi.org/10.1021/ct200897x

 VandeVondele, J; Hutter, J. 
 JOURNAL OF CHEMICAL PHYSICS, 127 (11), 114105 (2007). 
 Gaussian basis sets for accurate calculations on molecular systems in
 gas and condensed phases.
 https://doi.org/10.1063/1.2770708

 Krack, M. 
 THEORETICAL CHEMISTRY ACCOUNTS, 114 (1-3), 145-152 (2005). 
 Pseudopotentials for H to Kr optimized for gradient-corrected
 exchange-correlation functionals.
 https://doi.org/10.1007/s00214-005-0655-y

 VandeVondele, J; Krack, M; Mohamed, F; Parrinello, M; Chassaing, T;
 Hutter, J. COMPUTER PHYSICS COMMUNICATIONS, 167 (2), 103-128 (2005). 
 QUICKSTEP: Fast and accurate density functional calculations using a
 mixed Gaussian and plane waves approach.
 https://doi.org/10.1016/j.cpc.2004.12.014

 Frigo, M; Johnson, SG. 
 PROCEEDINGS OF THE IEEE, 93 (2), 216-231 (2005). 
 The design and implementation of FFTW3.
 https://doi.org/10.1109/JPROC.2004.840301

 Niklasson, AMN; Tymczak, CJ; Challacombe, M. 
 JOURNAL OF CHEMICAL PHYSICS, 118 (19), 8611-8620 (2003). 
 Trace resetting density matrix purification in O(N)
 self-consistent-field theory.
 https://doi.org/10.1063/1.1559913

 Hartwigsen, C; Goedecker, S; Hutter, J. 
 PHYSICAL REVIEW B, 58 (7), 3641-3662 (1998). 
 Relativistic separable dual-space Gaussian pseudopotentials from H to Rn.
 https://doi.org/10.1103/PhysRevB.58.3641

 Lippert, G; Hutter, J; Parrinello, M. 
 MOLECULAR PHYSICS, 92 (3), 477-487 (1997). 
 A hybrid Gaussian and plane wave density functional scheme.
 https://doi.org/10.1080/002689797170220

 Perdew, JP; Burke, K; Ernzerhof, M. 
 PHYSICAL REVIEW LETTERS, 77 (18), 3865-3868 (1996). 
 Generalized gradient approximation made simple.
 https://doi.org/10.1103/PhysRevLett.77.3865

 Goedecker, S; Teter, M; Hutter, J. 
 PHYSICAL REVIEW B, 54 (3), 1703-1710 (1996). 
 Separable dual-space Gaussian pseudopotentials.
 https://doi.org/10.1103/PhysRevB.54.1703


 -------------------------------------------------------------------------------
 -                                                                             -
 -                                T I M I N G                                  -
 -                                                                             -
 -------------------------------------------------------------------------------
 SUBROUTINE                       CALLS  ASD         SELF TIME        TOTAL TIME
                                MAXIMUM       AVERAGE  MAXIMUM  AVERAGE  MAXIMUM
 CP2K                                 1  1.0    0.014    0.014   35.992   35.992
 qs_energies                          1  2.0    0.000    0.000   35.350   35.350
 ls_scf                               1  3.0    0.000    0.000   35.102   35.102
 ls_scf_main                          4  4.0    0.001    0.001   23.247   23.247
 ls_scf_dm_to_ks                      9  5.0    0.000    0.000   23.175   23.175
 qs_ks_update_qs_env                 10  6.0    0.000    0.000   20.876   20.876
 rebuild_ks_matrix                   10  7.0    0.000    0.000   20.875   20.875
 qs_ks_build_kohn_sham_matrix        10  8.0    0.004    0.004   20.875   20.875
 qs_vxc_create                       10  9.0    0.000    0.000   13.698   13.698
 xc_vxc_pw_create                    10 10.0    0.292    0.292   13.697   13.697
 pw_transfer                        191 11.1    0.030    0.030   12.263   12.263
 fft_wrap_pw1pw2                    171 12.3    0.004    0.004   11.824   11.824
 fft_wrap_pw1pw2_200                111 13.7    1.356    1.356   11.461   11.461
 xc_pw_derive                        60 12.0    0.002    0.002    8.818    8.818
 pao_update                           4  4.0    0.008    0.008    7.895    7.895
 xc_rho_set_and_dset_create          10 11.0    0.330    0.330    7.687    7.687
 pao_calc_energy                    414  5.0    0.003    0.003    7.151    7.151
 qs_rho_update_rho_low               10  6.0    0.000    0.000    6.216    6.216
 calculate_rho_elec                  10  7.0    0.065    0.065    6.216    6.216
 dbcsr_multiply_generic           22579  8.4    0.355    0.355    5.669    5.669
 xc_pw_divergence                    10 11.0    0.001    0.001    5.538    5.538
 fft3d_s                            172 14.2    5.160    5.160    5.188    5.188
 sum_up_and_integrate                10  9.0    0.153    0.153    4.441    4.441
 integrate_v_rspace                  10 10.0    0.001    0.001    4.288    4.288
 pao_guess_initial_P                  1  4.0    0.000    0.000    3.922    3.922
 pao_read_preopt_dm                   1  5.0    0.000    0.000    3.922    3.922
 pao_dm_trs4                        414  6.0    0.002    0.002    3.733    3.733
 density_matrix_trs4                423  7.0    0.114    0.114    3.588    3.588
 ls_scf_init_matrix_S               418  7.0    0.002    0.002    3.394    3.394
 grid_integrate_task_list            10 11.0    3.375    3.375    3.375    3.375
 pao_rebuild_S                      414  6.0    0.001    0.001    3.370    3.370
 grid_collocate_task_list            10  8.0    3.143    3.143    3.143    3.143
 matrix_sqrt_Newton_Schulz          418  8.0    0.073    0.073    3.070    3.070
 density_rs2pw                       10  8.0    0.001    0.001    3.008    3.008
 pw_gather_s                         81 13.8    2.703    2.703    2.703    2.703
 pw_scatter_s                        90 14.7    2.528    2.528    2.528    2.528
 xc_functional_eval                  10 12.0    0.000    0.000    2.418    2.418
 pbe_lda_eval                        10 13.0    2.418    2.418    2.418    2.418
 make_m2s                         45158  9.4    0.136    0.136    2.126    2.126
 multiply_cannon                  22579  9.4    0.871    0.871    2.121    2.121
 make_images                      45158 10.4    0.527    0.527    1.883    1.883
 pw_derive                           60 13.0    1.866    1.866    1.866    1.866
 pw_copy                            120 11.8    1.380    1.380    1.380    1.380
 arnoldi_extremal                   841  8.5    0.003    0.003    1.126    1.126
 arnoldi_normal_ev                  841  9.5    0.008    0.008    1.123    1.123
 pw_poisson_solve                    10  9.0    0.204    0.204    1.087    1.087
 pw_axpy                             90 10.3    0.969    0.969    0.969    0.969
 potential_pw2rs                     10 11.0    0.002    0.002    0.913    0.913
 build_subspace                     841 10.5    0.045    0.045    0.889    0.889
 dbcsr_matrix_vector_mult         20122 11.5    0.093    0.093    0.823    0.823
 pao_calc_AB                        545  5.8    0.001    0.001    0.737    0.737
 pao_calc_AB_equi                   545  6.8    0.021    0.021    0.736    0.736
 -------------------------------------------------------------------------------

 The number of warnings for this run is : 0
 
 -------------------------------------------------------------------------------
  **** **** ******  **  PROGRAM ENDED AT                 2023-02-01 10:44:31.204
 ***** ** ***  *** **   PROGRAM RAN ON                                    moritz
 **    ****   ******    PROGRAM RAN BY                                       ole
 ***** **    ** ** **   PROGRAM PROCESS ID                                148509
  **** **  *******  **  PROGRAM STOPPED IN /home/ole/git/pao_ml_equivar/2H2O_rot
                                           ations/rand_10
