 DBCSR| CPU Multiplication driver                                           BLAS
 DBCSR| Multrec recursion limit                                              512
 DBCSR| Multiplication stack size                                           1000
 DBCSR| Maximum elements for images                                    UNLIMITED
 DBCSR| Multiplicative factor virtual images                                   1
 DBCSR| Use multiplication densification                                       T
 DBCSR| Multiplication size stacks                                             3


  **** **** ******  **  PROGRAM STARTED AT               2019-03-28 17:34:02.665
 ***** ** ***  *** **   PROGRAM STARTED ON        oleschuett.zrh.corp.google.com
 **    ****   ******    PROGRAM STARTED BY                            oleschuett
 ***** **    ** ** **   PROGRAM PROCESS ID                                 35760
  **** **  *******  **  PROGRAM STARTED IN /usr/local/google/home/oleschuett/git
                                           /pao_ml_equivar/2H2O_rotations/rand_1
                                           0

 CP2K| version string:                    CP2K version 7.0 (Development Version)
 CP2K| source code revision number:                                git:d9814d431
 CP2K| cp2kflags: libint fftw3 libxc libderiv_max_am1=5 libint_max_am=6         
 CP2K| is freely available from                            https://www.cp2k.org/
 CP2K| Program compiled at                          Mon Mar 25 16:50:07 CET 2019
 CP2K| Program compiled on                        oleschuett.zrh.corp.google.com
 CP2K| Program compiled for                                                local
 CP2K| Data directory path       /usr/local/google/home/oleschuett/git/cp2k/data
 CP2K| Input file name                                            2H2O_pao44.inp

 GLOBAL| Force Environment number                                              1
 GLOBAL| Basis set file name                                        BASIS_MOLOPT
 GLOBAL| Potential file name                                      GTH_POTENTIALS
 GLOBAL| MM Potential file name                                     MM_POTENTIAL
 GLOBAL| Coordinate file name                                         coords.xyz
 GLOBAL| Method name                                                        CP2K
 GLOBAL| Project name                                                 2H2O_pao44
 GLOBAL| Preferred FFT library                                             FFTW3
 GLOBAL| Preferred diagonalization lib.                                       SL
 GLOBAL| Run type                                                         ENERGY
 GLOBAL| All-to-all communication in single precision                          F
 GLOBAL| FFTs using library dependent lengths                                  F
 GLOBAL| Global print level                                                  LOW
 GLOBAL| MPI I/O enabled                                                       T
 GLOBAL| Total number of message passing processes                             1
 GLOBAL| Number of threads for this process                                    1
 GLOBAL| This output is from process                                           0
 GLOBAL| CPU model name :  Intel(R) Xeon(R) CPU E5-1650 v4 @ 3.60GHz

 MEMORY| system memory details [Kb]
 MEMORY|                        rank 0           min           max       average
 MEMORY| MemTotal             65953612      65953612      65953612      65953612
 MEMORY| MemFree               4475604       4475604       4475604       4475604
 MEMORY| Buffers               2543220       2543220       2543220       2543220
 MEMORY| Cached               25351936      25351936      25351936      25351936
 MEMORY| Slab                  3622908       3622908       3622908       3622908
 MEMORY| SReclaimable          2422220       2422220       2422220       2422220
 MEMORY| MemLikelyFree        34792980      34792980      34792980      34792980


 GENERATE|  Preliminary Number of Bonds generated:                             0
 GENERATE|  Achieved consistency in connectivity generation.

 *******************************************************************************
 *******************************************************************************
 **                                                                           **
 **     #####                         ##              ##                      **
 **    ##   ##            ##          ##              ##                      **
 **   ##     ##                       ##            ######                    **
 **   ##     ##  ##   ##  ##   #####  ##  ##   ####   ##    #####    #####    **
 **   ##     ##  ##   ##  ##  ##      ## ##   ##      ##   ##   ##  ##   ##   **
 **   ##  ## ##  ##   ##  ##  ##      ####     ###    ##   ######   ######    **
 **    ##  ###   ##   ##  ##  ##      ## ##      ##   ##   ##       ##        **
 **     #######   #####   ##   #####  ##  ##  ####    ##    #####   ##        **
 **           ##                                                    ##        **
 **                                                                           **
 **                                                ... make the atoms dance   **
 **                                                                           **
 **            Copyright (C) by CP2K developers group (2000 - 2018)           **
 **                                                                           **
 *******************************************************************************


 TOTAL NUMBERS AND MAXIMUM NUMBERS

  Total number of            - Atomic kinds:                                   2
                             - Atoms:                                          6
                             - Shell sets:                                     6
                             - Shells:                                        22
                             - Primitive Cartesian functions:                 42
                             - Cartesian basis functions:                     48
                             - Spherical basis functions:                     46

  Maximum angular momentum of- Orbital basis functions:                        2
                             - Local part of the GTH pseudopotential:          2
                             - Non-local part of the GTH pseudopotential:      0

 ------------------------------ Linear scaling SCF -----------------------------
 eps_scf:                                                              0.100E-07
 eps_filter:                                                           0.100E-07
 mixing_fraction:                                                      0.450E+00
 max_scf:                                                                     25
 fixed chemical potential (mu)                                                 F
 has unit metric:                                                              F
 Computing inv(S):                                                             T
 Computing sqrt(S):                                                            T
 Computing s preconditioner                                                    F
 sign sqrt order:                                                              3
 Extrapolation order:                                                          1
 Use single precision matrices                                                 F
 S preconditioner type                                                      NONE
 Polarized Atomic Orbitals (PAO)                                               T
 Purification method                                   Trace resetting 4th order
 Cluster type                                                             ATOMIC
 Computing Chebyshev                                                       FALSE
 Using PAO                                                                     T
 -------------------------------------------------------------------------------

 
 PAO|                                  EPS_PAO                           0.1E-04
 PAO|                                  MIXING                            0.5E+00
 PAO|                                  MAX_PAO                              1000
 PAO|                                  MAX_CYCLES                           1000
 PAO|                                  PARAMETERIZATION                   DIRECT
 PAO|                                  PRECONDITION                            F
 PAO|                                  REGULARIZATION                    0.0E+00
 PAO|                                  EPS_PGF                           0.1E-09
 PAO|                                  PENALTY_DISTANCE                  0.1E+00
 PAO|                                  PENALTY_STRENGTH                  0.5E-02
 PAO|                                  LINPOT_PRECONDITION_DELTA         0.0E+00
 PAO|                                  LINPOT_INITGUESS_DELT             0.0E+00
 PAO|                                  LINPOT_REGULARIZATION_DELTA       0.0E+00
 PAO|                                  LINPOT_REGULARIZATION_STRENGTH    0.0E+00
 PAO|                                  OPTIMIZER                              CG
 PAO|                                  CG_INIT_STEPS                           2
 PAO|                                  CG_RESET_LIMIT                    0.1E+00
 PAO|                                  CHECK_UNITARY_TOL                -0.1E+01
 PAO|                                  CHECK_GRADIENT_TOL               -0.1E+01
 PAO|                                  NUM_GRADIENT_ORDER                      2
 PAO|                                  NUM_GRADIENT_EPS                  0.1E-07
 PAO|                                  PRINT%RESTART%WRITE_CYCLES            100
 PAO|                                  RESTART_FILE 
 PAO|                                  PREOPT_DM_FILE 2H2O_ref_LS_DM_SPIN_1_RESTART.dm
 PAO|                                  MACHINE_LEARNING%METHOD        GAUSSIAN_P
 PAO|                                  MACHINE_LEARNING%PRIOR               ZERO
 PAO|                                  MACHINE_LEARNING%DESCRIPTOR     POTENTIAL
 PAO|                                  MACHINE_LEARNING%TOLERANCE        0.1E-01
 PAO|                                  MACHINE_LEARNING%GP_NOISE_VAR     0.1E+00
 PAO|                                  MACHINE_LEARNING%GP_SCALE         0.5E-01
 

 Calculating atomic Fock matrix for atomic kind: O

 Electronic structure
    Total number of core electrons                                          2.00
    Total number of valence electrons                                       6.00
    Total number of electrons                                               8.00
    Multiplicity                                                   not specified
    S   [  2.00] 2.00
    P      4.00


 *******************************************************************************
                  Iteration          Convergence                     Energy [au]
 *******************************************************************************
                          1        0.708315                     -15.576645311500
                          2        0.608879                     -15.587933561584
                          3        0.102828E-01                 -15.656849565404
                          4        0.113889E-02                 -15.656866888140
                          5        0.434197E-03                 -15.656867072159
                          6        0.263771E-03                 -15.656867091904
                          7        0.478536E-06                 -15.656867103452

 Energy components [Hartree]           Total Energy ::          -15.656867103452
                                        Band Energy ::           -3.000198112285
                                     Kinetic Energy ::           11.759971203220
                                   Potential Energy ::          -27.416838306672
                                      Virial (-V/T) ::            2.331369510426
                                        Core Energy ::          -26.140716385623
                                          XC Energy ::           -3.154051012914
                                     Coulomb Energy ::           13.637900295084
                       Total Pseudopotential Energy ::          -37.935781716540
                       Local Pseudopotential Energy ::          -39.218907440693
                    Nonlocal Pseudopotential Energy ::            1.283125724153
                                        Confinement ::            0.350941276976

 Orbital energies  State     L     Occupation   Energy[a.u.]          Energy[eV]

                       1     0          2.000      -0.864471          -23.523463

                       1     1          4.000      -0.317814           -8.648154


 Total Electron Density at R=0:                                         0.000068

 Calculating atomic Fock matrix for atomic kind: H

 Electronic structure
    Total number of core electrons                                          0.00
    Total number of valence electrons                                       1.00
    Total number of electrons                                               1.00
    Multiplicity                                                   not specified
    S      1.00


 *******************************************************************************
                  Iteration          Convergence                     Energy [au]
 *******************************************************************************
                          1        0.437545E-02                  -0.424159432110
                          2        0.531356E-03                  -0.424178438213
                          3        0.259176E-06                  -0.424178722480

 Energy components [Hartree]           Total Energy ::           -0.424178722480
                                        Band Energy ::           -0.199015229016
                                     Kinetic Energy ::            0.464007633961
                                   Potential Energy ::           -0.888186356441
                                      Virial (-V/T) ::            1.914163240935
                                        Core Energy ::           -0.479160803564
                                          XC Energy ::           -0.244352904054
                                     Coulomb Energy ::            0.299334985138
                       Total Pseudopotential Energy ::           -0.962295316385
                       Local Pseudopotential Energy ::           -0.962295316385
                    Nonlocal Pseudopotential Energy ::            0.000000000000
                                        Confinement ::            0.191268788606

 Orbital energies  State     L     Occupation   Energy[a.u.]          Energy[eV]

                       1     0          1.000      -0.199015           -5.415480


 Total Electron Density at R=0:                                         0.242907
 PAO| Made initial guess for matrix_X with norm:   4.8989794855663567     

     Lanczos converged:  T threshold:   0.100E-02
     Est. extremal eigenvalues:    0.335E+01   0.115E+00
     Est. condition number :    0.291E+02
     NS sqrt iter    1 1.00000000   0.820E+00       0.002       39.456
     NS sqrt iter    2 1.00000000   0.440E+00       0.002       65.938
     NS sqrt iter    3 1.00000000   0.170E+00       0.002       52.614
     NS sqrt iter    4 1.00000000   0.203E-01       0.002       66.918
     NS sqrt iter    5 1.00000000   0.504E-04       0.002       57.032
     Final NS sqrt iter    5 1.00000000   0.457E-08

 PAO| Read restart DM 2H2O_ref_LS_DM_SPIN_1_RESTART.dm with checksum:    71.082394103653115     
 PAO| Quickstep energy from restart density:  -34.450945981389381     
 PAO| ======================= Iteration:         1 =============================

     Lanczos converged:  T threshold:   0.100E-02
     Est. extremal eigenvalues:    0.335E+01   0.115E+00
     Est. condition number :    0.291E+02
     NS sqrt iter    1 1.00000000   0.820E+00       0.001       55.653
     NS sqrt iter    2 1.00000000   0.440E+00       0.002       73.148
     NS sqrt iter    3 1.00000000   0.170E+00       0.001       86.385
     NS sqrt iter    4 1.00000000   0.203E-01       0.001       90.559
     NS sqrt iter    5 1.00000000   0.504E-04       0.001       80.875
     Final NS sqrt iter    5 1.00000000   0.457E-08

     Est. extremal eigenvalues     -0.91924     1.86776  converged:  T
     TRS4 it   1 1.00000000   0.879E+00       0.000       16.128   0.100E-07
     TRS4 it   2 1.00000000   0.687E+00       0.001       32.256   0.100E-07
     TRS4 it   3 1.00000000   0.497E+00       0.001       32.256   0.100E-07
     TRS4 it   4 1.00000000   0.310E+00       0.001       32.256   0.100E-07
     TRS4 it   5 1.00000000   0.153E+00       0.001       32.256   0.100E-07
     TRS4 it   6 1.00000000   0.476E-01       0.001       32.256   0.100E-07
     TRS4 it   7 1.00000000   0.643E-02       0.001       32.256   0.100E-07
     TRS4 it   8 1.00000000   0.164E-03       0.001       32.256   0.100E-07
     TRS4 it   9 1.00000000   0.120E-06       0.001       32.256   0.100E-07
     TRS4 it  10 1.00000000   0.645E-13       0.001       32.256   0.100E-07
     Final TRS4 iteration   10 1.00000000   0.645E-13
     Chemical potential (mu):      -0.06419
 
 PAO| energy:  -7.6132935927979597      penalty:   3.3896367021215347E-033
 PAO|CG| warming up with steepest descent
 PAO|CG| beta:    0.0000000000000000     
 PAO| norm of gradient:  0.78359373684317046     
 PAO|LS| adapt:  T F F
 PAO|LS| adapt: scan_steps:    0.0000000000000000        0.0000000000000000        0.0000000000000000     
 PAO|LS| adapt: energies:   -7.6132935927979597        0.0000000000000000        0.0000000000000000     
 PAO| ======================= Iteration:         2 =============================

     Lanczos converged:  T threshold:   0.100E-02
     Est. extremal eigenvalues:    0.327E+01   0.128E+00
     Est. condition number :    0.255E+02
     NS sqrt iter    1 1.00000000   0.804E+00       0.001       60.115
     NS sqrt iter    2 1.00000000   0.424E+00       0.001       92.489
     NS sqrt iter    3 1.00000000   0.152E+00       0.001       99.904
     NS sqrt iter    4 1.00000000   0.140E-01       0.001       98.231
     NS sqrt iter    5 1.00000000   0.157E-04       0.001       78.459
     Final NS sqrt iter    5 1.00000000   0.373E-09

     Est. extremal eigenvalues     -0.92290     1.81360  converged:  T
     TRS4 it   1 1.00000000   0.875E+00       0.000       16.128   0.100E-07
     TRS4 it   2 1.00000000   0.668E+00       0.001       32.256   0.100E-07
     TRS4 it   3 1.00000000   0.480E+00       0.001       32.256   0.100E-07
     TRS4 it   4 1.00000000   0.290E+00       0.001       32.256   0.100E-07
     TRS4 it   5 1.00000000   0.133E+00       0.001       32.256   0.100E-07
     TRS4 it   6 1.00000000   0.363E-01       0.001       32.256   0.100E-07
     TRS4 it   7 1.00000000   0.380E-02       0.001       32.256   0.100E-07
     TRS4 it   8 1.00000000   0.579E-04       0.001       32.256   0.100E-07
     TRS4 it   9 1.00000000   0.149E-07       0.001       32.256   0.100E-07
     Final TRS4 iteration    9 1.00000000   0.149E-07
     Chemical potential (mu):      -0.05213
 
 PAO| energy:  -7.6688138882407468      penalty:   2.2491083488876566E-008
 PAO|LS| adapt:  T T F
 PAO|LS| adapt: scan_steps:    0.0000000000000000       0.10000000000000001        0.0000000000000000     
 PAO|LS| adapt: energies:   -7.6132935927979597       -7.6688138882407468        0.0000000000000000     
 PAO| ======================= Iteration:         3 =============================

     Lanczos converged:  T threshold:   0.100E-02
     Est. extremal eigenvalues:    0.318E+01   0.140E+00
     Est. condition number :    0.227E+02
     NS sqrt iter    1 1.00000000   0.786E+00       0.001       60.481
     NS sqrt iter    2 1.00000000   0.408E+00       0.001       91.652
     NS sqrt iter    3 1.00000000   0.135E+00       0.001       96.913
     NS sqrt iter    4 1.00000000   0.959E-02       0.001      101.519
     NS sqrt iter    5 1.00000000   0.512E-05       0.001       65.916
     Final NS sqrt iter    5 1.00000000   0.398E-10

     Est. extremal eigenvalues     -0.92632     1.77040  converged:  T
     TRS4 it   1 1.00000000   0.872E+00       0.000       16.128   0.100E-07
     TRS4 it   2 1.00000000   0.652E+00       0.001       32.256   0.100E-07
     TRS4 it   3 1.00000000   0.464E+00       0.001       32.256   0.100E-07
     TRS4 it   4 1.00000000   0.269E+00       0.001       32.256   0.100E-07
     TRS4 it   5 1.00000000   0.115E+00       0.001       32.256   0.100E-07
     TRS4 it   6 1.00000000   0.269E-01       0.001       32.256   0.100E-07
     TRS4 it   7 1.00000000   0.208E-02       0.001       32.256   0.100E-07
     TRS4 it   8 1.00000000   0.174E-04       0.001       32.256   0.100E-07
     TRS4 it   9 1.00000000   0.134E-08       0.001       32.256   0.100E-07
     Final TRS4 iteration    9 1.00000000   0.134E-08
     Chemical potential (mu):      -0.03909
 
 PAO| energy:  -7.7119098558351293      penalty:   3.5985704116596066E-007
 PAO|LS| adapt:  T T F
 PAO|LS| adapt: scan_steps:    0.0000000000000000       0.20000000000000001        0.0000000000000000     
 PAO|LS| adapt: energies:   -7.6132935927979597       -7.7119098558351293        0.0000000000000000     
 PAO| ======================= Iteration:         4 =============================

     Lanczos converged:  T threshold:   0.100E-02
     Est. extremal eigenvalues:    0.298E+01   0.158E+00
     Est. condition number :    0.189E+02
     NS sqrt iter    1 1.00000000   0.749E+00       0.001       49.226
     NS sqrt iter    2 1.00000000   0.374E+00       0.002       72.405
     NS sqrt iter    3 1.00000000   0.105E+00       0.001       85.668
     NS sqrt iter    4 1.00000000   0.465E-02       0.001       93.270
     NS sqrt iter    5 1.00000000   0.724E-06       0.001       77.863
     Final NS sqrt iter    5 1.00000000   0.882E-12

     Est. extremal eigenvalues     -0.93165     1.70874  converged:  T
     TRS4 it   1 1.00000000   0.867E+00       0.000       16.128   0.100E-07
     TRS4 it   2 1.00000000   0.625E+00       0.001       32.256   0.100E-07
     TRS4 it   3 1.00000000   0.434E+00       0.001       32.256   0.100E-07
     TRS4 it   4 1.00000000   0.232E+00       0.001       32.256   0.100E-07
     TRS4 it   5 1.00000000   0.834E-01       0.001       32.256   0.100E-07
     TRS4 it   6 1.00000000   0.137E-01       0.001       32.256   0.100E-07
     TRS4 it   7 1.00000000   0.510E-03       0.001       32.256   0.100E-07
     TRS4 it   8 1.00000000   0.102E-05       0.001       32.256   0.100E-07
     TRS4 it   9 1.00000000   0.463E-11       0.001       32.256   0.100E-07
     Final TRS4 iteration    9 1.00000000   0.463E-11
     Chemical potential (mu):      -0.01040
 
 PAO| energy:  -7.7591980371793019      penalty:   5.7577103014111294E-006
 PAO|LS| Need extra step
 PAO|LS| adapt:  T T F
 PAO|LS| adapt: scan_steps:    0.0000000000000000       0.40000000000000002        0.0000000000000000     
 PAO|LS| adapt: energies:   -7.6132935927979597       -7.7591980371793019        0.0000000000000000     
 PAO| ======================= Iteration:         5 =============================

     Lanczos converged:  T threshold:   0.100E-02
     Est. extremal eigenvalues:    0.263E+01   0.185E+00
     Est. condition number :    0.142E+02
     NS sqrt iter    1 1.00000000   0.686E+00       0.001       57.709
     NS sqrt iter    2 1.00000000   0.312E+00       0.001       99.212
     NS sqrt iter    3 1.00000000   0.648E-01       0.001       85.565
     NS sqrt iter    4 1.00000000   0.128E-02       0.002       66.205
     NS sqrt iter    5 1.00000000   0.208E-07       0.001       37.212
     Final NS sqrt iter    5 1.00000000   0.932E-09

     Est. extremal eigenvalues     -0.93293     1.64265  converged:  T
     TRS4 it   1 1.00000000   0.863E+00       0.000       16.128   0.100E-07
     TRS4 it   2 1.00000000   0.590E+00       0.001       32.256   0.100E-07
     TRS4 it   3 1.00000000   0.386E+00       0.001       32.256   0.100E-07
     TRS4 it   4 1.00000000   0.176E+00       0.001       32.256   0.100E-07
     TRS4 it   5 1.00000000   0.444E-01       0.001       32.256   0.100E-07
     TRS4 it   6 1.00000000   0.351E-02       0.001       32.256   0.100E-07
     TRS4 it   7 1.00000000   0.283E-04       0.001       32.256   0.100E-07
     TRS4 it   8 1.00000000   0.232E-08       0.001       32.256   0.100E-07
     Final TRS4 iteration    8 1.00000000   0.232E-08
     Chemical potential (mu):       0.03870
 
 PAO| energy:  -7.7043777708181524      penalty:   9.2123345964653842E-005
 PAO|LS| Need extra step
 PAO|LS| adapt:  T T T
 PAO|LS| adapt: scan_steps:    0.0000000000000000       0.40000000000000002       0.80000000000000004     
 PAO|LS| adapt: energies:   -7.6132935927979597       -7.7591980371793019       -7.7043777708181524     
 PAO|LS| adapt: suggested step_size:   0.49075532123899196     
 PAO|LS| adapt: predicted energy  -7.7643645208268097     
 PAO| ======================= Iteration:         6 =============================

     Lanczos converged:  T threshold:   0.100E-02
     Est. extremal eigenvalues:    0.289E+01   0.165E+00
     Est. condition number :    0.176E+02
     NS sqrt iter    1 1.00000000   0.733E+00       0.001       60.522
     NS sqrt iter    2 1.00000000   0.358E+00       0.001       98.705
     NS sqrt iter    3 1.00000000   0.940E-01       0.001       97.040
     NS sqrt iter    4 1.00000000   0.341E-02       0.001       96.149
     NS sqrt iter    5 1.00000000   0.319E-06       0.001       71.150
     Final NS sqrt iter    5 1.00000000   0.305E-09

     Est. extremal eigenvalues     -0.93314     1.68863  converged:  T
     TRS4 it   1 1.00000000   0.866E+00       0.000       16.128   0.100E-07
     TRS4 it   2 1.00000000   0.615E+00       0.001       32.256   0.100E-07
     TRS4 it   3 1.00000000   0.422E+00       0.001       32.256   0.100E-07
     TRS4 it   4 1.00000000   0.217E+00       0.001       32.256   0.100E-07
     TRS4 it   5 1.00000000   0.718E-01       0.001       32.256   0.100E-07
     TRS4 it   6 1.00000000   0.987E-02       0.001       32.256   0.100E-07
     TRS4 it   7 1.00000000   0.254E-03       0.001       32.256   0.100E-07
     TRS4 it   8 1.00000000   0.242E-06       0.001       32.256   0.100E-07
     TRS4 it   9 1.00000000   0.260E-12       0.001       32.256   0.100E-07
     Final TRS4 iteration    9 1.00000000   0.260E-12
     Chemical potential (mu):       0.00342
 
 PAO| energy:  -7.7636483517015034      penalty:   1.3045774902790336E-005
 PAO|CG| warming up with steepest descent
 PAO|CG| beta:    0.0000000000000000     
 PAO| norm of gradient:  0.41828214600726032     
 PAO| energy improvement: -0.15035475890354366     
 PAO| step      6                   -7.763648352  0.261E-01  0.491E+00     0.096
 PAO|LS| adapt:  T F F
 PAO|LS| adapt: scan_steps:    0.0000000000000000        0.0000000000000000        0.0000000000000000     
 PAO|LS| adapt: energies:   -7.7636483517015034        0.0000000000000000        0.0000000000000000     
 PAO| ======================= Iteration:         7 =============================

     Lanczos converged:  T threshold:   0.100E-02
     Est. extremal eigenvalues:    0.281E+01   0.179E+00
     Est. condition number :    0.157E+02
     NS sqrt iter    1 1.00000000   0.716E+00       0.001       57.382
     NS sqrt iter    2 1.00000000   0.338E+00       0.001       89.210
     NS sqrt iter    3 1.00000000   0.784E-01       0.001       86.201
     NS sqrt iter    4 1.00000000   0.206E-02       0.001       98.463
     NS sqrt iter    5 1.00000000   0.786E-07       0.001       71.163
     Final NS sqrt iter    5 1.00000000   0.863E-09

     Est. extremal eigenvalues     -0.93488     1.67769  converged:  T
     TRS4 it   1 1.00000000   0.865E+00       0.000       16.128   0.100E-07
     TRS4 it   2 1.00000000   0.614E+00       0.001       32.256   0.100E-07
     TRS4 it   3 1.00000000   0.422E+00       0.001       32.256   0.100E-07
     TRS4 it   4 1.00000000   0.218E+00       0.001       32.256   0.100E-07
     TRS4 it   5 1.00000000   0.725E-01       0.001       32.256   0.100E-07
     TRS4 it   6 1.00000000   0.981E-02       0.001       32.256   0.100E-07
     TRS4 it   7 1.00000000   0.237E-03       0.001       32.256   0.100E-07
     TRS4 it   8 1.00000000   0.199E-06       0.001       32.256   0.100E-07
     TRS4 it   9 1.00000000   0.173E-12       0.001       32.256   0.100E-07
     Final TRS4 iteration    9 1.00000000   0.173E-12
     Chemical potential (mu):       0.00567
 
 PAO| energy:  -7.7576673233927922      penalty:   1.9819441980258366E-005
 PAO|LS| adapt:  T F T
 PAO|LS| adapt: scan_steps:    0.0000000000000000        0.0000000000000000       0.49075532123899196     
 PAO|LS| adapt: energies:   -7.7636483517015034        0.0000000000000000       -7.7576673233927922     
 PAO| ======================= Iteration:         8 =============================

     Lanczos converged:  T threshold:   0.100E-02
     Est. extremal eigenvalues:    0.285E+01   0.172E+00
     Est. condition number :    0.166E+02
     NS sqrt iter    1 1.00000000   0.724E+00       0.001       54.286
     NS sqrt iter    2 1.00000000   0.348E+00       0.001       94.927
     NS sqrt iter    3 1.00000000   0.861E-01       0.001       94.924
     NS sqrt iter    4 1.00000000   0.267E-02       0.001       96.370
     NS sqrt iter    5 1.00000000   0.161E-06       0.001       71.903
     Final NS sqrt iter    5 1.00000000   0.124E-08

     Est. extremal eigenvalues     -0.93496     1.68252  converged:  T
     TRS4 it   1 1.00000000   0.865E+00       0.000       16.128   0.100E-07
     TRS4 it   2 1.00000000   0.614E+00       0.001       32.256   0.100E-07
     TRS4 it   3 1.00000000   0.421E+00       0.001       32.256   0.100E-07
     TRS4 it   4 1.00000000   0.217E+00       0.001       32.256   0.100E-07
     TRS4 it   5 1.00000000   0.719E-01       0.001       32.256   0.100E-07
     TRS4 it   6 1.00000000   0.989E-02       0.001       32.256   0.100E-07
     TRS4 it   7 1.00000000   0.252E-03       0.001       32.256   0.100E-07
     TRS4 it   8 1.00000000   0.233E-06       0.001       32.256   0.100E-07
     TRS4 it   9 1.00000000   0.239E-12       0.001       32.256   0.100E-07
     Final TRS4 iteration    9 1.00000000   0.239E-12
     Chemical potential (mu):       0.00409
 
 PAO| energy:  -7.7833759079671641      penalty:   1.4160559293832972E-005
 PAO|LS| adapt:  T T T
 PAO|LS| adapt: scan_steps:    0.0000000000000000       0.24537766061949598       0.49075532123899196     
 PAO|LS| adapt: energies:   -7.7636483517015034       -7.7833759079671641       -7.7576673233927922     
 PAO|LS| adapt: suggested step_size:   0.22922740327636512     
 PAO|LS| adapt: predicted energy  -7.7834743227394361     
 PAO| ======================= Iteration:         9 =============================

     Lanczos converged:  T threshold:   0.100E-02
     Est. extremal eigenvalues:    0.285E+01   0.171E+00
     Est. condition number :    0.167E+02
     NS sqrt iter    1 1.00000000   0.725E+00       0.001       61.947
     NS sqrt iter    2 1.00000000   0.349E+00       0.001       78.652
     NS sqrt iter    3 1.00000000   0.866E-01       0.002       65.863
     NS sqrt iter    4 1.00000000   0.271E-02       0.002       64.866
     NS sqrt iter    5 1.00000000   0.169E-06       0.001       55.092
     Final NS sqrt iter    5 1.00000000   0.129E-08

     Est. extremal eigenvalues     -0.93490     1.68288  converged:  T
     TRS4 it   1 1.00000000   0.865E+00       0.000       16.128   0.100E-07
     TRS4 it   2 1.00000000   0.614E+00       0.001       32.256   0.100E-07
     TRS4 it   3 1.00000000   0.421E+00       0.001       32.256   0.100E-07
     TRS4 it   4 1.00000000   0.217E+00       0.001       32.256   0.100E-07
     TRS4 it   5 1.00000000   0.719E-01       0.001       32.256   0.100E-07
     TRS4 it   6 1.00000000   0.989E-02       0.001       32.256   0.100E-07
     TRS4 it   7 1.00000000   0.253E-03       0.001       32.256   0.100E-07
     TRS4 it   8 1.00000000   0.235E-06       0.001       32.256   0.100E-07
     TRS4 it   9 1.00000000   0.242E-12       0.001       32.256   0.100E-07
     Final TRS4 iteration    9 1.00000000   0.242E-12
     Chemical potential (mu):       0.00402
 
 PAO| energy:  -7.7834986761390637      penalty:   1.3986236437163560E-005
 PAO|CG| trace_G_new    3.7045756438400669E-002
 PAO|CG| trace_G_prev   0.17495995366843903     
 PAO|CG| trace_G_mix   -1.4597608100129526E-003
 PAO|CG| trace_D   0.17495995366843903     
 PAO|CG| trace_D_Gnew   1.4597608100129526E-003
 PAO|CG| beta:   0.22008188983282531     
 PAO| norm of gradient:  0.19247274206598883     
 PAO| energy improvement:  -1.9850324437560296E-002
 PAO| step      9                   -7.783498676  0.120E-01  0.229E+00     0.060
 PAO|LS| adapt:  T F F
 PAO|LS| adapt: scan_steps:    0.0000000000000000        0.0000000000000000        0.0000000000000000     
 PAO|LS| adapt: energies:   -7.7834986761390637        0.0000000000000000        0.0000000000000000     
 PAO| ======================= Iteration:        10 =============================

     Lanczos converged:  T threshold:   0.100E-02
     Est. extremal eigenvalues:    0.281E+01   0.177E+00
     Est. condition number :    0.159E+02
     NS sqrt iter    1 1.00000000   0.717E+00       0.001       58.329
     NS sqrt iter    2 1.00000000   0.340E+00       0.001       95.479
     NS sqrt iter    3 1.00000000   0.810E-01       0.002       70.323
     NS sqrt iter    4 1.00000000   0.223E-02       0.002       66.229
     NS sqrt iter    5 1.00000000   0.946E-07       0.002       48.623
     Final NS sqrt iter    5 1.00000000   0.108E-08

     Est. extremal eigenvalues     -0.93579     1.68101  converged:  T
     TRS4 it   1 1.00000000   0.864E+00       0.000       16.128   0.100E-07
     TRS4 it   2 1.00000000   0.613E+00       0.001       32.256   0.100E-07
     TRS4 it   3 1.00000000   0.420E+00       0.001       32.256   0.100E-07
     TRS4 it   4 1.00000000   0.215E+00       0.001       32.256   0.100E-07
     TRS4 it   5 1.00000000   0.701E-01       0.001       32.256   0.100E-07
     TRS4 it   6 1.00000000   0.935E-02       0.001       32.256   0.100E-07
     TRS4 it   7 1.00000000   0.222E-03       0.001       32.256   0.100E-07
     TRS4 it   8 1.00000000   0.176E-06       0.001       32.256   0.100E-07
     TRS4 it   9 1.00000000   0.135E-12       0.001       32.256   0.100E-07
     Final TRS4 iteration    9 1.00000000   0.135E-12
     Chemical potential (mu):       0.00720
 
 PAO| energy:  -7.7885691004066899      penalty:   1.4532518053982338E-005
 PAO|LS| adapt:  T T F
 PAO|LS| adapt: scan_steps:    0.0000000000000000       0.22922740327636512        0.0000000000000000     
 PAO|LS| adapt: energies:   -7.7834986761390637       -7.7885691004066899        0.0000000000000000     
 PAO| ======================= Iteration:        11 =============================

     Lanczos converged:  T threshold:   0.100E-02
     Est. extremal eigenvalues:    0.278E+01   0.182E+00
     Est. condition number :    0.152E+02
     NS sqrt iter    1 1.00000000   0.709E+00       0.001       56.001
     NS sqrt iter    2 1.00000000   0.332E+00       0.001       82.437
     NS sqrt iter    3 1.00000000   0.756E-01       0.001       90.884
     NS sqrt iter    4 1.00000000   0.182E-02       0.001       93.842
     NS sqrt iter    5 1.00000000   0.522E-07       0.001       57.759
     Final NS sqrt iter    5 1.00000000   0.337E-09

     Est. extremal eigenvalues     -0.93571     1.68056  converged:  T
     TRS4 it   1 1.00000000   0.864E+00       0.001       16.128   0.100E-07
     TRS4 it   2 1.00000000   0.613E+00       0.001       32.256   0.100E-07
     TRS4 it   3 1.00000000   0.419E+00       0.001       32.256   0.100E-07
     TRS4 it   4 1.00000000   0.213E+00       0.001       32.256   0.100E-07
     TRS4 it   5 1.00000000   0.685E-01       0.001       32.256   0.100E-07
     TRS4 it   6 1.00000000   0.885E-02       0.001       32.256   0.100E-07
     TRS4 it   7 1.00000000   0.195E-03       0.001       32.256   0.100E-07
     TRS4 it   8 1.00000000   0.132E-06       0.001       32.256   0.100E-07
     TRS4 it   9 1.00000000   0.750E-13       0.001       32.256   0.100E-07
     Final TRS4 iteration    9 1.00000000   0.750E-13
     Chemical potential (mu):       0.01049
 
 PAO| energy:  -7.7871867618591741      penalty:   1.5753557873061070E-005
 PAO|LS| adapt:  T T T
 PAO|LS| adapt: scan_steps:    0.0000000000000000       0.22922740327636512       0.45845480655273024     
 PAO|LS| adapt: energies:   -7.7834986761390637       -7.7885691004066899       -7.7871867618591741     
 PAO|LS| adapt: suggested step_size:   0.29473502666969104     
 PAO|LS| adapt: predicted energy  -7.7888325917333630     
 PAO| ======================= Iteration:        12 =============================

     Lanczos converged:  T threshold:   0.100E-02
     Est. extremal eigenvalues:    0.280E+01   0.178E+00
     Est. condition number :    0.157E+02
     NS sqrt iter    1 1.00000000   0.715E+00       0.001       59.966
     NS sqrt iter    2 1.00000000   0.338E+00       0.001       95.156
     NS sqrt iter    3 1.00000000   0.794E-01       0.001       81.545
     NS sqrt iter    4 1.00000000   0.210E-02       0.001       96.104
     NS sqrt iter    5 1.00000000   0.799E-07       0.001       68.396
     Final NS sqrt iter    5 1.00000000   0.835E-09

     Est. extremal eigenvalues     -0.93587     1.68074  converged:  T
     TRS4 it   1 1.00000000   0.864E+00       0.000       16.128   0.100E-07
     TRS4 it   2 1.00000000   0.613E+00       0.001       32.256   0.100E-07
     TRS4 it   3 1.00000000   0.420E+00       0.001       32.256   0.100E-07
     TRS4 it   4 1.00000000   0.214E+00       0.001       32.256   0.100E-07
     TRS4 it   5 1.00000000   0.697E-01       0.001       32.256   0.100E-07
     TRS4 it   6 1.00000000   0.921E-02       0.001       32.256   0.100E-07
     TRS4 it   7 1.00000000   0.214E-03       0.001       32.256   0.100E-07
     TRS4 it   8 1.00000000   0.162E-06       0.001       32.256   0.100E-07
     TRS4 it   9 1.00000000   0.114E-12       0.001       32.256   0.100E-07
     Final TRS4 iteration    9 1.00000000   0.114E-12
     Chemical potential (mu):       0.00813
 
 PAO| energy:  -7.7888162323908521      penalty:   1.4804804765961771E-005
 PAO|CG| trace_G_new    1.1902329488657650E-002
 PAO|CG| trace_G_prev    3.7045756438400669E-002
 PAO|CG| trace_G_mix   -4.5608203299994220E-004
 PAO|CG| trace_D    4.4877589607878896E-002
 PAO|CG| trace_D_Gnew   2.0645785247071246E-004
 PAO|CG| beta:   0.33359857402850013     
 PAO| norm of gradient:  0.10909779781763540     
 PAO| energy improvement:  -5.3175562517884245E-003
 PAO| step     12                   -7.788816232  0.682E-02  0.295E+00     0.063
 PAO|LS| adapt:  T F F
 PAO|LS| adapt: scan_steps:    0.0000000000000000        0.0000000000000000        0.0000000000000000     
 PAO|LS| adapt: energies:   -7.7888162323908521        0.0000000000000000        0.0000000000000000     
 PAO| ======================= Iteration:        13 =============================

     Lanczos converged:  T threshold:   0.100E-02
     Est. extremal eigenvalues:    0.277E+01   0.182E+00
     Est. condition number :    0.152E+02
     NS sqrt iter    1 1.00000000   0.708E+00       0.001       56.902
     NS sqrt iter    2 1.00000000   0.331E+00       0.001       88.738
     NS sqrt iter    3 1.00000000   0.750E-01       0.001       98.864
     NS sqrt iter    4 1.00000000   0.179E-02       0.001       86.518
     NS sqrt iter    5 1.00000000   0.500E-07       0.001       68.009
     Final NS sqrt iter    5 1.00000000   0.342E-09

     Est. extremal eigenvalues     -0.93635     1.67543  converged:  T
     TRS4 it   1 1.00000000   0.864E+00       0.000       16.128   0.100E-07
     TRS4 it   2 1.00000000   0.610E+00       0.001       32.256   0.100E-07
     TRS4 it   3 1.00000000   0.416E+00       0.001       32.256   0.100E-07
     TRS4 it   4 1.00000000   0.210E+00       0.001       32.256   0.100E-07
     TRS4 it   5 1.00000000   0.662E-01       0.001       32.256   0.100E-07
     TRS4 it   6 1.00000000   0.826E-02       0.001       32.256   0.100E-07
     TRS4 it   7 1.00000000   0.170E-03       0.001       32.256   0.100E-07
     TRS4 it   8 1.00000000   0.998E-07       0.001       32.256   0.100E-07
     TRS4 it   9 1.00000000   0.427E-13       0.001       32.256   0.100E-07
     Final TRS4 iteration    9 1.00000000   0.427E-13
     Chemical potential (mu):       0.01272
 
 PAO| energy:  -7.7909007424009706      penalty:   1.5123417085851925E-005
 PAO|LS| adapt:  T T F
 PAO|LS| adapt: scan_steps:    0.0000000000000000       0.29473502666969104        0.0000000000000000     
 PAO|LS| adapt: energies:   -7.7888162323908521       -7.7909007424009706        0.0000000000000000     
 PAO| ======================= Iteration:        14 =============================

     Lanczos converged:  T threshold:   0.100E-02
     Est. extremal eigenvalues:    0.273E+01   0.187E+00
     Est. condition number :    0.147E+02
     NS sqrt iter    1 1.00000000   0.700E+00       0.001       55.679
     NS sqrt iter    2 1.00000000   0.324E+00       0.001       90.813
     NS sqrt iter    3 1.00000000   0.709E-01       0.001       84.194
     NS sqrt iter    4 1.00000000   0.152E-02       0.001       74.159
     NS sqrt iter    5 1.00000000   0.309E-07       0.001       54.535
     Final NS sqrt iter    5 1.00000000   0.390E-08

     Est. extremal eigenvalues     -0.93633     1.67043  converged:  T
     TRS4 it   1 1.00000000   0.863E+00       0.000       16.128   0.100E-07
     TRS4 it   2 1.00000000   0.608E+00       0.001       32.256   0.100E-07
     TRS4 it   3 1.00000000   0.412E+00       0.001       32.256   0.100E-07
     TRS4 it   4 1.00000000   0.205E+00       0.001       32.256   0.100E-07
     TRS4 it   5 1.00000000   0.630E-01       0.001       32.256   0.100E-07
     TRS4 it   6 1.00000000   0.743E-02       0.001       32.256   0.100E-07
     TRS4 it   7 1.00000000   0.135E-03       0.001       32.256   0.100E-07
     TRS4 it   8 1.00000000   0.615E-07       0.001       32.256   0.100E-07
     Final TRS4 iteration    8 1.00000000   0.615E-07
     Chemical potential (mu):       0.01450
 
 PAO| energy:  -7.7902293458555798      penalty:   1.5931305443512290E-005
 PAO|LS| adapt:  T T T
 PAO|LS| adapt: scan_steps:    0.0000000000000000       0.29473502666969104       0.58947005333938207     
 PAO|LS| adapt: energies:   -7.7888162323908521       -7.7909007424009706       -7.7902293458555798     
 PAO|LS| adapt: suggested step_size:   0.37029891577928414     
 PAO|LS| adapt: predicted energy  -7.7909913155764388     
 PAO| ======================= Iteration:        15 =============================

     Lanczos converged:  T threshold:   0.100E-02
     Est. extremal eigenvalues:    0.276E+01   0.184E+00
     Est. condition number :    0.150E+02
     NS sqrt iter    1 1.00000000   0.706E+00       0.001       60.354
     NS sqrt iter    2 1.00000000   0.329E+00       0.001       96.414
     NS sqrt iter    3 1.00000000   0.739E-01       0.001       97.712
     NS sqrt iter    4 1.00000000   0.172E-02       0.001       94.544
     NS sqrt iter    5 1.00000000   0.443E-07       0.001       65.614
     Final NS sqrt iter    5 1.00000000   0.345E-09

     Est. extremal eigenvalues     -0.93640     1.67412  converged:  T
     TRS4 it   1 1.00000000   0.864E+00       0.000       16.128   0.100E-07
     TRS4 it   2 1.00000000   0.610E+00       0.001       32.256   0.100E-07
     TRS4 it   3 1.00000000   0.415E+00       0.001       32.256   0.100E-07
     TRS4 it   4 1.00000000   0.208E+00       0.001       32.256   0.100E-07
     TRS4 it   5 1.00000000   0.654E-01       0.001       32.256   0.100E-07
     TRS4 it   6 1.00000000   0.804E-02       0.001       32.256   0.100E-07
     TRS4 it   7 1.00000000   0.160E-03       0.001       32.256   0.100E-07
     TRS4 it   8 1.00000000   0.881E-07       0.001       32.256   0.100E-07
     TRS4 it   9 1.00000000   0.337E-13       0.001       32.256   0.100E-07
     Final TRS4 iteration    9 1.00000000   0.337E-13
     Chemical potential (mu):       0.01388
 
 PAO| energy:  -7.7909882747377130      penalty:   1.5280833677333835E-005
 PAO|CG| trace_G_new    2.6271741711899927E-003
 PAO|CG| trace_G_prev    1.1902329488657650E-002
 PAO|CG| trace_G_mix    6.4469765722786090E-005
 PAO|CG| trace_D    1.6758918976248052E-002
 PAO|CG| trace_D_Gnew   3.4659003232626618E-005
 PAO|CG| beta:   0.21531116307184581     
 PAO| norm of gradient:   5.1255967176417547E-002
 PAO| energy improvement:  -2.1720423468609695E-003
 PAO| step     15                   -7.790988275  0.320E-02  0.370E+00     0.058
 PAO|LS| adapt:  T F F
 PAO|LS| adapt: scan_steps:    0.0000000000000000        0.0000000000000000        0.0000000000000000     
 PAO|LS| adapt: energies:   -7.7909882747377130        0.0000000000000000        0.0000000000000000     
 PAO| ======================= Iteration:        16 =============================

     Lanczos converged:  T threshold:   0.100E-02
     Est. extremal eigenvalues:    0.275E+01   0.184E+00
     Est. condition number :    0.149E+02
     NS sqrt iter    1 1.00000000   0.704E+00       0.002       42.325
     NS sqrt iter    2 1.00000000   0.328E+00       0.002       65.880
     NS sqrt iter    3 1.00000000   0.733E-01       0.002       65.543
     NS sqrt iter    4 1.00000000   0.167E-02       0.002       66.558
     NS sqrt iter    5 1.00000000   0.404E-07       0.001       46.266
     Final NS sqrt iter    5 1.00000000   0.312E-09

     Est. extremal eigenvalues     -0.93642     1.67424  converged:  T
     TRS4 it   1 1.00000000   0.864E+00       0.000       16.128   0.100E-07
     TRS4 it   2 1.00000000   0.609E+00       0.001       32.256   0.100E-07
     TRS4 it   3 1.00000000   0.414E+00       0.001       32.256   0.100E-07
     TRS4 it   4 1.00000000   0.207E+00       0.001       32.256   0.100E-07
     TRS4 it   5 1.00000000   0.643E-01       0.001       32.256   0.100E-07
     TRS4 it   6 1.00000000   0.779E-02       0.001       32.256   0.100E-07
     TRS4 it   7 1.00000000   0.151E-03       0.001       32.256   0.100E-07
     TRS4 it   8 1.00000000   0.792E-07       0.001       32.256   0.100E-07
     Final TRS4 iteration    8 1.00000000   0.792E-07
     Chemical potential (mu):       0.01253
 
 PAO| energy:  -7.7911151049334180      penalty:   1.5063945357025866E-005
 PAO|LS| adapt:  T T F
 PAO|LS| adapt: scan_steps:    0.0000000000000000       0.37029891577928414        0.0000000000000000     
 PAO|LS| adapt: energies:   -7.7909882747377130       -7.7911151049334180        0.0000000000000000     
 PAO| ======================= Iteration:        17 =============================

     Lanczos converged:  T threshold:   0.100E-02
     Est. extremal eigenvalues:    0.274E+01   0.185E+00
     Est. condition number :    0.148E+02
     NS sqrt iter    1 1.00000000   0.702E+00       0.002       41.211
     NS sqrt iter    2 1.00000000   0.326E+00       0.002       64.808
     NS sqrt iter    3 1.00000000   0.726E-01       0.002       65.008
     NS sqrt iter    4 1.00000000   0.162E-02       0.001       90.369
     NS sqrt iter    5 1.00000000   0.369E-07       0.001       61.722
     Final NS sqrt iter    5 1.00000000   0.341E-09

     Est. extremal eigenvalues     -0.93633     1.67444  converged:  T
     TRS4 it   1 1.00000000   0.865E+00       0.000       16.128   0.100E-07
     TRS4 it   2 1.00000000   0.608E+00       0.001       32.256   0.100E-07
     TRS4 it   3 1.00000000   0.412E+00       0.001       32.256   0.100E-07
     TRS4 it   4 1.00000000   0.205E+00       0.001       32.256   0.100E-07
     TRS4 it   5 1.00000000   0.633E-01       0.001       32.256   0.100E-07
     TRS4 it   6 1.00000000   0.755E-02       0.001       32.256   0.100E-07
     TRS4 it   7 1.00000000   0.143E-03       0.001       32.256   0.100E-07
     TRS4 it   8 1.00000000   0.714E-07       0.001       32.256   0.100E-07
     Final TRS4 iteration    8 1.00000000   0.714E-07
     Chemical potential (mu):       0.01350
 
 PAO| energy:  -7.7895499655755769      penalty:   1.4973066668961591E-005
 PAO|LS| adapt:  T T T
 PAO|LS| adapt: scan_steps:    0.0000000000000000       0.37029891577928414       0.74059783155856829     
 PAO|LS| adapt: energies:   -7.7909882747377130       -7.7911151049334180       -7.7895499655755769     
 PAO|LS| adapt: suggested step_size:   0.21290709918949724     
 PAO|LS| adapt: predicted energy  -7.7912679396314148     
 PAO| ======================= Iteration:        18 =============================

     Lanczos converged:  T threshold:   0.100E-02
     Est. extremal eigenvalues:    0.276E+01   0.184E+00
     Est. condition number :    0.150E+02
     NS sqrt iter    1 1.00000000   0.705E+00       0.002       41.650
     NS sqrt iter    2 1.00000000   0.328E+00       0.002       68.639
     NS sqrt iter    3 1.00000000   0.736E-01       0.001       86.285
     NS sqrt iter    4 1.00000000   0.169E-02       0.001       91.190
     NS sqrt iter    5 1.00000000   0.420E-07       0.001       66.663
     Final NS sqrt iter    5 1.00000000   0.350E-09

     Est. extremal eigenvalues     -0.93643     1.67418  converged:  T
     TRS4 it   1 1.00000000   0.864E+00       0.000       16.128   0.100E-07
     TRS4 it   2 1.00000000   0.609E+00       0.001       32.256   0.100E-07
     TRS4 it   3 1.00000000   0.414E+00       0.001       32.256   0.100E-07
     TRS4 it   4 1.00000000   0.208E+00       0.001       32.256   0.100E-07
     TRS4 it   5 1.00000000   0.648E-01       0.001       32.256   0.100E-07
     TRS4 it   6 1.00000000   0.790E-02       0.001       32.256   0.100E-07
     TRS4 it   7 1.00000000   0.155E-03       0.001       32.256   0.100E-07
     TRS4 it   8 1.00000000   0.829E-07       0.001       32.256   0.100E-07
     TRS4 it   9 1.00000000   0.300E-13       0.001       32.256   0.100E-07
     Final TRS4 iteration    9 1.00000000   0.300E-13
     Chemical potential (mu):       0.01436
 
 PAO| energy:  -7.7912675407414520      penalty:   1.5141004934273943E-005
 PAO|CG| trace_G_new    7.3443518929992835E-004
 PAO|CG| trace_G_prev    2.6271741711899927E-003
 PAO|CG| trace_G_mix    2.2010089631867782E-006
 PAO|CG| trace_D    3.3891742282979895E-003
 PAO|CG| trace_D_Gnew  -2.1194920774895187E-006
 PAO|CG| beta:   0.27871550670927620     
 PAO| norm of gradient:   2.7100464743246164E-002
 PAO| energy improvement:  -2.7926600373895383E-004
 PAO| step     18                   -7.791267541  0.169E-02  0.213E+00     0.065
 PAO|LS| adapt:  T F F
 PAO|LS| adapt: scan_steps:    0.0000000000000000        0.0000000000000000        0.0000000000000000     
 PAO|LS| adapt: energies:   -7.7912675407414520        0.0000000000000000        0.0000000000000000     
 PAO| ======================= Iteration:        19 =============================

     Lanczos converged:  T threshold:   0.100E-02
     Est. extremal eigenvalues:    0.276E+01   0.184E+00
     Est. condition number :    0.150E+02
     NS sqrt iter    1 1.00000000   0.705E+00       0.002       40.275
     NS sqrt iter    2 1.00000000   0.328E+00       0.002       65.216
     NS sqrt iter    3 1.00000000   0.738E-01       0.001       91.905
     NS sqrt iter    4 1.00000000   0.170E-02       0.001       88.650
     NS sqrt iter    5 1.00000000   0.424E-07       0.001       63.840
     Final NS sqrt iter    5 1.00000000   0.357E-09

     Est. extremal eigenvalues     -0.93643     1.67459  converged:  T
     TRS4 it   1 1.00000000   0.864E+00       0.000       16.128   0.100E-07
     TRS4 it   2 1.00000000   0.609E+00       0.001       32.256   0.100E-07
     TRS4 it   3 1.00000000   0.414E+00       0.001       32.256   0.100E-07
     TRS4 it   4 1.00000000   0.207E+00       0.001       32.256   0.100E-07
     TRS4 it   5 1.00000000   0.647E-01       0.001       32.256   0.100E-07
     TRS4 it   6 1.00000000   0.789E-02       0.001       32.256   0.100E-07
     TRS4 it   7 1.00000000   0.156E-03       0.001       32.256   0.100E-07
     TRS4 it   8 1.00000000   0.842E-07       0.001       32.256   0.100E-07
     TRS4 it   9 1.00000000   0.308E-13       0.001       32.256   0.100E-07
     Final TRS4 iteration    9 1.00000000   0.308E-13
     Chemical potential (mu):       0.01410
 
 PAO| energy:  -7.7913868519646643      penalty:   1.4850935291596296E-005
 PAO|LS| adapt:  T T F
 PAO|LS| adapt: scan_steps:    0.0000000000000000       0.21290709918949724        0.0000000000000000     
 PAO|LS| adapt: energies:   -7.7912675407414520       -7.7913868519646643        0.0000000000000000     
 PAO| ======================= Iteration:        20 =============================

     Lanczos converged:  T threshold:   0.100E-02
     Est. extremal eigenvalues:    0.276E+01   0.184E+00
     Est. condition number :    0.150E+02
     NS sqrt iter    1 1.00000000   0.705E+00       0.001       44.042
     NS sqrt iter    2 1.00000000   0.329E+00       0.002       65.456
     NS sqrt iter    3 1.00000000   0.740E-01       0.002       66.570
     NS sqrt iter    4 1.00000000   0.171E-02       0.002       65.492
     NS sqrt iter    5 1.00000000   0.428E-07       0.001       49.304
     Final NS sqrt iter    5 1.00000000   0.343E-09

     Est. extremal eigenvalues     -0.93643     1.67501  converged:  T
     TRS4 it   1 1.00000000   0.864E+00       0.000       16.128   0.100E-07
     TRS4 it   2 1.00000000   0.609E+00       0.001       32.256   0.100E-07
     TRS4 it   3 1.00000000   0.414E+00       0.001       32.256   0.100E-07
     TRS4 it   4 1.00000000   0.207E+00       0.001       32.256   0.100E-07
     TRS4 it   5 1.00000000   0.646E-01       0.001       32.256   0.100E-07
     TRS4 it   6 1.00000000   0.788E-02       0.001       32.256   0.100E-07
     TRS4 it   7 1.00000000   0.156E-03       0.001       32.256   0.100E-07
     TRS4 it   8 1.00000000   0.856E-07       0.001       32.256   0.100E-07
     TRS4 it   9 1.00000000   0.320E-13       0.001       32.256   0.100E-07
     Final TRS4 iteration    9 1.00000000   0.320E-13
     Chemical potential (mu):       0.01383
 
 PAO| energy:  -7.7914313877608974      penalty:   1.4573399025784866E-005
 PAO|LS| adapt:  T T F
 PAO|LS| adapt: scan_steps:    0.0000000000000000       0.42581419837899448        0.0000000000000000     
 PAO|LS| adapt: energies:   -7.7912675407414520       -7.7914313877608974        0.0000000000000000     
 PAO| ======================= Iteration:        21 =============================

     Lanczos converged:  T threshold:   0.100E-02
     Est. extremal eigenvalues:    0.276E+01   0.183E+00
     Est. condition number :    0.150E+02
     NS sqrt iter    1 1.00000000   0.704E+00       0.001       52.163
     NS sqrt iter    2 1.00000000   0.329E+00       0.001       87.607
     NS sqrt iter    3 1.00000000   0.744E-01       0.001       90.898
     NS sqrt iter    4 1.00000000   0.173E-02       0.001       99.270
     NS sqrt iter    5 1.00000000   0.438E-07       0.001       68.814
     Final NS sqrt iter    5 1.00000000   0.357E-09

     Est. extremal eigenvalues     -0.93642     1.67585  converged:  T
     TRS4 it   1 1.00000000   0.864E+00       0.001       16.128   0.100E-07
     TRS4 it   2 1.00000000   0.609E+00       0.001       32.256   0.100E-07
     TRS4 it   3 1.00000000   0.414E+00       0.001       32.256   0.100E-07
     TRS4 it   4 1.00000000   0.207E+00       0.001       32.256   0.100E-07
     TRS4 it   5 1.00000000   0.644E-01       0.001       32.256   0.100E-07
     TRS4 it   6 1.00000000   0.787E-02       0.001       32.256   0.100E-07
     TRS4 it   7 1.00000000   0.157E-03       0.001       32.256   0.100E-07
     TRS4 it   8 1.00000000   0.885E-07       0.001       32.256   0.100E-07
     TRS4 it   9 1.00000000   0.344E-13       0.001       32.256   0.100E-07
     Final TRS4 iteration    9 1.00000000   0.344E-13
     Chemical potential (mu):       0.01330
 
 PAO| energy:  -7.7912936602002567      penalty:   1.4055356682657488E-005
 PAO|LS| Need extra step
 PAO|LS| adapt:  T T T
 PAO|LS| adapt: scan_steps:    0.0000000000000000       0.42581419837899448       0.85162839675798896     
 PAO|LS| adapt: energies:   -7.7912675407414520       -7.7914313877608974       -7.7912936602002567     
 PAO|LS| adapt: suggested step_size:   0.44425414184148015     
 PAO|LS| adapt: predicted energy  -7.7914316705376034     
 PAO| ======================= Iteration:        22 =============================

     Lanczos converged:  T threshold:   0.100E-02
     Est. extremal eigenvalues:    0.276E+01   0.184E+00
     Est. condition number :    0.150E+02
     NS sqrt iter    1 1.00000000   0.705E+00       0.001       59.196
     NS sqrt iter    2 1.00000000   0.329E+00       0.001       95.870
     NS sqrt iter    3 1.00000000   0.740E-01       0.001       84.421
     NS sqrt iter    4 1.00000000   0.171E-02       0.001       93.557
     NS sqrt iter    5 1.00000000   0.429E-07       0.001       63.067
     Final NS sqrt iter    5 1.00000000   0.344E-09

     Est. extremal eigenvalues     -0.93643     1.67504  converged:  T
     TRS4 it   1 1.00000000   0.864E+00       0.000       16.128   0.100E-07
     TRS4 it   2 1.00000000   0.609E+00       0.001       32.256   0.100E-07
     TRS4 it   3 1.00000000   0.414E+00       0.001       32.256   0.100E-07
     TRS4 it   4 1.00000000   0.207E+00       0.001       32.256   0.100E-07
     TRS4 it   5 1.00000000   0.646E-01       0.001       32.256   0.100E-07
     TRS4 it   6 1.00000000   0.788E-02       0.001       32.256   0.100E-07
     TRS4 it   7 1.00000000   0.156E-03       0.001       32.256   0.100E-07
     TRS4 it   8 1.00000000   0.857E-07       0.001       32.256   0.100E-07
     TRS4 it   9 1.00000000   0.324E-13       0.001       32.256   0.100E-07
     Final TRS4 iteration    9 1.00000000   0.324E-13
     Chemical potential (mu):       0.01381
 
 PAO| energy:  -7.7914317062879030      penalty:   1.4549945534442917E-005
 PAO|CG| trace_G_new    2.2642067721752570E-004
 PAO|CG| trace_G_prev    7.3443518929992835E-004
 PAO|CG| trace_G_mix    3.0173597687284973E-006
 PAO|CG| trace_D    9.9889562321962399E-004
 PAO|CG| trace_D_Gnew  -1.9319131084459643E-006
 PAO|CG| beta:   0.30418384181965419     
 PAO| norm of gradient:   1.5047281389590801E-002
 PAO| energy improvement:  -1.6416554645104497E-004
 PAO| step     22                   -7.791431706  0.940E-03  0.444E+00     0.081
 PAO|LS| adapt:  T F F
 PAO|LS| adapt: scan_steps:    0.0000000000000000        0.0000000000000000        0.0000000000000000     
 PAO|LS| adapt: energies:   -7.7914317062879030        0.0000000000000000        0.0000000000000000     
 PAO| ======================= Iteration:        23 =============================

     Lanczos converged:  T threshold:   0.100E-02
     Est. extremal eigenvalues:    0.276E+01   0.184E+00
     Est. condition number :    0.150E+02
     NS sqrt iter    1 1.00000000   0.704E+00       0.001       57.009
     NS sqrt iter    2 1.00000000   0.329E+00       0.001       94.506
     NS sqrt iter    3 1.00000000   0.740E-01       0.001       97.997
     NS sqrt iter    4 1.00000000   0.171E-02       0.001       77.848
     NS sqrt iter    5 1.00000000   0.430E-07       0.001       65.546
     Final NS sqrt iter    5 1.00000000   0.347E-09

     Est. extremal eigenvalues     -0.93643     1.67504  converged:  T
     TRS4 it   1 1.00000000   0.864E+00       0.000       16.128   0.100E-07
     TRS4 it   2 1.00000000   0.609E+00       0.001       32.256   0.100E-07
     TRS4 it   3 1.00000000   0.414E+00       0.001       32.256   0.100E-07
     TRS4 it   4 1.00000000   0.207E+00       0.001       32.256   0.100E-07
     TRS4 it   5 1.00000000   0.647E-01       0.001       32.256   0.100E-07
     TRS4 it   6 1.00000000   0.792E-02       0.001       32.256   0.100E-07
     TRS4 it   7 1.00000000   0.158E-03       0.001       32.256   0.100E-07
     TRS4 it   8 1.00000000   0.879E-07       0.001       32.256   0.100E-07
     TRS4 it   9 1.00000000   0.336E-13       0.001       32.256   0.100E-07
     Final TRS4 iteration    9 1.00000000   0.336E-13
     Chemical potential (mu):       0.01353
 
 PAO| energy:  -7.7914818360191678      penalty:   1.3865570254755036E-005
 PAO|LS| adapt:  T T F
 PAO|LS| adapt: scan_steps:    0.0000000000000000       0.44425414184148015        0.0000000000000000     
 PAO|LS| adapt: energies:   -7.7914317062879030       -7.7914818360191678        0.0000000000000000     
 PAO| ======================= Iteration:        24 =============================

     Lanczos converged:  T threshold:   0.100E-02
     Est. extremal eigenvalues:    0.276E+01   0.184E+00
     Est. condition number :    0.150E+02
     NS sqrt iter    1 1.00000000   0.704E+00       0.001       43.107
     NS sqrt iter    2 1.00000000   0.329E+00       0.001       88.099
     NS sqrt iter    3 1.00000000   0.741E-01       0.001       88.150
     NS sqrt iter    4 1.00000000   0.171E-02       0.001       86.679
     NS sqrt iter    5 1.00000000   0.431E-07       0.001       66.767
     Final NS sqrt iter    5 1.00000000   0.350E-09

     Est. extremal eigenvalues     -0.93642     1.67503  converged:  T
     TRS4 it   1 1.00000000   0.864E+00       0.000       16.128   0.100E-07
     TRS4 it   2 1.00000000   0.609E+00       0.001       32.256   0.100E-07
     TRS4 it   3 1.00000000   0.414E+00       0.001       32.256   0.100E-07
     TRS4 it   4 1.00000000   0.207E+00       0.001       32.256   0.100E-07
     TRS4 it   5 1.00000000   0.648E-01       0.001       32.256   0.100E-07
     TRS4 it   6 1.00000000   0.795E-02       0.001       32.256   0.100E-07
     TRS4 it   7 1.00000000   0.160E-03       0.001       32.256   0.100E-07
     TRS4 it   8 1.00000000   0.900E-07       0.001       32.256   0.100E-07
     TRS4 it   9 1.00000000   0.353E-13       0.001       32.256   0.100E-07
     Final TRS4 iteration    9 1.00000000   0.353E-13
     Chemical potential (mu):       0.01324
 
 PAO| energy:  -7.7914298621080649      penalty:   1.3209792301242048E-005
 PAO|LS| adapt:  T T T
 PAO|LS| adapt: scan_steps:    0.0000000000000000       0.44425414184148015       0.88850828368296031     
 PAO|LS| adapt: energies:   -7.7914317062879030       -7.7914818360191678       -7.7914298621080649     
 PAO|LS| adapt: suggested step_size:   0.44024211782151879     
 PAO|LS| adapt: predicted energy  -7.7914818401828274     
 PAO| ======================= Iteration:        25 =============================

     Lanczos converged:  T threshold:   0.100E-02
     Est. extremal eigenvalues:    0.276E+01   0.184E+00
     Est. condition number :    0.150E+02
     NS sqrt iter    1 1.00000000   0.704E+00       0.001       55.533
     NS sqrt iter    2 1.00000000   0.329E+00       0.001       84.968
     NS sqrt iter    3 1.00000000   0.740E-01       0.001       87.819
     NS sqrt iter    4 1.00000000   0.171E-02       0.002       68.376
     NS sqrt iter    5 1.00000000   0.430E-07       0.002       45.946
     Final NS sqrt iter    5 1.00000000   0.347E-09

     Est. extremal eigenvalues     -0.93643     1.67504  converged:  T
     TRS4 it   1 1.00000000   0.864E+00       0.001       16.128   0.100E-07
     TRS4 it   2 1.00000000   0.609E+00       0.001       32.256   0.100E-07
     TRS4 it   3 1.00000000   0.414E+00       0.001       32.256   0.100E-07
     TRS4 it   4 1.00000000   0.207E+00       0.001       32.256   0.100E-07
     TRS4 it   5 1.00000000   0.647E-01       0.001       32.256   0.100E-07
     TRS4 it   6 1.00000000   0.792E-02       0.001       32.256   0.100E-07
     TRS4 it   7 1.00000000   0.158E-03       0.001       32.256   0.100E-07
     TRS4 it   8 1.00000000   0.878E-07       0.001       32.256   0.100E-07
     TRS4 it   9 1.00000000   0.331E-13       0.001       32.256   0.100E-07
     Final TRS4 iteration    9 1.00000000   0.331E-13
     Chemical potential (mu):       0.01353
 
 PAO| energy:  -7.7914818386826807      penalty:   1.3871621910209552E-005
 PAO|CG| trace_G_new    8.1682568427120431E-005
 PAO|CG| trace_G_prev    2.2642067721752570E-004
 PAO|CG| trace_G_mix    7.5620541462366528E-007
 PAO|CG| trace_D    3.2002161477997989E-004
 PAO|CG| trace_D_Gnew  -3.7395395545087403E-007
 PAO|CG| beta:   0.35741595691258182     
 PAO| norm of gradient:   9.0378409162321753E-003
 PAO| energy improvement:  -5.0132394777691047E-005
 PAO| step     25                   -7.791481839  0.565E-03  0.440E+00     0.064
 PAO|LS| adapt:  T F F
 PAO|LS| adapt: scan_steps:    0.0000000000000000        0.0000000000000000        0.0000000000000000     
 PAO|LS| adapt: energies:   -7.7914818386826807        0.0000000000000000        0.0000000000000000     
 PAO| ======================= Iteration:        26 =============================

     Lanczos converged:  T threshold:   0.100E-02
     Est. extremal eigenvalues:    0.276E+01   0.184E+00
     Est. condition number :    0.150E+02
     NS sqrt iter    1 1.00000000   0.704E+00       0.001       60.180
     NS sqrt iter    2 1.00000000   0.329E+00       0.001       94.747
     NS sqrt iter    3 1.00000000   0.739E-01       0.001       93.805
     NS sqrt iter    4 1.00000000   0.170E-02       0.002       66.324
     NS sqrt iter    5 1.00000000   0.428E-07       0.002       44.748
     Final NS sqrt iter    5 1.00000000   0.366E-09

     Est. extremal eigenvalues     -0.93643     1.67491  converged:  T
     TRS4 it   1 1.00000000   0.864E+00       0.001       16.128   0.100E-07
     TRS4 it   2 1.00000000   0.609E+00       0.001       32.256   0.100E-07
     TRS4 it   3 1.00000000   0.414E+00       0.001       32.256   0.100E-07
     TRS4 it   4 1.00000000   0.207E+00       0.001       32.256   0.100E-07
     TRS4 it   5 1.00000000   0.646E-01       0.001       32.256   0.100E-07
     TRS4 it   6 1.00000000   0.790E-02       0.001       32.256   0.100E-07
     TRS4 it   7 1.00000000   0.157E-03       0.001       32.256   0.100E-07
     TRS4 it   8 1.00000000   0.867E-07       0.001       32.256   0.100E-07
     TRS4 it   9 1.00000000   0.327E-13       0.001       32.256   0.100E-07
     Final TRS4 iteration    9 1.00000000   0.327E-13
     Chemical potential (mu):       0.01367
 
 PAO| energy:  -7.7914863580234179      penalty:   1.3148242396453473E-005
 PAO|LS| adapt:  T T F
 PAO|LS| adapt: scan_steps:    0.0000000000000000       0.44024211782151879        0.0000000000000000     
 PAO|LS| adapt: energies:   -7.7914818386826807       -7.7914863580234179        0.0000000000000000     
 PAO| ======================= Iteration:        27 =============================

     Lanczos converged:  T threshold:   0.100E-02
     Est. extremal eigenvalues:    0.275E+01   0.184E+00
     Est. condition number :    0.150E+02
     NS sqrt iter    1 1.00000000   0.704E+00       0.001       60.412
     NS sqrt iter    2 1.00000000   0.328E+00       0.001       96.506
     NS sqrt iter    3 1.00000000   0.738E-01       0.001       76.412
     NS sqrt iter    4 1.00000000   0.170E-02       0.001       88.617
     NS sqrt iter    5 1.00000000   0.426E-07       0.001       65.396
     Final NS sqrt iter    5 1.00000000   0.363E-09

     Est. extremal eigenvalues     -0.93643     1.67478  converged:  T
     TRS4 it   1 1.00000000   0.864E+00       0.000       16.128   0.100E-07
     TRS4 it   2 1.00000000   0.609E+00       0.001       32.256   0.100E-07
     TRS4 it   3 1.00000000   0.414E+00       0.001       32.256   0.100E-07
     TRS4 it   4 1.00000000   0.207E+00       0.001       32.256   0.100E-07
     TRS4 it   5 1.00000000   0.646E-01       0.001       32.256   0.100E-07
     TRS4 it   6 1.00000000   0.788E-02       0.001       32.256   0.100E-07
     TRS4 it   7 1.00000000   0.156E-03       0.001       32.256   0.100E-07
     TRS4 it   8 1.00000000   0.855E-07       0.001       32.256   0.100E-07
     TRS4 it   9 1.00000000   0.317E-13       0.001       32.256   0.100E-07
     Final TRS4 iteration    9 1.00000000   0.317E-13
     Chemical potential (mu):       0.01382
 
 PAO| energy:  -7.7914277649882608      penalty:   1.2448630908915162E-005
 PAO|LS| adapt:  T T T
 PAO|LS| adapt: scan_steps:    0.0000000000000000       0.44024211782151879       0.88048423564303757     
 PAO|LS| adapt: energies:   -7.7914818386826807       -7.7914863580234179       -7.7914277649882608     
 PAO|LS| adapt: suggested step_size:   0.25164584480430618     
 PAO|LS| adapt: predicted energy  -7.7914921492101437     
 PAO| ======================= Iteration:        28 =============================

     Lanczos converged:  T threshold:   0.100E-02
     Est. extremal eigenvalues:    0.276E+01   0.184E+00
     Est. condition number :    0.150E+02
     NS sqrt iter    1 1.00000000   0.704E+00       0.001       59.939
     NS sqrt iter    2 1.00000000   0.329E+00       0.001       86.528
     NS sqrt iter    3 1.00000000   0.740E-01       0.001       94.970
     NS sqrt iter    4 1.00000000   0.171E-02       0.001      100.271
     NS sqrt iter    5 1.00000000   0.428E-07       0.001       66.706
     Final NS sqrt iter    5 1.00000000   0.346E-09

     Est. extremal eigenvalues     -0.93643     1.67497  converged:  T
     TRS4 it   1 1.00000000   0.864E+00       0.000       16.128   0.100E-07
     TRS4 it   2 1.00000000   0.609E+00       0.001       32.256   0.100E-07
     TRS4 it   3 1.00000000   0.414E+00       0.001       32.256   0.100E-07
     TRS4 it   4 1.00000000   0.207E+00       0.001       32.256   0.100E-07
     TRS4 it   5 1.00000000   0.647E-01       0.001       32.256   0.100E-07
     TRS4 it   6 1.00000000   0.791E-02       0.001       32.256   0.100E-07
     TRS4 it   7 1.00000000   0.157E-03       0.001       32.256   0.100E-07
     TRS4 it   8 1.00000000   0.872E-07       0.001       32.256   0.100E-07
     TRS4 it   9 1.00000000   0.327E-13       0.001       32.256   0.100E-07
     Final TRS4 iteration    9 1.00000000   0.327E-13
     Chemical potential (mu):       0.01361
 
 PAO| energy:  -7.7914921388250997      penalty:   1.3455203182700859E-005
 PAO|CG| trace_G_new    3.2684875927572121E-005
 PAO|CG| trace_G_prev    8.1682568427120431E-005
 PAO|CG| trace_G_mix    5.5053497934756642E-008
 PAO|CG| trace_D    1.2283141705589042E-004
 PAO|CG| trace_D_Gnew  -2.5484763718057682E-008
 PAO|CG| beta:   0.39947106289575895     
 PAO| norm of gradient:   5.7170688230571550E-003
 PAO| energy improvement:  -1.0300142418984137E-005
 PAO| step     28                   -7.791492139  0.357E-03  0.252E+00     0.062
 PAO|LS| adapt:  T F F
 PAO|LS| adapt: scan_steps:    0.0000000000000000        0.0000000000000000        0.0000000000000000     
 PAO|LS| adapt: energies:   -7.7914921388250997        0.0000000000000000        0.0000000000000000     
 PAO| ======================= Iteration:        29 =============================

     Lanczos converged:  T threshold:   0.100E-02
     Est. extremal eigenvalues:    0.275E+01   0.184E+00
     Est. condition number :    0.150E+02
     NS sqrt iter    1 1.00000000   0.704E+00       0.001       62.004
     NS sqrt iter    2 1.00000000   0.329E+00       0.001       95.570
     NS sqrt iter    3 1.00000000   0.739E-01       0.001       96.507
     NS sqrt iter    4 1.00000000   0.170E-02       0.001       96.878
     NS sqrt iter    5 1.00000000   0.428E-07       0.001       67.926
     Final NS sqrt iter    5 1.00000000   0.366E-09

     Est. extremal eigenvalues     -0.93643     1.67497  converged:  T
     TRS4 it   1 1.00000000   0.864E+00       0.000       16.128   0.100E-07
     TRS4 it   2 1.00000000   0.609E+00       0.001       32.256   0.100E-07
     TRS4 it   3 1.00000000   0.414E+00       0.001       32.256   0.100E-07
     TRS4 it   4 1.00000000   0.207E+00       0.001       32.256   0.100E-07
     TRS4 it   5 1.00000000   0.646E-01       0.001       32.256   0.100E-07
     TRS4 it   6 1.00000000   0.789E-02       0.001       32.256   0.100E-07
     TRS4 it   7 1.00000000   0.156E-03       0.001       32.256   0.100E-07
     TRS4 it   8 1.00000000   0.860E-07       0.001       32.256   0.100E-07
     TRS4 it   9 1.00000000   0.320E-13       0.001       32.256   0.100E-07
     Final TRS4 iteration    9 1.00000000   0.320E-13
     Chemical potential (mu):       0.01376
 
 PAO| energy:  -7.7914993834472872      penalty:   1.3018445132663818E-005
 PAO|LS| adapt:  T T F
 PAO|LS| adapt: scan_steps:    0.0000000000000000       0.25164584480430618        0.0000000000000000     
 PAO|LS| adapt: energies:   -7.7914921388250997       -7.7914993834472872        0.0000000000000000     
 PAO| ======================= Iteration:        30 =============================

     Lanczos converged:  T threshold:   0.100E-02
     Est. extremal eigenvalues:    0.275E+01   0.184E+00
     Est. condition number :    0.150E+02
     NS sqrt iter    1 1.00000000   0.704E+00       0.002       41.446
     NS sqrt iter    2 1.00000000   0.328E+00       0.002       66.194
     NS sqrt iter    3 1.00000000   0.738E-01       0.002       65.161
     NS sqrt iter    4 1.00000000   0.170E-02       0.002       70.809
     NS sqrt iter    5 1.00000000   0.428E-07       0.001       59.657
     Final NS sqrt iter    5 1.00000000   0.365E-09

     Est. extremal eigenvalues     -0.93643     1.67498  converged:  T
     TRS4 it   1 1.00000000   0.864E+00       0.000       16.128   0.100E-07
     TRS4 it   2 1.00000000   0.609E+00       0.001       32.256   0.100E-07
     TRS4 it   3 1.00000000   0.414E+00       0.001       32.256   0.100E-07
     TRS4 it   4 1.00000000   0.207E+00       0.001       32.256   0.100E-07
     TRS4 it   5 1.00000000   0.645E-01       0.001       32.256   0.100E-07
     TRS4 it   6 1.00000000   0.787E-02       0.001       32.256   0.100E-07
     TRS4 it   7 1.00000000   0.155E-03       0.001       32.256   0.100E-07
     TRS4 it   8 1.00000000   0.848E-07       0.001       32.256   0.100E-07
     TRS4 it   9 1.00000000   0.307E-13       0.001       32.256   0.100E-07
     Final TRS4 iteration    9 1.00000000   0.307E-13
     Chemical potential (mu):       0.01391
 
 PAO| energy:  -7.7915046591012134      penalty:   1.2589759825879465E-005
 PAO|LS| adapt:  T T F
 PAO|LS| adapt: scan_steps:    0.0000000000000000       0.50329168960861237        0.0000000000000000     
 PAO|LS| adapt: energies:   -7.7914921388250997       -7.7915046591012134        0.0000000000000000     
 PAO| ======================= Iteration:        31 =============================

     Lanczos converged:  T threshold:   0.100E-02
     Est. extremal eigenvalues:    0.275E+01   0.184E+00
     Est. condition number :    0.150E+02
     NS sqrt iter    1 1.00000000   0.703E+00       0.001       55.224
     NS sqrt iter    2 1.00000000   0.328E+00       0.001       98.373
     NS sqrt iter    3 1.00000000   0.737E-01       0.001       99.245
     NS sqrt iter    4 1.00000000   0.170E-02       0.001       94.569
     NS sqrt iter    5 1.00000000   0.428E-07       0.001       64.498
     Final NS sqrt iter    5 1.00000000   0.364E-09

     Est. extremal eigenvalues     -0.93644     1.67498  converged:  T
     TRS4 it   1 1.00000000   0.864E+00       0.000       16.128   0.100E-07
     TRS4 it   2 1.00000000   0.609E+00       0.001       32.256   0.100E-07
     TRS4 it   3 1.00000000   0.414E+00       0.001       32.256   0.100E-07
     TRS4 it   4 1.00000000   0.207E+00       0.001       32.256   0.100E-07
     TRS4 it   5 1.00000000   0.643E-01       0.001       32.256   0.100E-07
     TRS4 it   6 1.00000000   0.782E-02       0.001       32.256   0.100E-07
     TRS4 it   7 1.00000000   0.154E-03       0.001       32.256   0.100E-07
     TRS4 it   8 1.00000000   0.826E-07       0.001       32.256   0.100E-07
     TRS4 it   9 1.00000000   0.296E-13       0.001       32.256   0.100E-07
     Final TRS4 iteration    9 1.00000000   0.296E-13
     Chemical potential (mu):       0.01421
 
 PAO| energy:  -7.7915093093588377      penalty:   1.1756435091373426E-005
 PAO|LS| Need extra step
 PAO|LS| adapt:  T T F
 PAO|LS| adapt: scan_steps:    0.0000000000000000        1.0065833792172247        0.0000000000000000     
 PAO|LS| adapt: energies:   -7.7914921388250997       -7.7915093093588377        0.0000000000000000     
 PAO| ======================= Iteration:        32 =============================

     Lanczos converged:  T threshold:   0.100E-02
     Est. extremal eigenvalues:    0.275E+01   0.183E+00
     Est. condition number :    0.150E+02
     NS sqrt iter    1 1.00000000   0.702E+00       0.001       54.565
     NS sqrt iter    2 1.00000000   0.327E+00       0.001       91.691
     NS sqrt iter    3 1.00000000   0.734E-01       0.002       68.569
     NS sqrt iter    4 1.00000000   0.169E-02       0.001       87.339
     NS sqrt iter    5 1.00000000   0.429E-07       0.001       60.541
     Final NS sqrt iter    5 1.00000000   0.362E-09

     Est. extremal eigenvalues     -0.93644     1.67498  converged:  T
     TRS4 it   1 1.00000000   0.865E+00       0.000       16.128   0.100E-07
     TRS4 it   2 1.00000000   0.609E+00       0.001       32.256   0.100E-07
     TRS4 it   3 1.00000000   0.413E+00       0.001       32.256   0.100E-07
     TRS4 it   4 1.00000000   0.206E+00       0.001       32.256   0.100E-07
     TRS4 it   5 1.00000000   0.640E-01       0.001       32.256   0.100E-07
     TRS4 it   6 1.00000000   0.774E-02       0.001       32.256   0.100E-07
     TRS4 it   7 1.00000000   0.150E-03       0.001       32.256   0.100E-07
     TRS4 it   8 1.00000000   0.782E-07       0.001       32.256   0.100E-07
     Final TRS4 iteration    8 1.00000000   0.782E-07
     Chemical potential (mu):       0.01266
 
 PAO| energy:  -7.7914949029492497      penalty:   1.0184774063314190E-005
 PAO|LS| Need extra step
 PAO|LS| adapt:  T T T
 PAO|LS| adapt: scan_steps:    0.0000000000000000        1.0065833792172247        2.0131667584344495     
 PAO|LS| adapt: energies:   -7.7914921388250997       -7.7915093093588377       -7.7914949029492497     
 PAO|LS| adapt: suggested step_size:    1.0506395976861826     
 PAO|LS| adapt: predicted energy  -7.7915093396039374     
 PAO| ======================= Iteration:        33 =============================

     Lanczos converged:  T threshold:   0.100E-02
     Est. extremal eigenvalues:    0.275E+01   0.183E+00
     Est. condition number :    0.150E+02
     NS sqrt iter    1 1.00000000   0.703E+00       0.001       56.761
     NS sqrt iter    2 1.00000000   0.328E+00       0.001       95.367
     NS sqrt iter    3 1.00000000   0.737E-01       0.002       69.032
     NS sqrt iter    4 1.00000000   0.170E-02       0.001       73.855
     NS sqrt iter    5 1.00000000   0.428E-07       0.001       56.526
     Final NS sqrt iter    5 1.00000000   0.363E-09

     Est. extremal eigenvalues     -0.93644     1.67498  converged:  T
     TRS4 it   1 1.00000000   0.865E+00       0.000       16.128   0.100E-07
     TRS4 it   2 1.00000000   0.609E+00       0.001       32.256   0.100E-07
     TRS4 it   3 1.00000000   0.414E+00       0.001       32.256   0.100E-07
     TRS4 it   4 1.00000000   0.207E+00       0.001       32.256   0.100E-07
     TRS4 it   5 1.00000000   0.643E-01       0.001       32.256   0.100E-07
     TRS4 it   6 1.00000000   0.782E-02       0.001       32.256   0.100E-07
     TRS4 it   7 1.00000000   0.153E-03       0.001       32.256   0.100E-07
     TRS4 it   8 1.00000000   0.824E-07       0.001       32.256   0.100E-07
     TRS4 it   9 1.00000000   0.287E-13       0.001       32.256   0.100E-07
     Final TRS4 iteration    9 1.00000000   0.287E-13
     Chemical potential (mu):       0.01423
[...]
     NS sqrt iter    4 1.00000000   0.817E-03       0.002       62.748
     NS sqrt iter    5 1.00000000   0.717E-08       0.001       28.555
     Final NS sqrt iter    5 1.00000000   0.419E-09

     Est. extremal eigenvalues     -0.93614     1.62781  converged:  T
     TRS4 it   1 1.00000000   0.876E+00       0.001       16.128   0.100E-07
     TRS4 it   2 1.00000000   0.631E+00       0.001       32.256   0.100E-07
     TRS4 it   3 1.00000000   0.454E+00       0.001       32.256   0.100E-07
     TRS4 it   4 1.00000000   0.277E+00       0.001       32.256   0.100E-07
     TRS4 it   5 1.00000000   0.136E+00       0.001       32.256   0.100E-07
     TRS4 it   6 1.00000000   0.422E-01       0.001       32.256   0.100E-07
     TRS4 it   7 1.00000000   0.562E-02       0.001       32.256   0.100E-07
     TRS4 it   8 1.00000000   0.134E-03       0.001       32.256   0.100E-07
     TRS4 it   9 1.00000000   0.805E-07       0.001       32.256   0.100E-07
     TRS4 it  10 1.00000000   0.288E-13       0.001       32.256   0.100E-07
     Final TRS4 iteration   10 1.00000000   0.288E-13
     Chemical potential (mu):      -0.07376
 
 PAO| energy:  -7.7910538496678621      penalty:   3.1920374624979591E-008
 PAO|LS| Need extra step
 PAO|LS| adapt:  T T T
 PAO|LS| adapt: scan_steps:    0.0000000000000000       0.20000000000000001       0.40000000000000002     
 PAO|LS| adapt: energies:   -7.7910538466724892       -7.7910538514027694       -7.7910538496678621     
 PAO|LS| adapt: suggested step_size:   0.24633079613372658     
 PAO|LS| adapt: predicted energy  -7.7910538515762422     
 PAO| ======================= Iteration:       414 =============================

     Lanczos converged:  T threshold:   0.100E-02
     Est. extremal eigenvalues:    0.253E+01   0.190E+00
     Est. condition number :    0.133E+02
     NS sqrt iter    1 1.00000000   0.641E+00       0.002       40.658
     NS sqrt iter    2 1.00000000   0.279E+00       0.002       66.913
     NS sqrt iter    3 1.00000000   0.498E-01       0.002       66.428
     NS sqrt iter    4 1.00000000   0.817E-03       0.002       54.291
     NS sqrt iter    5 1.00000000   0.717E-08       0.001       29.319
     Final NS sqrt iter    5 1.00000000   0.419E-09

     Est. extremal eigenvalues     -0.93614     1.62781  converged:  T
     TRS4 it   1 1.00000000   0.876E+00       0.001       16.128   0.100E-07
     TRS4 it   2 1.00000000   0.631E+00       0.001       32.256   0.100E-07
     TRS4 it   3 1.00000000   0.454E+00       0.001       32.256   0.100E-07
     TRS4 it   4 1.00000000   0.277E+00       0.001       32.256   0.100E-07
     TRS4 it   5 1.00000000   0.136E+00       0.001       32.256   0.100E-07
     TRS4 it   6 1.00000000   0.422E-01       0.001       32.256   0.100E-07
     TRS4 it   7 1.00000000   0.562E-02       0.001       32.256   0.100E-07
     TRS4 it   8 1.00000000   0.134E-03       0.001       32.256   0.100E-07
     TRS4 it   9 1.00000000   0.805E-07       0.001       32.256   0.100E-07
     TRS4 it  10 1.00000000   0.296E-13       0.001       32.256   0.100E-07
     Final TRS4 iteration   10 1.00000000   0.296E-13
     Chemical potential (mu):      -0.07376
 
 PAO| energy:  -7.7910538515762449      penalty:   3.2320123537798123E-008
 PAO|CG| warming up with steepest descent
 PAO|CG| beta:    0.0000000000000000     
 PAO| norm of gradient:   1.3042147742377966E-004
 PAO| energy improvement:  -4.9037556237863100E-009
 PAO| step    414                   -7.791053852  0.815E-05  0.246E+00     0.111
 PAO| converged after          414  steps :-)
 PAO| Recalculating energy after mixing.

     Lanczos converged:  T threshold:   0.100E-02
     Est. extremal eigenvalues:    0.253E+01   0.190E+00
     Est. condition number :    0.133E+02
     NS sqrt iter    1 1.00000000   0.641E+00       0.002       42.920
     NS sqrt iter    2 1.00000000   0.279E+00       0.002       62.083
     NS sqrt iter    3 1.00000000   0.498E-01       0.002       58.013
     NS sqrt iter    4 1.00000000   0.817E-03       0.002       66.373
     NS sqrt iter    5 1.00000000   0.717E-08       0.001       28.642
     Final NS sqrt iter    5 1.00000000   0.419E-09

     Est. extremal eigenvalues     -0.93614     1.62781  converged:  T
     TRS4 it   1 1.00000000   0.876E+00       0.001       16.128   0.100E-07
     TRS4 it   2 1.00000000   0.631E+00       0.001       32.256   0.100E-07
     TRS4 it   3 1.00000000   0.454E+00       0.001       32.256   0.100E-07
     TRS4 it   4 1.00000000   0.277E+00       0.001       31.750   0.100E-07
     TRS4 it   5 1.00000000   0.136E+00       0.001       32.256   0.100E-07
     TRS4 it   6 1.00000000   0.422E-01       0.001       32.256   0.100E-07
     TRS4 it   7 1.00000000   0.562E-02       0.001       28.038   0.100E-07
     TRS4 it   8 1.00000000   0.134E-03       0.001       27.146   0.100E-07
     TRS4 it   9 1.00000000   0.805E-07       0.001       32.256   0.100E-07
     TRS4 it  10 1.00000000   0.298E-13       0.001       32.256   0.100E-07
     Final TRS4 iteration   10 1.00000000   0.298E-13
     Chemical potential (mu):      -0.07376
 
 PAO| energy:  -7.7910538503502922      penalty:   3.2642311423654956E-008
 PAO| Writing restart file.
     Est. extremal eigenvalues     -0.93614     1.62781  converged:  T
     TRS4 it   1 1.00000000   0.876E+00       0.001       16.128   0.100E-07
     TRS4 it   2 1.00000000   0.631E+00       0.001       32.256   0.100E-07
     TRS4 it   3 1.00000000   0.454E+00       0.001       32.256   0.100E-07
     TRS4 it   4 1.00000000   0.277E+00       0.001       32.256   0.100E-07
     TRS4 it   5 1.00000000   0.136E+00       0.001       32.256   0.100E-07
     TRS4 it   6 1.00000000   0.422E-01       0.001       32.256   0.100E-07
     TRS4 it   7 1.00000000   0.562E-02       0.001       32.256   0.100E-07
     TRS4 it   8 1.00000000   0.134E-03       0.001       32.256   0.100E-07
     TRS4 it   9 1.00000000   0.805E-07       0.001       32.256   0.100E-07
     TRS4 it  10 1.00000000   0.298E-13       0.001       32.256   0.100E-07
     Final TRS4 iteration   10 1.00000000   0.298E-13
     Chemical potential (mu):      -0.07376

 SCF     1       -34.450404442       -34.450404442    2.315578

*********************************************************
 Using MIXING_FRACTION=0.450 to mix KS matrix:  iscf=  2
 KS_nw=0.450*KS + 0.550*KS_old
*********************************************************
     Est. extremal eigenvalues     -0.93615     1.62781  converged:  T
     TRS4 it   1 1.00000000   0.876E+00       0.001       16.128   0.100E-07
     TRS4 it   2 1.00000000   0.631E+00       0.001       31.270   0.100E-07
     TRS4 it   3 1.00000000   0.454E+00       0.001       32.256   0.100E-07
     TRS4 it   4 1.00000000   0.277E+00       0.001       32.256   0.100E-07
     TRS4 it   5 1.00000000   0.136E+00       0.001       32.256   0.100E-07
     TRS4 it   6 1.00000000   0.422E-01       0.001       32.256   0.100E-07
     TRS4 it   7 1.00000000   0.562E-02       0.001       32.256   0.100E-07
     TRS4 it   8 1.00000000   0.134E-03       0.001       32.256   0.100E-07
     TRS4 it   9 1.00000000   0.805E-07       0.001       32.256   0.100E-07
     TRS4 it  10 1.00000000   0.291E-13       0.001       32.256   0.100E-07
     Final TRS4 iteration   10 1.00000000   0.291E-13
     Chemical potential (mu):      -0.07375

 SCF     2       -34.450404442        -0.000000000    2.043670

 PAO| Storing density matrix for ASPC guess in slot:           1

 ENERGY| Total FORCE_EVAL ( QS ) energy (a.u.):              -34.450404442280870


 -------------------------------------------------------------------------------
 -                                                                             -
 -                                DBCSR STATISTICS                             -
 -                                                                             -
 -------------------------------------------------------------------------------
 COUNTER                                    TOTAL       BLAS       SMM       ACC
 flops     5 x     5 x     4                20000     100.0%      0.0%      0.0%
 flops    13 x     5 x     4                20800     100.0%      0.0%      0.0%
 flops     5 x    13 x     4                20800     100.0%      0.0%      0.0%
 flops    13 x    13 x     4                40560     100.0%      0.0%      0.0%
 flops     4 x     4 x     5              3252480     100.0%      0.0%      0.0%
 flops     5 x     4 x     5              3968000     100.0%      0.0%      0.0%
 flops     4 x     4 x    13              4228224     100.0%      0.0%      0.0%
 flops    13 x     4 x     5              5158400     100.0%      0.0%      0.0%
 flops     5 x     4 x    13              5158400     100.0%      0.0%      0.0%
 flops     5 x     4 x     4              6474080     100.0%      0.0%      0.0%
 flops    13 x     4 x    13              6705920     100.0%      0.0%      0.0%
 flops    13 x     4 x     4              8668608     100.0%      0.0%      0.0%
 flops     4 x     4 x     4            416160000     100.0%      0.0%      0.0%
 flops inhomo. stacks                           0       0.0%      0.0%      0.0%
 flops total                       459.876272E+06     100.0%      0.0%      0.0%
 flops max/rank                    459.876272E+06     100.0%      0.0%      0.0%
 matmuls inhomo. stacks                         0       0.0%      0.0%      0.0%
 matmuls total                            3387893     100.0%      0.0%      0.0%
 number of processed stacks                 27032     100.0%      0.0%      0.0%
 average stack size                                   125.3       0.0       0.0
 marketing flops                   747.017088E+06
 -------------------------------------------------------------------------------
 # multiplications                          22531
 max memory usage/rank             328.052736E+06
 # max total images/rank                        1
 # max 3D layers                                1
 # MPI messages exchanged                       0
 MPI messages size (bytes):
  total size                         0.000000E+00
  min size                           0.000000E+00
  max size                           0.000000E+00
  average size                       0.000000E+00
 MPI breakdown and total messages size (bytes):
             size <=      128                   0                        0
       128 < size <=     8192                   0                        0
      8192 < size <=    32768                   0                        0
     32768 < size <=   131072                   0                        0
    131072 < size <=  4194304                   0                        0
   4194304 < size <= 16777216                   0                        0
  16777216 < size                               0                        0
 -------------------------------------------------------------------------------

 MEMORY| Estimated peak process memory [MiB]                                 313

 -------------------------------------------------------------------------------
 -                                                                             -
 -                           R E F E R E N C E S                               -
 -                                                                             -
 -------------------------------------------------------------------------------
 
 CP2K version 7.0 (Development Version), the CP2K developers group (2018).
 CP2K is freely available from https://www.cp2k.org/ .

 Schuett, O; VandeVondele, J. 
 Journal of Chemical Theory and Computation, 14, (2018). 
 Machine Learning Adaptive Basis Sets for Efficient Large Scale Density Functional Theory Simulation.
 https://dx.doi.org/10.1021/acs.jctc.8b00378


 Schuett, Ole; Messmer, Peter; Hutter, Juerg; VandeVondele, Joost. 
 Electronic Structure Calculations on Graphics Processing Units, John Wiley & Sons, Ltd, 173-190 (2016). 
 GPU-Accelerated Sparse Matrix-Matrix Multiplication for Linear Scaling Density Functional Theory.
 https://dx.doi.org/10.1002/9781118670712.ch8


 Borstnik, U; VandeVondele, J; Weber, V; Hutter, J. 
 PARALLEL COMPUTING, 40 (5-6), 47-58 (2014). 
 Sparse matrix multiplication: The distributed block-compressed sparse
 row library.
 https://dx.doi.org/10.1016/j.parco.2014.03.012


 Hutter, J; Iannuzzi, M; Schiffmann, F; VandeVondele, J. 
 WILEY INTERDISCIPLINARY REVIEWS-COMPUTATIONAL MOLECULAR SCIENCE, 4 (1), 15-25 (2014). 
 CP2K: atomistic simulations of condensed matter systems.
 https://dx.doi.org/10.1002/wcms.1159


 VandeVondele, J; Borstnik, U; Hutter, J. 
 JOURNAL OF CHEMICAL THEORY AND COMPUTATION, 8 (10), 3565-3573 (2012). 
 Linear Scaling Self-Consistent Field Calculations with Millions of Atoms
 in the Condensed Phase.
 https://dx.doi.org/10.1021/ct200897x


 VandeVondele, J; Hutter, J. 
 JOURNAL OF CHEMICAL PHYSICS, 127 (11), 114105 (2007). 
 Gaussian basis sets for accurate calculations on molecular systems in
 gas and condensed phases.
 https://dx.doi.org/10.1063/1.2770708


 Krack, M. 
 THEORETICAL CHEMISTRY ACCOUNTS, 114 (1-3), 145-152 (2005). 
 Pseudopotentials for H to Kr optimized for gradient-corrected
 exchange-correlation functionals.
 https://dx.doi.org/10.1007/s00214-005-0655-y


 VandeVondele, J; Krack, M; Mohamed, F; Parrinello, M; Chassaing, T;
 Hutter, J. COMPUTER PHYSICS COMMUNICATIONS, 167 (2), 103-128 (2005). 
 QUICKSTEP: Fast and accurate density functional calculations using a
 mixed Gaussian and plane waves approach.
 https://dx.doi.org/10.1016/j.cpc.2004.12.014


 Frigo, M; Johnson, SG. 
 PROCEEDINGS OF THE IEEE, 93 (2), 216-231 (2005). 
 The design and implementation of FFTW3.
 https://dx.doi.org/10.1109/JPROC.2004.840301


 Niklasson, AMN; Tymczak, CJ; Challacombe, M. 
 JOURNAL OF CHEMICAL PHYSICS, 118 (19), 8611-8620 (2003). 
 Trace resetting density matrix purification in O(N)
 self-consistent-field theory.
 https://dx.doi.org/10.1063/1.1559913


 Hartwigsen, C; Goedecker, S; Hutter, J. 
 PHYSICAL REVIEW B, 58 (7), 3641-3662 (1998). 
 Relativistic separable dual-space Gaussian pseudopotentials from H to Rn.
 https://dx.doi.org/10.1103/PhysRevB.58.3641


 Lippert, G; Hutter, J; Parrinello, M. 
 MOLECULAR PHYSICS, 92 (3), 477-487 (1997). 
 A hybrid Gaussian and plane wave density functional scheme.
 https://dx.doi.org/10.1080/002689797170220


 Perdew, JP; Burke, K; Ernzerhof, M. 
 PHYSICAL REVIEW LETTERS, 77 (18), 3865-3868 (1996). 
 Generalized gradient approximation made simple.
 https://dx.doi.org/10.1103/PhysRevLett.77.3865


 Goedecker, S; Teter, M; Hutter, J. 
 PHYSICAL REVIEW B, 54 (3), 1703-1710 (1996). 
 Separable dual-space Gaussian pseudopotentials.
 https://dx.doi.org/10.1103/PhysRevB.54.1703


 -------------------------------------------------------------------------------
 -                                                                             -
 -                                T I M I N G                                  -
 -                                                                             -
 -------------------------------------------------------------------------------
 SUBROUTINE                       CALLS  ASD         SELF TIME        TOTAL TIME
                                MAXIMUM       AVERAGE  MAXIMUM  AVERAGE  MAXIMUM
 CP2K                                 1  1.0    0.010    0.010   34.265   34.265
 qs_energies                          1  2.0    0.000    0.000   33.639   33.639
 ls_scf                               1  3.0    0.000    0.000   33.479   33.479
 ls_scf_main                          4  4.0    0.001    0.001   20.439   20.439
 ls_scf_dm_to_ks                      9  5.0    0.000    0.000   20.315   20.315
 qs_ks_update_qs_env                 10  6.0    0.000    0.000   15.402   15.402
 rebuild_ks_matrix                   10  7.0    0.000    0.000   15.402   15.402
 qs_ks_build_kohn_sham_matrix        10  8.0    0.001    0.001   15.402   15.402
 pao_update                           4  4.0    0.011    0.011   10.971   10.971
 pao_calc_energy                    417  5.0    0.004    0.004    9.851    9.851
 qs_vxc_create                       10  9.0    0.000    0.000    9.245    9.245
 xc_vxc_pw_create                    10 10.0    0.114    0.114    9.245    9.245
 dbcsr_multiply_generic           22531  8.4    0.518    0.518    8.486    8.486
 qs_rho_update_rho                   10  6.0    0.000    0.000    6.878    6.878
 calculate_rho_elec                  10  7.0    5.429    5.429    6.878    6.878
 xc_rho_set_and_dset_create          10 11.0    0.039    0.039    6.770    6.770
 pw_transfer                        191 10.6    0.013    0.013    6.534    6.534
 fft_wrap_pw1pw2                    171 11.7    0.002    0.002    6.436    6.436
 fft_wrap_pw1pw2_200                111 12.8    0.333    0.333    6.150    6.150
 sum_up_and_integrate                10  9.0    0.019    0.019    5.188    5.188
 integrate_v_rspace                  10 10.0    4.401    4.401    5.170    5.170
 pao_dm_trs4                        417  6.0    0.003    0.003    5.043    5.043
 density_matrix_trs4                426  7.0    0.180    0.180    4.874    4.874
 ls_scf_init_matrix_S               421  7.0    0.004    0.004    4.819    4.819
 pao_rebuild_S                      417  6.0    0.003    0.003    4.762    4.762
 xc_functional_eval                  10 12.0    0.000    0.000    4.668    4.668
 pbe_lda_eval                        10 13.0    4.667    4.667    4.667    4.667
 matrix_sqrt_Newton_Schulz          421  8.0    0.116    0.116    4.358    4.358
 multiply_cannon                  22531  9.4    1.343    1.343    4.001    4.001
 fft3d_s                            172 13.6    3.474    3.474    3.491    3.491
 make_m2s                         45062  9.4    0.189    0.189    2.689    2.689
 make_images                      45062 10.4    0.639    0.639    2.374    2.374
 pao_guess_initial_P                  1  4.0    0.000    0.000    1.972    1.972
 pao_read_preopt_dm                   1  5.0    0.000    0.000    1.972    1.972
 multiply_cannon_multrec          22531 10.4    1.424    1.424    1.555    1.555
 pw_gather_s                         81 13.1    1.463    1.463    1.463    1.463
 density_rs2pw                       10  8.0    0.001    0.001    1.435    1.435
 arnoldi_extremal                   847  8.5    0.005    0.005    1.219    1.219
 arnoldi_normal_ev                  847  9.5    0.014    0.014    1.214    1.214
 pw_scatter_s                        90 14.2    1.132    1.132    1.132    1.132
 pao_calc_AB                        549  5.8    0.001    0.001    1.099    1.099
 pao_calc_AB_direct                 549  6.8    0.030    0.030    1.098    1.098
 pao_calc_grad_lnv_wrt_AB           131  7.0    0.008    0.008    1.037    1.037
 build_subspace                     847 10.5    0.062    0.062    0.894    0.894
 dbcsr_matrix_vector_mult         20313 11.5    0.121    0.121    0.805    0.805
 dbcsr_finalize                   53414  9.6    0.127    0.127    0.797    0.797
 potential_pw2rs                     10 11.0    0.003    0.003    0.767    0.767
 dbcsr_create_new                172349 10.7    0.377    0.377    0.722    0.722
 -------------------------------------------------------------------------------

 The number of warnings for this run is : 0
 
 -------------------------------------------------------------------------------
  **** **** ******  **  PROGRAM ENDED AT                 2019-03-28 17:34:36.992
 ***** ** ***  *** **   PROGRAM RAN ON            oleschuett.zrh.corp.google.com
 **    ****   ******    PROGRAM RAN BY                                oleschuett
 ***** **    ** ** **   PROGRAM PROCESS ID                                 35760
  **** **  *******  **  PROGRAM STOPPED IN /usr/local/google/home/oleschuett/git
                                           /pao_ml_equivar/2H2O_rotations/rand_1
                                           0
