6
Properties=species:S:1:pos:R:3 i=0 time=0.0 E=-34.4504806384 pbc="F F F"
O       5.57309228      -2.23408477       2.60471091 
H       5.79718660      -1.85428477       1.74866027 
H       4.71596901      -1.86176057       2.83458782 
O       5.30952663      -5.20930069       2.32592532 
H       5.91262254      -5.66262322       2.92165932 
H       5.45887257      -4.26336977       2.47869799 
