 DBCSR| CPU Multiplication driver                                           XSMM (U)
 DBCSR| Multrec recursion limit                                              512 (U)
 DBCSR| Multiplication stack size                                           1000 (D)
 DBCSR| Maximum elements for images                                    UNLIMITED (U)
 DBCSR| Multiplicative factor virtual images                                   1 (U)
 DBCSR| Use multiplication densification                                       T (D)
 DBCSR| Multiplication size stacks                                             3 (U)
 DBCSR| Use memory pool for CPU allocation                                     F (U)
 DBCSR| OMP: Current number of threads                                         1
 DBCSR| OMP: Max number of threads                                             1
 DBCSR| Split modifier for TAS multiplication algorithm                  1.0E+00 (U)


  **** **** ******  **  PROGRAM STARTED AT               2023-02-01 10:47:55.425
 ***** ** ***  *** **   PROGRAM STARTED ON                                moritz
 **    ****   ******    PROGRAM STARTED BY                                   ole
 ***** **    ** ** **   PROGRAM PROCESS ID                                148730
  **** **  *******  **  PROGRAM STARTED IN /home/ole/git/pao_ml_equivar/2H2O_MD/
                                           frame_0750

 CP2K| version string:                 CP2K version 2023.1 (Development Version)
 CP2K| source code revision number:                                  git:03b4147
 CP2K| cp2kflags: omp libint fftw3 libxc quip xsmm spglib libvori libbqb libtorc
 CP2K|            h
 CP2K| is freely available from                            https://www.cp2k.org/
 CP2K| Program compiled at                           Mi 01 Feb 2023 10:36:52 CET
 CP2K| Program compiled on                                                moritz
 CP2K| Program compiled for                                                local
 CP2K| Data directory path                               /home/ole/git/cp2k/data
 CP2K| Input file name                                            2H2O_pao44.inp

 GLOBAL| Force Environment number                                              1
 GLOBAL| Basis set file name                                        BASIS_MOLOPT
 GLOBAL| Potential file name                                      GTH_POTENTIALS
 GLOBAL| MM Potential file name                                     MM_POTENTIAL
 GLOBAL| Coordinate file name                                         coords.xyz
 GLOBAL| Method name                                                        CP2K
 GLOBAL| Project name                                                 2H2O_pao44
 GLOBAL| Run type                                                         ENERGY
 GLOBAL| FFT library                                                       FFTW3
 GLOBAL| Diagonalization library                                       ScaLAPACK
 GLOBAL| DGEMM library                                                      BLAS
 GLOBAL| Orthonormality check for eigenvectors                          DISABLED
 GLOBAL| Matrix multiplication library                                 ScaLAPACK
 GLOBAL| All-to-all communication in single precision                          F
 GLOBAL| FFTs using library dependent lengths                                  F
 GLOBAL| Grid backend                                                       AUTO
 GLOBAL| Global print level                                                  LOW
 GLOBAL| MPI I/O enabled                                                       T
 GLOBAL| Total number of message passing processes                             1
 GLOBAL| Number of threads for this process                                    1
 GLOBAL| This output is from process                                           0
 GLOBAL| Stack size for threads created by OpenMP (OMP_STACKSIZE)        default
 GLOBAL| CPU model name           AMD Ryzen Threadripper 3970X 32-Core Processor
 GLOBAL| CPUID                                                              1002
 GLOBAL| Compiled for CPUID                                                    0

 *** HINT in environment.F:884 :: The compiler target flags (generic) used ***
 *** to build this binary cannot exploit all extensions of this CPU model  ***
 *** (x86_avx2). Consider compiler target flags as part of FCFLAGS and     ***
 *** CFLAGS (ARCH file).                                                   ***


 MEMORY| system memory details [Kb]
 MEMORY|                        rank 0           min           max       average
 MEMORY| MemTotal            131773860     131773860     131773860     131773860
 MEMORY| MemFree             112516660     112516660     112516660     112516660
 MEMORY| Buffers                302624        302624        302624        302624
 MEMORY| Cached                7056636       7056636       7056636       7056636
 MEMORY| Slab                   780228        780228        780228        780228
 MEMORY| SReclaimable           332704        332704        332704        332704
 MEMORY| MemLikelyFree       120208624     120208624     120208624     120208624


 GENERATE|  Preliminary Number of Bonds generated:                             0
 GENERATE|  Achieved consistency in connectivity generation.

 *******************************************************************************
 *******************************************************************************
 **                                                                           **
 **     #####                         ##              ##                      **
 **    ##   ##            ##          ##              ##                      **
 **   ##     ##                       ##            ######                    **
 **   ##     ##  ##   ##  ##   #####  ##  ##   ####   ##    #####    #####    **
 **   ##     ##  ##   ##  ##  ##      ## ##   ##      ##   ##   ##  ##   ##   **
 **   ##  ## ##  ##   ##  ##  ##      ####     ###    ##   ######   ######    **
 **    ##  ###   ##   ##  ##  ##      ## ##      ##   ##   ##       ##        **
 **     #######   #####   ##   #####  ##  ##  ####    ##    #####   ##        **
 **           ##                                                    ##        **
 **                                                                           **
 **                                                ... make the atoms dance   **
 **                                                                           **
 **            Copyright (C) by CP2K developers group (2000-2023)             **
 **                      J. Chem. Phys. 152, 194103 (2020)                    **
 **                                                                           **
 *******************************************************************************


 TOTAL NUMBERS AND MAXIMUM NUMBERS

  Total number of            - Atomic kinds:                                   2
                             - Atoms:                                          6
                             - Shell sets:                                     6
                             - Shells:                                        22
                             - Primitive Cartesian functions:                 42
                             - Cartesian basis functions:                     48
                             - Spherical basis functions:                     46

  Maximum angular momentum of- Orbital basis functions:                        2
                             - Local part of the GTH pseudopotential:          2
                             - Non-local part of the GTH pseudopotential:      0

 ------------------------------ Linear scaling SCF -----------------------------
 eps_scf:                                                              0.100E-07
 eps_filter:                                                           0.100E-07
 mixing_fraction:                                                      0.450E+00
 max_scf:                                                                     25
 fixed chemical potential (mu)                                                 F
 has unit metric:                                                              F
 Computing inv(S):                                                             T
 Computing sqrt(S):                                                            T
 Computing S preconditioner                                                    F
 S sqrt method:                                                     NEWTONSCHULZ
 S sqrt order:                                                                 3
 Extrapolation order:                                                          1
 Use single precision matrices                                                 F
 S preconditioner type                                                      NONE
 Polarized Atomic Orbitals (PAO)                                               T
 Purification method                                   Trace resetting 4th order
 Cluster type                                                             ATOMIC
 Computing Chebyshev                                                       FALSE
 Using PAO                                                                     T
 -------------------------------------------------------------------------------

 
 PAO|                                  EPS_PAO                           0.5E-06
 PAO|                                  MIXING                            0.5E+00
 PAO|                                  MAX_PAO                              1500
 PAO|                                  MAX_CYCLES                           1000
 PAO|                                  PARAMETERIZATION              EQUIVARIANT
 PAO|                                  PRECONDITION                            F
 PAO|                                  REGULARIZATION                    0.0E+00
 PAO|                                  EPS_PGF                           0.1E-09
 PAO|                                  PENALTY_DISTANCE                  0.1E+00
 PAO|                                  PENALTY_STRENGTH                  0.5E-02
 PAO|                                  LINPOT_PRECONDITION_DELTA         0.0E+00
 PAO|                                  LINPOT_INITGUESS_DELT             0.0E+00
 PAO|                                  LINPOT_REGULARIZATION_DELTA       0.0E+00
 PAO|                                  LINPOT_REGULARIZATION_STRENGTH    0.0E+00
 PAO|                                  OPTIMIZER                              CG
 PAO|                                  CG_INIT_STEPS                           2
 PAO|                                  CG_RESET_LIMIT                    0.1E+00
 PAO|                                  CHECK_UNITARY_TOL                -0.1E+01
 PAO|                                  CHECK_GRADIENT_TOL               -0.1E+01
 PAO|                                  NUM_GRADIENT_ORDER                      2
 PAO|                                  NUM_GRADIENT_EPS                  0.1E-07
 PAO|                                  PRINT%RESTART%WRITE_CYCLES            100
 PAO|                                  RESTART_FILE 
 PAO|                                  PREOPT_DM_FILE 2H2O_ref_LS_DM_SPIN_1_RESTART.dm
 PAO|                                  MACHINE_LEARNING%METHOD       GAUSSIAN_PR
 PAO|                                  MACHINE_LEARNING%PRIOR               ZERO
 PAO|                                  MACHINE_LEARNING%DESCRIPTOR     POTENTIAL
 PAO|                                  MACHINE_LEARNING%TOLERANCE        0.1E-01
 PAO|                                  MACHINE_LEARNING%GP_NOISE_VAR     0.1E+00
 PAO|                                  MACHINE_LEARNING%GP_SCALE         0.5E-01
 

 Calculating atomic Fock matrix for atomic kind: O

 Electronic structure
    Total number of core electrons                                          2.00
    Total number of valence electrons                                       6.00
    Total number of electrons                                               8.00
    Multiplicity                                                   not specified
    S   [  2.00] 2.00
    P      4.00


 *******************************************************************************
                  Iteration          Convergence                     Energy [au]
 *******************************************************************************
                          1        0.708315                     -15.576645311500
                          2        0.608879                     -15.587933561584
                          3        0.102828E-01                 -15.656849565404
                          4        0.113889E-02                 -15.656866888140
                          5        0.434197E-03                 -15.656867072159
                          6        0.263771E-03                 -15.656867091904
                          7        0.478536E-06                 -15.656867103452

 Energy components [Hartree]           Total Energy ::          -15.656867103452
                                        Band Energy ::           -3.000198112285
                                     Kinetic Energy ::           11.759971203220
                                   Potential Energy ::          -27.416838306672
                                      Virial (-V/T) ::            2.331369510426
                                        Core Energy ::          -26.140716385623
                                          XC Energy ::           -3.154051012914
                                     Coulomb Energy ::           13.637900295084
                       Total Pseudopotential Energy ::          -37.935781716540
                       Local Pseudopotential Energy ::          -39.218907440693
                    Nonlocal Pseudopotential Energy ::            1.283125724153
                                        Confinement ::            0.350941276976

 Orbital energies  State     L     Occupation   Energy[a.u.]          Energy[eV]

                       1     0          2.000      -0.864471          -23.523463

                       1     1          4.000      -0.317814           -8.648154


 Total Electron Density at R=0:                                         0.000068

 Calculating atomic Fock matrix for atomic kind: H

 Electronic structure
    Total number of core electrons                                          0.00
    Total number of valence electrons                                       1.00
    Total number of electrons                                               1.00
    Multiplicity                                                   not specified
    S      1.00


 *******************************************************************************
                  Iteration          Convergence                     Energy [au]
 *******************************************************************************
                          1        0.437545E-02                  -0.424159432110
                          2        0.531356E-03                  -0.424178438213
                          3        0.259176E-06                  -0.424178722480

 Energy components [Hartree]           Total Energy ::           -0.424178722480
                                        Band Energy ::           -0.199015229016
                                     Kinetic Energy ::            0.464007633961
                                   Potential Energy ::           -0.888186356441
                                      Virial (-V/T) ::            1.914163240935
                                        Core Energy ::           -0.479160803564
                                          XC Energy ::           -0.244352904054
                                     Coulomb Energy ::            0.299334985138
                       Total Pseudopotential Energy ::           -0.962295316385
                       Local Pseudopotential Energy ::           -0.962295316385
                    Nonlocal Pseudopotential Energy ::            0.000000000000
                                        Confinement ::            0.191268788606

 Orbital energies  State     L     Occupation   Energy[a.u.]          Energy[eV]

                       1     0          1.000      -0.199015           -5.415480


 Total Electron Density at R=0:                                         0.242907
 PAO| Made initial guess for matrix_X with norm:   4.8989794855663558     

     Lanczos converged:  T threshold:   0.100E-02
     Est. extremal eigenvalues:    0.346E+01   0.119E+00
     Est. condition number :    0.291E+02

 Order=           3
     NS sqrt iter    1 1.00000000   0.844E+00       0.001       56.687
     NS sqrt iter    2 1.00000000   0.445E+00       0.001       98.905
     NS sqrt iter    3 1.00000000   0.168E+00       0.017        6.411
     NS sqrt iter    4 1.00000000   0.198E-01       0.001      104.552
     NS sqrt iter    5 1.00000000   0.476E-04       0.001       86.335
     Symmetrizing Results
     Final NS sqrt iter    5 1.00000000   0.416E-08

 PAO| Read restart DM 2H2O_ref_LS_DM_SPIN_1_RESTART.dm with checksum:    59.999647854255642     
 PAO| Quickstep energy from restart density:  -34.446869581147425     
 PAO| ======================= Iteration:         1 =============================

     Lanczos converged:  T threshold:   0.100E-02
     Est. extremal eigenvalues:    0.346E+01   0.119E+00
     Est. condition number :    0.291E+02

 Order=           3
     NS sqrt iter    1 1.00000000   0.844E+00       0.001       56.956
     NS sqrt iter    2 1.00000000   0.445E+00       0.001       98.657
     NS sqrt iter    3 1.00000000   0.168E+00       0.001       99.011
     NS sqrt iter    4 1.00000000   0.198E-01       0.001       99.450
     NS sqrt iter    5 1.00000000   0.476E-04       0.001       81.051
     Symmetrizing Results
     Final NS sqrt iter    5 1.00000000   0.416E-08

     Est. extremal eigenvalues     -0.91316     1.74451  converged:  T
     TRS4 it   1 1.00000000   0.855E+00       0.000       16.128   0.100E-07
     TRS4 it   2 1.00000000   0.660E+00       0.001       32.256   0.100E-07
     TRS4 it   3 1.00000000   0.487E+00       0.001       32.256   0.100E-07
     TRS4 it   4 1.00000000   0.308E+00       0.001       32.256   0.100E-07
     TRS4 it   5 1.00000000   0.152E+00       0.001       32.256   0.100E-07
     TRS4 it   6 1.00000000   0.463E-01       0.001       32.256   0.100E-07
     TRS4 it   7 1.00000000   0.598E-02       0.001       32.256   0.100E-07
     TRS4 it   8 1.00000000   0.140E-03       0.001       32.256   0.100E-07
     TRS4 it   9 1.00000000   0.864E-07       0.001       32.256   0.100E-07
     TRS4 it  10 1.00000000   0.331E-13       0.001       32.256   0.100E-07
     Final TRS4 iteration   10 1.00000000   0.331E-13
     Chemical potential (mu):      -0.06693
 
 PAO| energy:  -7.5328968331124422      penalty:   7.1490519535654217E-033
 PAO|CG| warming up with steepest descent
 PAO|CG| beta:    0.0000000000000000     
 PAO| norm of gradient:  0.77639602670011854     
 PAO|LS| adapt:  T F F
 PAO|LS| adapt: scan_steps:    0.0000000000000000        0.0000000000000000        0.0000000000000000     
 PAO|LS| adapt: energies:   -7.5328968331124422        0.0000000000000000        0.0000000000000000     
 PAO| ======================= Iteration:         2 =============================

     Lanczos converged:  T threshold:   0.100E-02
     Est. extremal eigenvalues:    0.338E+01   0.134E+00
     Est. condition number :    0.252E+02

 Order=           3
     NS sqrt iter    1 1.00000000   0.830E+00       0.001       57.948
     NS sqrt iter    2 1.00000000   0.431E+00       0.001       97.066
     NS sqrt iter    3 1.00000000   0.151E+00       0.001       98.328
     NS sqrt iter    4 1.00000000   0.136E-01       0.001      101.874
     NS sqrt iter    5 1.00000000   0.143E-04       0.001       76.591
     Symmetrizing Results
     Final NS sqrt iter    5 1.00000000   0.314E-09

     Est. extremal eigenvalues     -0.91678     1.69824  converged:  T
     TRS4 it   1 1.00000000   0.852E+00       0.000       16.128   0.100E-07
     TRS4 it   2 1.00000000   0.643E+00       0.001       32.256   0.100E-07
     TRS4 it   3 1.00000000   0.468E+00       0.001       32.256   0.100E-07
     TRS4 it   4 1.00000000   0.286E+00       0.001       32.256   0.100E-07
     TRS4 it   5 1.00000000   0.132E+00       0.001       32.256   0.100E-07
     TRS4 it   6 1.00000000   0.347E-01       0.001       32.256   0.100E-07
     TRS4 it   7 1.00000000   0.341E-02       0.001       32.256   0.100E-07
     TRS4 it   8 1.00000000   0.459E-04       0.001       32.256   0.100E-07
     TRS4 it   9 1.00000000   0.927E-08       0.001       32.256   0.100E-07
     Final TRS4 iteration    9 1.00000000   0.927E-08
     Chemical potential (mu):      -0.05502
 
 PAO| energy:  -7.5872280983834441      penalty:   2.1785259911762132E-008
 PAO|LS| adapt:  T T F
 PAO|LS| adapt: scan_steps:    0.0000000000000000       0.10000000000000001        0.0000000000000000     
 PAO|LS| adapt: energies:   -7.5328968331124422       -7.5872280983834441        0.0000000000000000     
 PAO| ======================= Iteration:         3 =============================

     Lanczos converged:  T threshold:   0.100E-02
     Est. extremal eigenvalues:    0.329E+01   0.147E+00
     Est. condition number :    0.224E+02

 Order=           3
     NS sqrt iter    1 1.00000000   0.814E+00       0.001       58.587
     NS sqrt iter    2 1.00000000   0.415E+00       0.001       98.590
     NS sqrt iter    3 1.00000000   0.134E+00       0.001      100.242
     NS sqrt iter    4 1.00000000   0.936E-02       0.001       99.506
     NS sqrt iter    5 1.00000000   0.456E-05       0.001       76.625
     Symmetrizing Results
     Final NS sqrt iter    5 1.00000000   0.327E-10

     Est. extremal eigenvalues     -0.92011     1.66418  converged:  T
     TRS4 it   1 1.00000000   0.850E+00       0.000       16.128   0.100E-07
     TRS4 it   2 1.00000000   0.628E+00       0.001       32.256   0.100E-07
     TRS4 it   3 1.00000000   0.451E+00       0.001       32.256   0.100E-07
     TRS4 it   4 1.00000000   0.264E+00       0.001       32.256   0.100E-07
     TRS4 it   5 1.00000000   0.112E+00       0.001       32.256   0.100E-07
     TRS4 it   6 1.00000000   0.254E-01       0.001       32.256   0.100E-07
     TRS4 it   7 1.00000000   0.181E-02       0.001       32.256   0.100E-07
     TRS4 it   8 1.00000000   0.129E-04       0.001       32.256   0.100E-07
     TRS4 it   9 1.00000000   0.731E-09       0.001       32.256   0.100E-07
     Final TRS4 iteration    9 1.00000000   0.731E-09
     Chemical potential (mu):      -0.04224
 
 PAO| energy:  -7.6290880504934897      penalty:   3.4856383744282336E-007
 PAO|LS| adapt:  T T F
 PAO|LS| adapt: scan_steps:    0.0000000000000000       0.20000000000000001        0.0000000000000000     
 PAO|LS| adapt: energies:   -7.5328968331124422       -7.6290880504934897        0.0000000000000000     
 PAO| ======================= Iteration:         4 =============================

     Lanczos converged:  T threshold:   0.100E-02
     Est. extremal eigenvalues:    0.311E+01   0.165E+00
     Est. condition number :    0.188E+02

 Order=           3
     NS sqrt iter    1 1.00000000   0.780E+00       0.001       57.759
     NS sqrt iter    2 1.00000000   0.381E+00       0.001       97.746
     NS sqrt iter    3 1.00000000   0.105E+00       0.001      100.350
     NS sqrt iter    4 1.00000000   0.460E-02       0.001       98.200
     NS sqrt iter    5 1.00000000   0.693E-06       0.001       75.942
     Symmetrizing Results
     Final NS sqrt iter    5 1.00000000   0.931E-10

     Est. extremal eigenvalues     -0.92512     1.61959  converged:  T
     TRS4 it   1 1.00000000   0.850E+00       0.000       16.128   0.100E-07
     TRS4 it   2 1.00000000   0.606E+00       0.001       32.256   0.100E-07
     TRS4 it   3 1.00000000   0.420E+00       0.001       32.256   0.100E-07
     TRS4 it   4 1.00000000   0.226E+00       0.001       32.256   0.100E-07
     TRS4 it   5 1.00000000   0.810E-01       0.001       32.256   0.100E-07
     TRS4 it   6 1.00000000   0.127E-01       0.001       32.256   0.100E-07
     TRS4 it   7 1.00000000   0.422E-03       0.001       32.256   0.100E-07
     TRS4 it   8 1.00000000   0.671E-06       0.001       32.256   0.100E-07
     TRS4 it   9 1.00000000   0.200E-11       0.001       32.256   0.100E-07
     Final TRS4 iteration    9 1.00000000   0.200E-11
     Chemical potential (mu):      -0.01387
 
 PAO| energy:  -7.6741277460184429      penalty:   5.5770188299287392E-006
 PAO|LS| Need extra step
 PAO|LS| adapt:  T T F
 PAO|LS| adapt: scan_steps:    0.0000000000000000       0.40000000000000002        0.0000000000000000     
 PAO|LS| adapt: energies:   -7.5328968331124422       -7.6741277460184429        0.0000000000000000     
 PAO| ======================= Iteration:         5 =============================

     Lanczos converged:  T threshold:   0.100E-02
     Est. extremal eigenvalues:    0.277E+01   0.192E+00
     Est. condition number :    0.144E+02

 Order=           3
     NS sqrt iter    1 1.00000000   0.718E+00       0.001       57.302
     NS sqrt iter    2 1.00000000   0.321E+00       0.001       98.366
     NS sqrt iter    3 1.00000000   0.658E-01       0.001       97.928
     NS sqrt iter    4 1.00000000   0.132E-02       0.001       97.213
     NS sqrt iter    5 1.00000000   0.237E-07       0.001       50.248
     Symmetrizing Results
     Final NS sqrt iter    5 1.00000000   0.255E-08

     Est. extremal eigenvalues     -0.92554     1.57409  converged:  T
     TRS4 it   1 1.00000000   0.852E+00       0.000       16.128   0.100E-07
     TRS4 it   2 1.00000000   0.575E+00       0.001       32.256   0.100E-07
     TRS4 it   3 1.00000000   0.371E+00       0.001       32.256   0.100E-07
     TRS4 it   4 1.00000000   0.169E+00       0.001       32.256   0.100E-07
     TRS4 it   5 1.00000000   0.430E-01       0.001       32.256   0.100E-07
     TRS4 it   6 1.00000000   0.325E-02       0.001       32.256   0.100E-07
     TRS4 it   7 1.00000000   0.225E-04       0.001       32.256   0.100E-07
     TRS4 it   8 1.00000000   0.138E-08       0.001       32.256   0.100E-07
     Final TRS4 iteration    8 1.00000000   0.138E-08
     Chemical potential (mu):       0.03394
 
 PAO| energy:  -7.6168234794738519      penalty:   8.9232280725634567E-005
 PAO|LS| Need extra step
 PAO|LS| adapt:  T T T
 PAO|LS| adapt: scan_steps:    0.0000000000000000       0.40000000000000002       0.80000000000000004     
 PAO|LS| adapt: energies:   -7.5328968331124422       -7.6741277460184429       -7.6168234794738519     
 PAO|LS| adapt: suggested step_size:   0.48454586899275054     
 PAO|LS| adapt: predicted energy  -7.6785625280486132     
 PAO| ======================= Iteration:         6 =============================

     Lanczos converged:  T threshold:   0.100E-02
     Est. extremal eigenvalues:    0.303E+01   0.172E+00
     Est. condition number :    0.177E+02

 Order=           3
     NS sqrt iter    1 1.00000000   0.765E+00       0.001       64.483
     NS sqrt iter    2 1.00000000   0.367E+00       0.001      110.308
     NS sqrt iter    3 1.00000000   0.949E-01       0.001      110.310
     NS sqrt iter    4 1.00000000   0.348E-02       0.001      110.379
     NS sqrt iter    5 1.00000000   0.339E-06       0.001       81.152
     Symmetrizing Results
     Final NS sqrt iter    5 1.00000000   0.728E-09

     Est. extremal eigenvalues     -0.92636     1.60662  converged:  T
     TRS4 it   1 1.00000000   0.850E+00       0.000       16.128   0.100E-07
     TRS4 it   2 1.00000000   0.598E+00       0.001       32.256   0.100E-07
     TRS4 it   3 1.00000000   0.408E+00       0.001       32.256   0.100E-07
     TRS4 it   4 1.00000000   0.212E+00       0.001       32.256   0.100E-07
     TRS4 it   5 1.00000000   0.703E-01       0.001       32.256   0.100E-07
     TRS4 it   6 1.00000000   0.937E-02       0.001       32.256   0.100E-07
     TRS4 it   7 1.00000000   0.217E-03       0.001       32.256   0.100E-07
     TRS4 it   8 1.00000000   0.167E-06       0.001       32.256   0.100E-07
     TRS4 it   9 1.00000000   0.123E-12       0.001       32.256   0.100E-07
     Final TRS4 iteration    9 1.00000000   0.123E-12
     Chemical potential (mu):      -0.00102
 
 PAO| energy:  -7.6778289768162384      penalty:   1.2008857514532160E-005
 PAO|CG| warming up with steepest descent
 PAO|CG| beta:    0.0000000000000000     
 PAO| norm of gradient:  0.40534428482719792     
 PAO| energy improvement: -0.14493214370379626     
 PAO| step      6                   -7.677828977  0.253E-01  0.485E+00     0.091
 PAO|LS| adapt:  T F F
 PAO|LS| adapt: scan_steps:    0.0000000000000000        0.0000000000000000        0.0000000000000000     
 PAO|LS| adapt: energies:   -7.6778289768162384        0.0000000000000000        0.0000000000000000     
 PAO| ======================= Iteration:         7 =============================

     Lanczos converged:  T threshold:   0.100E-02
     Est. extremal eigenvalues:    0.294E+01   0.185E+00
     Est. condition number :    0.159E+02

 Order=           3
     NS sqrt iter    1 1.00000000   0.745E+00       0.001       58.558
     NS sqrt iter    2 1.00000000   0.346E+00       0.001       99.215
     NS sqrt iter    3 1.00000000   0.796E-01       0.001       99.723
     NS sqrt iter    4 1.00000000   0.213E-02       0.001       98.922
     NS sqrt iter    5 1.00000000   0.873E-07       0.001       69.069
     Symmetrizing Results
     Final NS sqrt iter    5 1.00000000   0.521E-09

     Est. extremal eigenvalues     -0.92853     1.62088  converged:  T
     TRS4 it   1 1.00000000   0.859E+00       0.000       16.128   0.100E-07
     TRS4 it   2 1.00000000   0.604E+00       0.001       32.256   0.100E-07
     TRS4 it   3 1.00000000   0.415E+00       0.001       32.256   0.100E-07
     TRS4 it   4 1.00000000   0.218E+00       0.001       32.256   0.100E-07
     TRS4 it   5 1.00000000   0.739E-01       0.001       32.256   0.100E-07
     TRS4 it   6 1.00000000   0.102E-01       0.001       32.256   0.100E-07
     TRS4 it   7 1.00000000   0.246E-03       0.001       32.256   0.100E-07
     TRS4 it   8 1.00000000   0.207E-06       0.001       32.256   0.100E-07
     TRS4 it   9 1.00000000   0.186E-12       0.001       32.256   0.100E-07
     Final TRS4 iteration    9 1.00000000   0.186E-12
     Chemical potential (mu):      -0.00069
 
 PAO| energy:  -7.6761619021374123      penalty:   1.7736813653769968E-005
 PAO|LS| adapt:  T F T
 PAO|LS| adapt: scan_steps:    0.0000000000000000        0.0000000000000000       0.48454586899275054     
 PAO|LS| adapt: energies:   -7.6778289768162384        0.0000000000000000       -7.6761619021374123     
 PAO| ======================= Iteration:         8 =============================

     Lanczos converged:  T threshold:   0.100E-02
     Est. extremal eigenvalues:    0.299E+01   0.178E+00
     Est. condition number :    0.168E+02

 Order=           3
     NS sqrt iter    1 1.00000000   0.755E+00       0.001       64.512
     NS sqrt iter    2 1.00000000   0.357E+00       0.001      109.626
     NS sqrt iter    3 1.00000000   0.871E-01       0.001      110.402
     NS sqrt iter    4 1.00000000   0.274E-02       0.001      110.592
     NS sqrt iter    5 1.00000000   0.176E-06       0.001       78.720
     Symmetrizing Results
     Final NS sqrt iter    5 1.00000000   0.921E-09

     Est. extremal eigenvalues     -0.92856     1.61342  converged:  T
     TRS4 it   1 1.00000000   0.854E+00       0.000       16.128   0.100E-07
     TRS4 it   2 1.00000000   0.600E+00       0.001       32.256   0.100E-07
     TRS4 it   3 1.00000000   0.411E+00       0.001       32.256   0.100E-07
     TRS4 it   4 1.00000000   0.215E+00       0.001       32.256   0.100E-07
     TRS4 it   5 1.00000000   0.721E-01       0.001       32.256   0.100E-07
     TRS4 it   6 1.00000000   0.989E-02       0.001       32.256   0.100E-07
     TRS4 it   7 1.00000000   0.242E-03       0.001       32.256   0.100E-07
     TRS4 it   8 1.00000000   0.205E-06       0.001       32.256   0.100E-07
     TRS4 it   9 1.00000000   0.185E-12       0.001       32.256   0.100E-07
     Final TRS4 iteration    9 1.00000000   0.185E-12
     Chemical potential (mu):      -0.00167
 
 PAO| energy:  -7.6970367834262641      penalty:   1.2965529683559047E-005
 PAO|LS| adapt:  T T T
 PAO|LS| adapt: scan_steps:    0.0000000000000000       0.24227293449637527       0.48454586899275054     
 PAO|LS| adapt: energies:   -7.6778289768162384       -7.6970367834262641       -7.6761619021374123     
 PAO|LS| adapt: suggested step_size:   0.23723476096516463     
 PAO|LS| adapt: predicted energy  -7.6970454503162937     
 PAO| ======================= Iteration:         9 =============================

     Lanczos converged:  T threshold:   0.100E-02
     Est. extremal eigenvalues:    0.299E+01   0.178E+00
     Est. condition number :    0.168E+02

 Order=           3
     NS sqrt iter    1 1.00000000   0.755E+00       0.001       57.565
     NS sqrt iter    2 1.00000000   0.357E+00       0.001      100.966
     NS sqrt iter    3 1.00000000   0.873E-01       0.001       98.366
     NS sqrt iter    4 1.00000000   0.276E-02       0.001       98.791
     NS sqrt iter    5 1.00000000   0.178E-06       0.001       75.630
     Symmetrizing Results
     Final NS sqrt iter    5 1.00000000   0.931E-09

     Est. extremal eigenvalues     -0.92854     1.61327  converged:  T
     TRS4 it   1 1.00000000   0.854E+00       0.000       16.128   0.100E-07
     TRS4 it   2 1.00000000   0.600E+00       0.001       32.256   0.100E-07
     TRS4 it   3 1.00000000   0.411E+00       0.001       32.256   0.100E-07
     TRS4 it   4 1.00000000   0.214E+00       0.001       32.256   0.100E-07
     TRS4 it   5 1.00000000   0.721E-01       0.001       32.256   0.100E-07
     TRS4 it   6 1.00000000   0.989E-02       0.001       32.256   0.100E-07
     TRS4 it   7 1.00000000   0.241E-03       0.001       32.256   0.100E-07
     TRS4 it   8 1.00000000   0.205E-06       0.001       32.256   0.100E-07
     TRS4 it   9 1.00000000   0.184E-12       0.001       32.256   0.100E-07
     Final TRS4 iteration    9 1.00000000   0.184E-12
     Chemical potential (mu):      -0.00167
 
 PAO| energy:  -7.6970534977027869      penalty:   1.2916702363198783E-005
 PAO|CG| trace_G_new    3.9208736732455590E-002
 PAO|CG| trace_G_prev   0.16430398924207254     
 PAO|CG| trace_G_mix   -1.5869782093057101E-003
 PAO|CG| trace_D   0.16430398924207254     
 PAO|CG| trace_D_Gnew   1.5869782093057101E-003
 PAO|CG| beta:   0.24829412316736940     
 PAO| norm of gradient:  0.19801196108431326     
 PAO| energy improvement:  -1.9224520886548468E-002
 PAO| step      9                   -7.697053498  0.124E-01  0.237E+00     0.055
 PAO|LS| adapt:  T F F
 PAO|LS| adapt: scan_steps:    0.0000000000000000        0.0000000000000000        0.0000000000000000     
 PAO|LS| adapt: energies:   -7.6970534977027869        0.0000000000000000        0.0000000000000000     
 PAO| ======================= Iteration:        10 =============================

     Lanczos converged:  T threshold:   0.100E-02
     Est. extremal eigenvalues:    0.294E+01   0.184E+00
     Est. condition number :    0.160E+02

 Order=           3
     NS sqrt iter    1 1.00000000   0.746E+00       0.001       58.959
     NS sqrt iter    2 1.00000000   0.347E+00       0.001       99.026
     NS sqrt iter    3 1.00000000   0.812E-01       0.001       98.568
     NS sqrt iter    4 1.00000000   0.223E-02       0.001       96.990
     NS sqrt iter    5 1.00000000   0.953E-07       0.001       70.709
     Symmetrizing Results
     Final NS sqrt iter    5 1.00000000   0.531E-09

     Est. extremal eigenvalues     -0.92948     1.61443  converged:  T
     TRS4 it   1 1.00000000   0.855E+00       0.000       16.128   0.100E-07
     TRS4 it   2 1.00000000   0.600E+00       0.001       32.256   0.100E-07
     TRS4 it   3 1.00000000   0.410E+00       0.001       32.256   0.100E-07
     TRS4 it   4 1.00000000   0.212E+00       0.001       32.256   0.100E-07
     TRS4 it   5 1.00000000   0.703E-01       0.017        1.928   0.100E-07
     TRS4 it   6 1.00000000   0.933E-02       0.001       32.256   0.100E-07
     TRS4 it   7 1.00000000   0.210E-03       0.001       32.256   0.100E-07
     TRS4 it   8 1.00000000   0.150E-06       0.001       32.256   0.100E-07
     TRS4 it   9 1.00000000   0.979E-13       0.001       32.256   0.100E-07
     Final TRS4 iteration    9 1.00000000   0.979E-13
     Chemical potential (mu):       0.00194
 
 PAO| energy:  -7.7023266953016289      penalty:   1.3567863595143665E-005
 PAO|LS| adapt:  T T F
 PAO|LS| adapt: scan_steps:    0.0000000000000000       0.23723476096516463        0.0000000000000000     
 PAO|LS| adapt: energies:   -7.6970534977027869       -7.7023266953016289        0.0000000000000000     
 PAO| ======================= Iteration:        11 =============================

     Lanczos converged:  T threshold:   0.100E-02
     Est. extremal eigenvalues:    0.290E+01   0.191E+00
     Est. condition number :    0.152E+02

 Order=           3
     NS sqrt iter    1 1.00000000   0.737E+00       0.001       59.719
     NS sqrt iter    2 1.00000000   0.338E+00       0.001       97.319
     NS sqrt iter    3 1.00000000   0.753E-01       0.001       97.681
     NS sqrt iter    4 1.00000000   0.179E-02       0.001       98.204
     NS sqrt iter    5 1.00000000   0.499E-07       0.001       63.600
     Symmetrizing Results
     Final NS sqrt iter    5 1.00000000   0.658E-09

     Est. extremal eigenvalues     -0.92928     1.61649  converged:  T
     TRS4 it   1 1.00000000   0.856E+00       0.000       16.128   0.100E-07
     TRS4 it   2 1.00000000   0.600E+00       0.017        1.934   0.100E-07
     TRS4 it   3 1.00000000   0.409E+00       0.001       32.256   0.100E-07
     TRS4 it   4 1.00000000   0.210E+00       0.001       32.256   0.100E-07
     TRS4 it   5 1.00000000   0.687E-01       0.001       32.256   0.100E-07
     TRS4 it   6 1.00000000   0.881E-02       0.001       32.256   0.100E-07
     TRS4 it   7 1.00000000   0.183E-03       0.001       32.256   0.100E-07
     TRS4 it   8 1.00000000   0.109E-06       0.001       32.256   0.100E-07
     TRS4 it   9 1.00000000   0.503E-13       0.001       32.256   0.100E-07
     Final TRS4 iteration    9 1.00000000   0.503E-13
     Chemical potential (mu):       0.00571
 
 PAO| energy:  -7.7000275292402582      penalty:   1.5025596896425117E-005
 PAO|LS| adapt:  T T T
 PAO|LS| adapt: scan_steps:    0.0000000000000000       0.23723476096516463       0.47446952193032926     
 PAO|LS| adapt: energies:   -7.6970534977027869       -7.7023266953016289       -7.7000275292402582     
 PAO|LS| adapt: suggested step_size:   0.28382151330261451     
 PAO|LS| adapt: predicted energy  -7.7024727009608718     
 PAO| ======================= Iteration:        12 =============================

     Lanczos converged:  T threshold:   0.100E-02
     Est. extremal eigenvalues:    0.293E+01   0.186E+00
     Est. condition number :    0.158E+02

 Order=           3
     NS sqrt iter    1 1.00000000   0.744E+00       0.001       57.103
     NS sqrt iter    2 1.00000000   0.346E+00       0.001       97.599
     NS sqrt iter    3 1.00000000   0.800E-01       0.001       98.170
     NS sqrt iter    4 1.00000000   0.213E-02       0.001      100.159
     NS sqrt iter    5 1.00000000   0.840E-07       0.001       69.607
     Symmetrizing Results
     Final NS sqrt iter    5 1.00000000   0.523E-09

     Est. extremal eigenvalues     -0.92953     1.61477  converged:  T
     TRS4 it   1 1.00000000   0.855E+00       0.000       16.128   0.100E-07
     TRS4 it   2 1.00000000   0.600E+00       0.001       32.256   0.100E-07
     TRS4 it   3 1.00000000   0.410E+00       0.001       32.256   0.100E-07
     TRS4 it   4 1.00000000   0.212E+00       0.001       32.256   0.100E-07
     TRS4 it   5 1.00000000   0.700E-01       0.001       32.256   0.100E-07
     TRS4 it   6 1.00000000   0.923E-02       0.001       32.256   0.100E-07
     TRS4 it   7 1.00000000   0.205E-03       0.001       32.256   0.100E-07
     TRS4 it   8 1.00000000   0.141E-06       0.001       32.256   0.100E-07
     TRS4 it   9 1.00000000   0.860E-13       0.001       32.256   0.100E-07
     Final TRS4 iteration    9 1.00000000   0.860E-13
     Chemical potential (mu):       0.00267
 
 PAO| energy:  -7.7024583672983598      penalty:   1.3782945966423982E-005
 PAO|CG| trace_G_new    1.4513997299694277E-002
 PAO|CG| trace_G_prev    3.9208736732455590E-002
 PAO|CG| trace_G_mix   -5.8307352144638144E-004
 PAO|CG| trace_D    4.8549998276975606E-002
 PAO|CG| trace_D_Gnew   2.8390928329878303E-004
 PAO|CG| beta:   0.38504354078421105     
 PAO| norm of gradient:  0.12047405239176724     
 PAO| energy improvement:  -5.4048695955728476E-003
 PAO| step     12                   -7.702458367  0.753E-02  0.284E+00     0.106
 PAO|LS| adapt:  T F F
 PAO|LS| adapt: scan_steps:    0.0000000000000000        0.0000000000000000        0.0000000000000000     
 PAO|LS| adapt: energies:   -7.7024583672983598        0.0000000000000000        0.0000000000000000     
 PAO| ======================= Iteration:        13 =============================

     Lanczos converged:  T threshold:   0.100E-02
     Est. extremal eigenvalues:    0.289E+01   0.191E+00
     Est. condition number :    0.151E+02

 Order=           3
     NS sqrt iter    1 1.00000000   0.736E+00       0.017        3.760
     NS sqrt iter    2 1.00000000   0.338E+00       0.001       99.357
     NS sqrt iter    3 1.00000000   0.752E-01       0.001       98.519
     NS sqrt iter    4 1.00000000   0.177E-02       0.001       98.672
     NS sqrt iter    5 1.00000000   0.477E-07       0.001       62.431
     Symmetrizing Results
     Final NS sqrt iter    5 1.00000000   0.635E-09

     Est. extremal eigenvalues     -0.93014     1.60680  converged:  T
     TRS4 it   1 1.00000000   0.854E+00       0.000       16.128   0.100E-07
     TRS4 it   2 1.00000000   0.596E+00       0.001       32.256   0.100E-07
     TRS4 it   3 1.00000000   0.404E+00       0.001       32.256   0.100E-07
     TRS4 it   4 1.00000000   0.206E+00       0.001       32.256   0.100E-07
     TRS4 it   5 1.00000000   0.657E-01       0.001       32.256   0.100E-07
     TRS4 it   6 1.00000000   0.806E-02       0.001       32.256   0.100E-07
     TRS4 it   7 1.00000000   0.153E-03       0.001       32.256   0.100E-07
     TRS4 it   8 1.00000000   0.753E-07       0.001       32.256   0.100E-07
     Final TRS4 iteration    8 1.00000000   0.753E-07
     Chemical potential (mu):       0.00584
 
 PAO| energy:  -7.7049969521816513      penalty:   1.4270185893757800E-005
 PAO|LS| adapt:  T T F
 PAO|LS| adapt: scan_steps:    0.0000000000000000       0.28382151330261451        0.0000000000000000     
 PAO|LS| adapt: energies:   -7.7024583672983598       -7.7049969521816513        0.0000000000000000     
 PAO| ======================= Iteration:        14 =============================

     Lanczos converged:  T threshold:   0.100E-02
     Est. extremal eigenvalues:    0.285E+01   0.196E+00
     Est. condition number :    0.145E+02

 Order=           3
     NS sqrt iter    1 1.00000000   0.728E+00       0.001       64.377
     NS sqrt iter    2 1.00000000   0.330E+00       0.001      109.766
     NS sqrt iter    3 1.00000000   0.706E-01       0.001      110.592
     NS sqrt iter    4 1.00000000   0.147E-02       0.001      110.592
     NS sqrt iter    5 1.00000000   0.267E-07       0.001       56.704
     Symmetrizing Results
     Final NS sqrt iter    5 1.00000000   0.390E-08

     Est. extremal eigenvalues     -0.93017     1.59928  converged:  T
     TRS4 it   1 1.00000000   0.853E+00       0.000       16.128   0.100E-07
     TRS4 it   2 1.00000000   0.593E+00       0.001       32.256   0.100E-07
     TRS4 it   3 1.00000000   0.399E+00       0.001       32.256   0.100E-07
     TRS4 it   4 1.00000000   0.200E+00       0.001       32.256   0.100E-07
     TRS4 it   5 1.00000000   0.616E-01       0.001       32.256   0.100E-07
     TRS4 it   6 1.00000000   0.704E-02       0.001       32.256   0.100E-07
     TRS4 it   7 1.00000000   0.114E-03       0.001       32.256   0.100E-07
     TRS4 it   8 1.00000000   0.402E-07       0.001       32.256   0.100E-07
     Final TRS4 iteration    8 1.00000000   0.402E-07
     Chemical potential (mu):       0.01050
 
 PAO| energy:  -7.7044931046906999      penalty:   1.5347962293088638E-005
 PAO|LS| adapt:  T T T
 PAO|LS| adapt: scan_steps:    0.0000000000000000       0.28382151330261451       0.56764302660522903     
 PAO|LS| adapt: energies:   -7.7024583672983598       -7.7049969521816513       -7.7044931046906999     
 PAO|LS| adapt: suggested step_size:   0.37872949724936100     
 PAO|LS| adapt: predicted energy  -7.7051670527683909     
 PAO| ======================= Iteration:        15 =============================

     Lanczos converged:  T threshold:   0.100E-02
     Est. extremal eigenvalues:    0.288E+01   0.193E+00
     Est. condition number :    0.149E+02

 Order=           3
     NS sqrt iter    1 1.00000000   0.733E+00       0.001       64.512
     NS sqrt iter    2 1.00000000   0.335E+00       0.001       99.131
     NS sqrt iter    3 1.00000000   0.736E-01       0.001      101.163
     NS sqrt iter    4 1.00000000   0.166E-02       0.001       98.241
     NS sqrt iter    5 1.00000000   0.393E-07       0.001       57.671
     Symmetrizing Results
     Final NS sqrt iter    5 1.00000000   0.328E-08

     Est. extremal eigenvalues     -0.93022     1.60424  converged:  T
     TRS4 it   1 1.00000000   0.854E+00       0.000       16.128   0.100E-07
     TRS4 it   2 1.00000000   0.595E+00       0.001       32.256   0.100E-07
     TRS4 it   3 1.00000000   0.402E+00       0.001       32.256   0.100E-07
     TRS4 it   4 1.00000000   0.204E+00       0.001       32.256   0.100E-07
     TRS4 it   5 1.00000000   0.643E-01       0.001       32.256   0.100E-07
     TRS4 it   6 1.00000000   0.771E-02       0.001       32.256   0.100E-07
     TRS4 it   7 1.00000000   0.138E-03       0.001       32.256   0.100E-07
     TRS4 it   8 1.00000000   0.610E-07       0.001       32.256   0.100E-07
     Final TRS4 iteration    8 1.00000000   0.610E-07
     Chemical potential (mu):       0.00742
 
 PAO| energy:  -7.7051628281770244      penalty:   1.4559389352212056E-005
 PAO|CG| trace_G_new    3.0686298363735037E-003
 PAO|CG| trace_G_prev    1.4513997299694277E-002
 PAO|CG| trace_G_mix    1.1774410858168445E-004
 PAO|CG| trace_D    2.1493313721783109E-002
 PAO|CG| trace_D_Gnew   3.3718777107195438E-005
 PAO|CG| beta:   0.20331309610027121     
 PAO| norm of gradient:   5.5395214923073491E-002
 PAO| energy improvement:  -2.7044608786646052E-003
 PAO| step     15                   -7.705162828  0.346E-02  0.379E+00     0.070
 PAO|LS| adapt:  T F F
 PAO|LS| adapt: scan_steps:    0.0000000000000000        0.0000000000000000        0.0000000000000000     
 PAO|LS| adapt: energies:   -7.7051628281770244        0.0000000000000000        0.0000000000000000     
 PAO| ======================= Iteration:        16 =============================

     Lanczos converged:  T threshold:   0.100E-02
     Est. extremal eigenvalues:    0.287E+01   0.194E+00
     Est. condition number :    0.148E+02

 Order=           3
     NS sqrt iter    1 1.00000000   0.731E+00       0.001       64.512
     NS sqrt iter    2 1.00000000   0.334E+00       0.001      108.690
     NS sqrt iter    3 1.00000000   0.730E-01       0.001      110.592
     NS sqrt iter    4 1.00000000   0.161E-02       0.001      110.592
     NS sqrt iter    5 1.00000000   0.355E-07       0.001       62.720
     Symmetrizing Results
     Final NS sqrt iter    5 1.00000000   0.312E-08

     Est. extremal eigenvalues     -0.93024     1.60412  converged:  T
     TRS4 it   1 1.00000000   0.854E+00       0.000       16.128   0.100E-07
     TRS4 it   2 1.00000000   0.594E+00       0.001       32.256   0.100E-07
     TRS4 it   3 1.00000000   0.401E+00       0.001       32.256   0.100E-07
     TRS4 it   4 1.00000000   0.202E+00       0.001       32.256   0.100E-07
     TRS4 it   5 1.00000000   0.631E-01       0.001       32.256   0.100E-07
     TRS4 it   6 1.00000000   0.743E-02       0.001       32.256   0.100E-07
     TRS4 it   7 1.00000000   0.129E-03       0.001       32.256   0.100E-07
     TRS4 it   8 1.00000000   0.536E-07       0.001       32.256   0.100E-07
     Final TRS4 iteration    8 1.00000000   0.536E-07
     Chemical potential (mu):       0.00852
 
 PAO| energy:  -7.7052883738098279      penalty:   1.4442977258414698E-005
 PAO|LS| adapt:  T T F
 PAO|LS| adapt: scan_steps:    0.0000000000000000       0.37872949724936100        0.0000000000000000     
 PAO|LS| adapt: energies:   -7.7051628281770244       -7.7052883738098279        0.0000000000000000     
 PAO| ======================= Iteration:        17 =============================

     Lanczos converged:  T threshold:   0.100E-02
     Est. extremal eigenvalues:    0.286E+01   0.194E+00
     Est. condition number :    0.147E+02

 Order=           3
     NS sqrt iter    1 1.00000000   0.729E+00       0.001       64.512
     NS sqrt iter    2 1.00000000   0.332E+00       0.001      110.592
     NS sqrt iter    3 1.00000000   0.724E-01       0.001      110.592
     NS sqrt iter    4 1.00000000   0.157E-02       0.001      110.592
     NS sqrt iter    5 1.00000000   0.322E-07       0.001       61.824
     Symmetrizing Results
     Final NS sqrt iter    5 1.00000000   0.221E-08

     Est. extremal eigenvalues     -0.93013     1.60413  converged:  T
     TRS4 it   1 1.00000000   0.854E+00       0.000       16.128   0.100E-07
     TRS4 it   2 1.00000000   0.594E+00       0.001       32.256   0.100E-07
     TRS4 it   3 1.00000000   0.400E+00       0.001       32.256   0.100E-07
     TRS4 it   4 1.00000000   0.200E+00       0.001       32.256   0.100E-07
     TRS4 it   5 1.00000000   0.619E-01       0.001       32.256   0.100E-07
     TRS4 it   6 1.00000000   0.716E-02       0.001       32.256   0.100E-07
     TRS4 it   7 1.00000000   0.121E-03       0.001       32.256   0.100E-07
     TRS4 it   8 1.00000000   0.472E-07       0.001       32.256   0.100E-07
     Final TRS4 iteration    8 1.00000000   0.472E-07
     Chemical potential (mu):       0.00959
 
 PAO| energy:  -7.7033349546109608      penalty:   1.4473279395578893E-005
 PAO|LS| adapt:  T T T
 PAO|LS| adapt: scan_steps:    0.0000000000000000       0.37872949724936100       0.75745899449872200     
 PAO|LS| adapt: energies:   -7.7051628281770244       -7.7052883738098279       -7.7033349546109608     
 PAO|LS| adapt: suggested step_size:   0.21223566672257274     
 PAO|LS| adapt: predicted energy  -7.7054892623555729     
 PAO| ======================= Iteration:        18 =============================

     Lanczos converged:  T threshold:   0.100E-02
     Est. extremal eigenvalues:    0.287E+01   0.193E+00
     Est. condition number :    0.149E+02

 Order=           3
     NS sqrt iter    1 1.00000000   0.732E+00       0.001       62.480
     NS sqrt iter    2 1.00000000   0.334E+00       0.001      110.592
     NS sqrt iter    3 1.00000000   0.733E-01       0.001      110.592
     NS sqrt iter    4 1.00000000   0.164E-02       0.001      110.592
     NS sqrt iter    5 1.00000000   0.371E-07       0.001       63.104
     Symmetrizing Results
     Final NS sqrt iter    5 1.00000000   0.319E-08

     Est. extremal eigenvalues     -0.93024     1.60415  converged:  T
     TRS4 it   1 1.00000000   0.854E+00       0.000       16.128   0.100E-07
     TRS4 it   2 1.00000000   0.595E+00       0.001       32.256   0.100E-07
     TRS4 it   3 1.00000000   0.402E+00       0.001       32.256   0.100E-07
     TRS4 it   4 1.00000000   0.203E+00       0.001       32.256   0.100E-07
     TRS4 it   5 1.00000000   0.636E-01       0.001       32.256   0.100E-07
     TRS4 it   6 1.00000000   0.755E-02       0.001       32.256   0.100E-07
     TRS4 it   7 1.00000000   0.133E-03       0.001       32.256   0.100E-07
     TRS4 it   8 1.00000000   0.568E-07       0.001       32.256   0.100E-07
     Final TRS4 iteration    8 1.00000000   0.568E-07
     Chemical potential (mu):       0.00804
 
 PAO| energy:  -7.7054883321230996      penalty:   1.4476524919196963E-005
 PAO|CG| trace_G_new    8.7897400186234733E-004
 PAO|CG| trace_G_prev    3.0686298363735037E-003
 PAO|CG| trace_G_mix    1.9704182009559522E-006
 PAO|CG| trace_D    3.9433711364848956E-003
 PAO|CG| trace_D_Gnew  -3.0393415065245030E-006
 PAO|CG| beta:   0.28579647283161114     
 PAO| norm of gradient:   2.9647495709795579E-002
 PAO| energy improvement:  -3.2550394607522293E-004
 PAO| step     18                   -7.705488332  0.185E-02  0.212E+00     0.051
 PAO|LS| adapt:  T F F
 PAO|LS| adapt: scan_steps:    0.0000000000000000        0.0000000000000000        0.0000000000000000     
 PAO|LS| adapt: energies:   -7.7054883321230996        0.0000000000000000        0.0000000000000000     
 PAO| ======================= Iteration:        19 =============================

     Lanczos converged:  T threshold:   0.100E-02
     Est. extremal eigenvalues:    0.287E+01   0.193E+00
     Est. condition number :    0.149E+02

 Order=           3
     NS sqrt iter    1 1.00000000   0.732E+00       0.001       63.403
     NS sqrt iter    2 1.00000000   0.334E+00       0.001      109.144
     NS sqrt iter    3 1.00000000   0.735E-01       0.001      110.592
     NS sqrt iter    4 1.00000000   0.164E-02       0.001      110.592
     NS sqrt iter    5 1.00000000   0.374E-07       0.001       64.896
     Symmetrizing Results
     Final NS sqrt iter    5 1.00000000   0.627E-09

     Est. extremal eigenvalues     -0.93024     1.60403  converged:  T
     TRS4 it   1 1.00000000   0.854E+00       0.000       16.128   0.100E-07
     TRS4 it   2 1.00000000   0.595E+00       0.001       32.256   0.100E-07
     TRS4 it   3 1.00000000   0.401E+00       0.001       32.256   0.100E-07
     TRS4 it   4 1.00000000   0.202E+00       0.001       32.256   0.100E-07
     TRS4 it   5 1.00000000   0.634E-01       0.001       32.256   0.100E-07
     TRS4 it   6 1.00000000   0.752E-02       0.001       32.256   0.100E-07
     TRS4 it   7 1.00000000   0.133E-03       0.001       32.256   0.100E-07
     TRS4 it   8 1.00000000   0.574E-07       0.001       32.256   0.100E-07
     Final TRS4 iteration    8 1.00000000   0.574E-07
     Chemical potential (mu):       0.00790
 
 PAO| energy:  -7.7056305898153266      penalty:   1.4215143548685275E-005
 PAO|LS| adapt:  T T F
 PAO|LS| adapt: scan_steps:    0.0000000000000000       0.21223566672257274        0.0000000000000000     
 PAO|LS| adapt: energies:   -7.7054883321230996       -7.7056305898153266        0.0000000000000000     
 PAO| ======================= Iteration:        20 =============================

     Lanczos converged:  T threshold:   0.100E-02
     Est. extremal eigenvalues:    0.287E+01   0.193E+00
     Est. condition number :    0.149E+02

 Order=           3
     NS sqrt iter    1 1.00000000   0.732E+00       0.001       64.512
     NS sqrt iter    2 1.00000000   0.335E+00       0.001      110.527
     NS sqrt iter    3 1.00000000   0.737E-01       0.001      110.592
     NS sqrt iter    4 1.00000000   0.165E-02       0.001      110.592
     NS sqrt iter    5 1.00000000   0.376E-07       0.001       64.896
     Symmetrizing Results
     Final NS sqrt iter    5 1.00000000   0.629E-09

     Est. extremal eigenvalues     -0.93024     1.60390  converged:  T
     TRS4 it   1 1.00000000   0.854E+00       0.000       16.128   0.100E-07
     TRS4 it   2 1.00000000   0.594E+00       0.001       32.256   0.100E-07
     TRS4 it   3 1.00000000   0.401E+00       0.001       32.256   0.100E-07
     TRS4 it   4 1.00000000   0.202E+00       0.001       32.256   0.100E-07
     TRS4 it   5 1.00000000   0.633E-01       0.001       32.256   0.100E-07
     TRS4 it   6 1.00000000   0.750E-02       0.001       32.256   0.100E-07
     TRS4 it   7 1.00000000   0.133E-03       0.001       32.256   0.100E-07
     TRS4 it   8 1.00000000   0.581E-07       0.001       32.256   0.100E-07
     Final TRS4 iteration    8 1.00000000   0.581E-07
     Chemical potential (mu):       0.00775
 
 PAO| energy:  -7.7056832477440826      penalty:   1.3966746351293754E-005
 PAO|LS| adapt:  T T F
 PAO|LS| adapt: scan_steps:    0.0000000000000000       0.42447133344514548        0.0000000000000000     
 PAO|LS| adapt: energies:   -7.7054883321230996       -7.7056832477440826        0.0000000000000000     
 PAO| ======================= Iteration:        21 =============================

     Lanczos converged:  T threshold:   0.100E-02
     Est. extremal eigenvalues:    0.287E+01   0.193E+00
     Est. condition number :    0.149E+02

 Order=           3
     NS sqrt iter    1 1.00000000   0.731E+00       0.001       64.512
     NS sqrt iter    2 1.00000000   0.335E+00       0.001      110.592
     NS sqrt iter    3 1.00000000   0.742E-01       0.001      110.592
     NS sqrt iter    4 1.00000000   0.168E-02       0.001      110.592
     NS sqrt iter    5 1.00000000   0.380E-07       0.001       64.896
     Symmetrizing Results
     Final NS sqrt iter    5 1.00000000   0.634E-09

     Est. extremal eigenvalues     -0.93023     1.60367  converged:  T
     TRS4 it   1 1.00000000   0.854E+00       0.000       16.128   0.100E-07
     TRS4 it   2 1.00000000   0.594E+00       0.001       32.256   0.100E-07
     TRS4 it   3 1.00000000   0.401E+00       0.001       32.256   0.100E-07
     TRS4 it   4 1.00000000   0.201E+00       0.001       32.256   0.100E-07
     TRS4 it   5 1.00000000   0.629E-01       0.001       32.256   0.100E-07
     TRS4 it   6 1.00000000   0.745E-02       0.001       32.256   0.100E-07
     TRS4 it   7 1.00000000   0.133E-03       0.001       32.256   0.100E-07
     TRS4 it   8 1.00000000   0.596E-07       0.001       32.256   0.100E-07
     Final TRS4 iteration    8 1.00000000   0.596E-07
     Chemical potential (mu):       0.00744
 
 PAO| energy:  -7.7055157892994774      penalty:   1.3508634761895344E-005
 PAO|LS| Need extra step
 PAO|LS| adapt:  T T T
 PAO|LS| adapt: scan_steps:    0.0000000000000000       0.42447133344514548       0.84894266689029096     
 PAO|LS| adapt: energies:   -7.7054883321230996       -7.7056832477440826       -7.7055157892994774     
 PAO|LS| adapt: suggested step_size:   0.44055248463187774     
 PAO|LS| adapt: predicted energy  -7.7056835077987493     
 PAO| ======================= Iteration:        22 =============================

     Lanczos converged:  T threshold:   0.100E-02
     Est. extremal eigenvalues:    0.287E+01   0.193E+00
     Est. condition number :    0.149E+02

 Order=           3
     NS sqrt iter    1 1.00000000   0.732E+00       0.001       64.512
     NS sqrt iter    2 1.00000000   0.335E+00       0.001      110.592
     NS sqrt iter    3 1.00000000   0.737E-01       0.001      109.785
     NS sqrt iter    4 1.00000000   0.166E-02       0.001      110.592
     NS sqrt iter    5 1.00000000   0.376E-07       0.001       64.896
     Symmetrizing Results
     Final NS sqrt iter    5 1.00000000   0.629E-09

     Est. extremal eigenvalues     -0.93024     1.60389  converged:  T
     TRS4 it   1 1.00000000   0.854E+00       0.000       16.128   0.100E-07
     TRS4 it   2 1.00000000   0.594E+00       0.001       32.256   0.100E-07
     TRS4 it   3 1.00000000   0.401E+00       0.001       32.256   0.100E-07
     TRS4 it   4 1.00000000   0.202E+00       0.001       32.256   0.100E-07
     TRS4 it   5 1.00000000   0.633E-01       0.001       32.256   0.100E-07
     TRS4 it   6 1.00000000   0.750E-02       0.001       32.256   0.100E-07
     TRS4 it   7 1.00000000   0.133E-03       0.001       32.256   0.100E-07
     TRS4 it   8 1.00000000   0.582E-07       0.001       32.256   0.100E-07
     Final TRS4 iteration    8 1.00000000   0.582E-07
     Chemical potential (mu):       0.00774
 
 PAO| energy:  -7.7056835578624394      penalty:   1.3948450960432348E-005
 PAO|CG| trace_G_new    2.3438585683802608E-004
 PAO|CG| trace_G_prev    8.7897400186234733E-004
 PAO|CG| trace_G_mix    6.1138876173291217E-006
 PAO|CG| trace_D    1.2028043392860619E-003
 PAO|CG| trace_D_Gnew  -3.1088595516155731E-006
 PAO|CG| beta:   0.25970275427605394     
 PAO| norm of gradient:   1.5309665471133787E-002
 PAO| energy improvement:  -1.9522573933983267E-004
 PAO| step     22                   -7.705683558  0.957E-03  0.441E+00     0.067
 PAO|LS| adapt:  T F F
 PAO|LS| adapt: scan_steps:    0.0000000000000000        0.0000000000000000        0.0000000000000000     
 PAO|LS| adapt: energies:   -7.7056835578624394        0.0000000000000000        0.0000000000000000     
 PAO| ======================= Iteration:        23 =============================

     Lanczos converged:  T threshold:   0.100E-02
     Est. extremal eigenvalues:    0.287E+01   0.193E+00
     Est. condition number :    0.149E+02

 Order=           3
     NS sqrt iter    1 1.00000000   0.731E+00       0.001       58.171
     NS sqrt iter    2 1.00000000   0.335E+00       0.001       95.741
     NS sqrt iter    3 1.00000000   0.737E-01       0.001       97.622
     NS sqrt iter    4 1.00000000   0.165E-02       0.001       96.941
     NS sqrt iter    5 1.00000000   0.372E-07       0.001       58.302
     Symmetrizing Results
     Final NS sqrt iter    5 1.00000000   0.630E-09

     Est. extremal eigenvalues     -0.93024     1.60429  converged:  T
     TRS4 it   1 1.00000000   0.854E+00       0.000       16.128   0.100E-07
     TRS4 it   2 1.00000000   0.595E+00       0.001       32.256   0.100E-07
     TRS4 it   3 1.00000000   0.401E+00       0.001       32.256   0.100E-07
     TRS4 it   4 1.00000000   0.202E+00       0.001       32.256   0.100E-07
     TRS4 it   5 1.00000000   0.634E-01       0.001       32.256   0.100E-07
     TRS4 it   6 1.00000000   0.754E-02       0.001       32.256   0.100E-07
     TRS4 it   7 1.00000000   0.135E-03       0.001       32.256   0.100E-07
     TRS4 it   8 1.00000000   0.601E-07       0.001       32.256   0.100E-07
     Final TRS4 iteration    8 1.00000000   0.601E-07
     Chemical potential (mu):       0.00750
 
 PAO| energy:  -7.7057236664087885      penalty:   1.3329982681847162E-005
 PAO|LS| adapt:  T T F
 PAO|LS| adapt: scan_steps:    0.0000000000000000       0.44055248463187774        0.0000000000000000     
 PAO|LS| adapt: energies:   -7.7056835578624394       -7.7057236664087885        0.0000000000000000     
 PAO| ======================= Iteration:        24 =============================

     Lanczos converged:  T threshold:   0.100E-02
     Est. extremal eigenvalues:    0.287E+01   0.193E+00
     Est. condition number :    0.149E+02

 Order=           3
     NS sqrt iter    1 1.00000000   0.731E+00       0.001       57.451
     NS sqrt iter    2 1.00000000   0.335E+00       0.001       97.617
     NS sqrt iter    3 1.00000000   0.737E-01       0.001       97.494
     NS sqrt iter    4 1.00000000   0.165E-02       0.001       96.097
     NS sqrt iter    5 1.00000000   0.369E-07       0.001       58.920
     Symmetrizing Results
     Final NS sqrt iter    5 1.00000000   0.626E-09

     Est. extremal eigenvalues     -0.93024     1.60469  converged:  T
     TRS4 it   1 1.00000000   0.854E+00       0.000       16.128   0.100E-07
     TRS4 it   2 1.00000000   0.595E+00       0.001       32.256   0.100E-07
     TRS4 it   3 1.00000000   0.402E+00       0.001       32.256   0.100E-07
     TRS4 it   4 1.00000000   0.202E+00       0.001       32.256   0.100E-07
     TRS4 it   5 1.00000000   0.636E-01       0.001       32.256   0.100E-07
     TRS4 it   6 1.00000000   0.759E-02       0.001       32.256   0.100E-07
     TRS4 it   7 1.00000000   0.137E-03       0.001       32.256   0.100E-07
     TRS4 it   8 1.00000000   0.621E-07       0.001       32.256   0.100E-07
     Final TRS4 iteration    8 1.00000000   0.621E-07
     Chemical potential (mu):       0.00725
 
 PAO| energy:  -7.7056360722199777      penalty:   1.2736203537434919E-005
 PAO|LS| adapt:  T T T
 PAO|LS| adapt: scan_steps:    0.0000000000000000       0.44055248463187774       0.88110496926375548     
 PAO|LS| adapt: energies:   -7.7056835578624394       -7.7057236664087885       -7.7056360722199777     
 PAO|LS| adapt: suggested step_size:   0.35864383269633382     
 PAO|LS| adapt: predicted energy  -7.7057258735720078     
 PAO| ======================= Iteration:        25 =============================

     Lanczos converged:  T threshold:   0.100E-02
     Est. extremal eigenvalues:    0.287E+01   0.193E+00
     Est. condition number :    0.149E+02

 Order=           3
     NS sqrt iter    1 1.00000000   0.732E+00       0.001       57.397
     NS sqrt iter    2 1.00000000   0.335E+00       0.001       96.571
     NS sqrt iter    3 1.00000000   0.737E-01       0.001       97.170
     NS sqrt iter    4 1.00000000   0.165E-02       0.001       95.294
     NS sqrt iter    5 1.00000000   0.373E-07       0.001       59.474
     Symmetrizing Results
     Final NS sqrt iter    5 1.00000000   0.631E-09

     Est. extremal eigenvalues     -0.93024     1.60422  converged:  T
     TRS4 it   1 1.00000000   0.854E+00       0.000       16.128   0.100E-07
     TRS4 it   2 1.00000000   0.595E+00       0.001       32.256   0.100E-07
     TRS4 it   3 1.00000000   0.401E+00       0.001       32.256   0.100E-07
     TRS4 it   4 1.00000000   0.202E+00       0.001       32.256   0.100E-07
     TRS4 it   5 1.00000000   0.634E-01       0.001       32.256   0.100E-07
     TRS4 it   6 1.00000000   0.753E-02       0.001       32.256   0.100E-07
     TRS4 it   7 1.00000000   0.135E-03       0.001       32.256   0.100E-07
     TRS4 it   8 1.00000000   0.597E-07       0.001       32.256   0.100E-07
     Final TRS4 iteration    8 1.00000000   0.597E-07
     Chemical potential (mu):       0.00754
 
 PAO| energy:  -7.7057258425488095      penalty:   1.3443087617655095E-005
 PAO|CG| trace_G_new    7.4240037274179492E-005
 PAO|CG| trace_G_prev    2.3438585683802608E-004
 PAO|CG| trace_G_mix    2.0993692170065198E-007
 PAO|CG| trace_D    3.1712438043175962E-004
 PAO|CG| trace_D_Gnew  -3.5769431625411339E-007
 PAO|CG| beta:   0.31584713067238457     
 PAO| norm of gradient:   8.6162658544278615E-003
 PAO| energy improvement:  -4.2284686370130942E-005
 PAO| step     25                   -7.705725843  0.539E-03  0.359E+00     0.057
 PAO|LS| adapt:  T F F
 PAO|LS| adapt: scan_steps:    0.0000000000000000        0.0000000000000000        0.0000000000000000     
 PAO|LS| adapt: energies:   -7.7057258425488095        0.0000000000000000        0.0000000000000000     
 PAO| ======================= Iteration:        26 =============================

     Lanczos converged:  T threshold:   0.100E-02
     Est. extremal eigenvalues:    0.287E+01   0.193E+00
     Est. condition number :    0.149E+02

 Order=           3
     NS sqrt iter    1 1.00000000   0.731E+00       0.001       57.164
     NS sqrt iter    2 1.00000000   0.335E+00       0.001       98.839
     NS sqrt iter    3 1.00000000   0.737E-01       0.001       99.226
     NS sqrt iter    4 1.00000000   0.165E-02       0.001       98.210
     NS sqrt iter    5 1.00000000   0.369E-07       0.001       57.693
     Symmetrizing Results
     Final NS sqrt iter    5 1.00000000   0.625E-09

     Est. extremal eigenvalues     -0.93024     1.60421  converged:  T
     TRS4 it   1 1.00000000   0.854E+00       0.000       16.128   0.100E-07
     TRS4 it   2 1.00000000   0.595E+00       0.001       32.256   0.100E-07
     TRS4 it   3 1.00000000   0.401E+00       0.001       32.256   0.100E-07
     TRS4 it   4 1.00000000   0.202E+00       0.001       32.256   0.100E-07
     TRS4 it   5 1.00000000   0.634E-01       0.001       32.256   0.100E-07
     TRS4 it   6 1.00000000   0.753E-02       0.001       32.256   0.100E-07
     TRS4 it   7 1.00000000   0.134E-03       0.001       32.256   0.100E-07
     TRS4 it   8 1.00000000   0.594E-07       0.001       32.256   0.100E-07
     Final TRS4 iteration    8 1.00000000   0.594E-07
     Chemical potential (mu):       0.00759
 
 PAO| energy:  -7.7057332654345343      penalty:   1.2899813935823368E-005
 PAO|LS| adapt:  T T F
 PAO|LS| adapt: scan_steps:    0.0000000000000000       0.35864383269633382        0.0000000000000000     
 PAO|LS| adapt: energies:   -7.7057258425488095       -7.7057332654345343        0.0000000000000000     
 PAO| ======================= Iteration:        27 =============================

     Lanczos converged:  T threshold:   0.100E-02
     Est. extremal eigenvalues:    0.287E+01   0.193E+00
     Est. condition number :    0.149E+02

 Order=           3
     NS sqrt iter    1 1.00000000   0.731E+00       0.001       58.051
     NS sqrt iter    2 1.00000000   0.334E+00       0.001       97.983
     NS sqrt iter    3 1.00000000   0.736E-01       0.001      101.242
     NS sqrt iter    4 1.00000000   0.164E-02       0.001       98.448
     NS sqrt iter    5 1.00000000   0.366E-07       0.001       59.153
     Symmetrizing Results
     Final NS sqrt iter    5 1.00000000   0.619E-09

     Est. extremal eigenvalues     -0.93024     1.60421  converged:  T
     TRS4 it   1 1.00000000   0.854E+00       0.000       16.128   0.100E-07
     TRS4 it   2 1.00000000   0.595E+00       0.001       32.256   0.100E-07
     TRS4 it   3 1.00000000   0.401E+00       0.001       32.256   0.100E-07
     TRS4 it   4 1.00000000   0.202E+00       0.001       32.256   0.100E-07
     TRS4 it   5 1.00000000   0.633E-01       0.001       32.256   0.100E-07
     TRS4 it   6 1.00000000   0.752E-02       0.001       32.256   0.100E-07
     TRS4 it   7 1.00000000   0.134E-03       0.001       32.256   0.100E-07
     TRS4 it   8 1.00000000   0.591E-07       0.001       32.256   0.100E-07
     Final TRS4 iteration    8 1.00000000   0.591E-07
     Chemical potential (mu):       0.00764
 
 PAO| energy:  -7.7057021398444645      penalty:   1.2369913056456476E-005
 PAO|LS| adapt:  T T T
 PAO|LS| adapt: scan_steps:    0.0000000000000000       0.35864383269633382       0.71728766539266764     
 PAO|LS| adapt: energies:   -7.7057258425488095       -7.7057332654345343       -7.7057021398444645     
 PAO|LS| adapt: suggested step_size:   0.24838229113912932     
 PAO|LS| adapt: predicted energy  -7.7057350872257384     
 PAO| ======================= Iteration:        28 =============================

     Lanczos converged:  T threshold:   0.100E-02
     Est. extremal eigenvalues:    0.287E+01   0.193E+00
     Est. condition number :    0.149E+02

 Order=           3
     NS sqrt iter    1 1.00000000   0.731E+00       0.001       59.394
     NS sqrt iter    2 1.00000000   0.335E+00       0.001       97.516
     NS sqrt iter    3 1.00000000   0.737E-01       0.001      100.056
     NS sqrt iter    4 1.00000000   0.165E-02       0.001       99.235
     NS sqrt iter    5 1.00000000   0.370E-07       0.001       59.055
     Symmetrizing Results
     Final NS sqrt iter    5 1.00000000   0.627E-09

     Est. extremal eigenvalues     -0.93024     1.60421  converged:  T
     TRS4 it   1 1.00000000   0.854E+00       0.000       16.128   0.100E-07
     TRS4 it   2 1.00000000   0.595E+00       0.001       32.256   0.100E-07
     TRS4 it   3 1.00000000   0.401E+00       0.001       32.256   0.100E-07
     TRS4 it   4 1.00000000   0.202E+00       0.001       32.256   0.100E-07
     TRS4 it   5 1.00000000   0.634E-01       0.001       32.256   0.100E-07
     TRS4 it   6 1.00000000   0.753E-02       0.001       32.256   0.100E-07
     TRS4 it   7 1.00000000   0.134E-03       0.001       32.256   0.100E-07
     TRS4 it   8 1.00000000   0.595E-07       0.001       32.256   0.100E-07
     Final TRS4 iteration    8 1.00000000   0.595E-07
     Chemical potential (mu):       0.00758
 
 PAO| energy:  -7.7057350830045666      penalty:   1.3065408712476695E-005
 PAO|CG| trace_G_new    2.3647667698161029E-005
 PAO|CG| trace_G_prev    7.4240037274179492E-005
 PAO|CG| trace_G_mix    6.3494689429217863E-008
 PAO|CG| trace_D    1.0610213179496617E-004
 PAO|CG| trace_D_Gnew  -2.9028221030703086E-008
 PAO|CG| beta:   0.31767458469386212     
 PAO| norm of gradient:   4.8628867659201184E-003
 PAO| energy improvement:  -9.2404557570091583E-006
 PAO| step     28                   -7.705735083  0.304E-03  0.248E+00     0.057
 PAO|LS| adapt:  T F F
 PAO|LS| adapt: scan_steps:    0.0000000000000000        0.0000000000000000        0.0000000000000000     
 PAO|LS| adapt: energies:   -7.7057350830045666        0.0000000000000000        0.0000000000000000     
 PAO| ======================= Iteration:        29 =============================

     Lanczos converged:  T threshold:   0.100E-02
     Est. extremal eigenvalues:    0.287E+01   0.193E+00
     Est. condition number :    0.149E+02

 Order=           3
     NS sqrt iter    1 1.00000000   0.731E+00       0.001       55.676
     NS sqrt iter    2 1.00000000   0.334E+00       0.001       97.492
     NS sqrt iter    3 1.00000000   0.736E-01       0.001       98.797
     NS sqrt iter    4 1.00000000   0.165E-02       0.001       98.695
     NS sqrt iter    5 1.00000000   0.369E-07       0.001       59.609
     Symmetrizing Results
     Final NS sqrt iter    5 1.00000000   0.625E-09

     Est. extremal eigenvalues     -0.93024     1.60418  converged:  T
     TRS4 it   1 1.00000000   0.854E+00       0.000       16.128   0.100E-07
     TRS4 it   2 1.00000000   0.595E+00       0.001       32.256   0.100E-07
     TRS4 it   3 1.00000000   0.401E+00       0.001       32.256   0.100E-07
     TRS4 it   4 1.00000000   0.202E+00       0.001       32.256   0.100E-07
     TRS4 it   5 1.00000000   0.633E-01       0.001       32.256   0.100E-07
     TRS4 it   6 1.00000000   0.751E-02       0.001       32.256   0.100E-07
     TRS4 it   7 1.00000000   0.134E-03       0.001       32.256   0.100E-07
     TRS4 it   8 1.00000000   0.589E-07       0.001       32.256   0.100E-07
     Final TRS4 iteration    8 1.00000000   0.589E-07
     Chemical potential (mu):       0.00767
 
 PAO| energy:  -7.7057402907312857      penalty:   1.2685076733919215E-005
 PAO|LS| adapt:  T T F
 PAO|LS| adapt: scan_steps:    0.0000000000000000       0.24838229113912932        0.0000000000000000     
 PAO|LS| adapt: energies:   -7.7057350830045666       -7.7057402907312857        0.0000000000000000     
 PAO| ======================= Iteration:        30 =============================

     Lanczos converged:  T threshold:   0.100E-02
     Est. extremal eigenvalues:    0.287E+01   0.193E+00
     Est. condition number :    0.149E+02

 Order=           3
     NS sqrt iter    1 1.00000000   0.731E+00       0.001       58.549
     NS sqrt iter    2 1.00000000   0.334E+00       0.001       97.559
     NS sqrt iter    3 1.00000000   0.736E-01       0.001       96.364
     NS sqrt iter    4 1.00000000   0.164E-02       0.001      100.252
     NS sqrt iter    5 1.00000000   0.367E-07       0.001       58.283
     Symmetrizing Results
     Final NS sqrt iter    5 1.00000000   0.331E-08

     Est. extremal eigenvalues     -0.93024     1.60415  converged:  T
     TRS4 it   1 1.00000000   0.854E+00       0.000       16.128   0.100E-07
     TRS4 it   2 1.00000000   0.595E+00       0.001       32.256   0.100E-07
     TRS4 it   3 1.00000000   0.401E+00       0.001       32.256   0.100E-07
     TRS4 it   4 1.00000000   0.202E+00       0.001       32.256   0.100E-07
     TRS4 it   5 1.00000000   0.632E-01       0.001       32.256   0.100E-07
     TRS4 it   6 1.00000000   0.749E-02       0.001       32.256   0.100E-07
     TRS4 it   7 1.00000000   0.133E-03       0.001       32.256   0.100E-07
     TRS4 it   8 1.00000000   0.582E-07       0.001       32.256   0.100E-07
     Final TRS4 iteration    8 1.00000000   0.582E-07
     Chemical potential (mu):       0.00776
 
 PAO| energy:  -7.7057441638712874      penalty:   1.2310878904267301E-005
 PAO|LS| adapt:  T T F
 PAO|LS| adapt: scan_steps:    0.0000000000000000       0.49676458227825865        0.0000000000000000     
 PAO|LS| adapt: energies:   -7.7057350830045666       -7.7057441638712874        0.0000000000000000     
 PAO| ======================= Iteration:        31 =============================

     Lanczos converged:  T threshold:   0.100E-02
     Est. extremal eigenvalues:    0.287E+01   0.193E+00
     Est. condition number :    0.149E+02

 Order=           3
     NS sqrt iter    1 1.00000000   0.731E+00       0.001       57.729
     NS sqrt iter    2 1.00000000   0.334E+00       0.001       97.870
     NS sqrt iter    3 1.00000000   0.735E-01       0.001       96.496
     NS sqrt iter    4 1.00000000   0.164E-02       0.001       98.390
     NS sqrt iter    5 1.00000000   0.364E-07       0.001       59.383
     Symmetrizing Results
     Final NS sqrt iter    5 1.00000000   0.321E-08

     Est. extremal eigenvalues     -0.93025     1.60409  converged:  T
     TRS4 it   1 1.00000000   0.854E+00       0.000       16.128   0.100E-07
     TRS4 it   2 1.00000000   0.594E+00       0.001       32.256   0.100E-07
     TRS4 it   3 1.00000000   0.401E+00       0.001       32.256   0.100E-07
     TRS4 it   4 1.00000000   0.202E+00       0.001       32.256   0.100E-07
     TRS4 it   5 1.00000000   0.631E-01       0.001       32.256   0.100E-07
     TRS4 it   6 1.00000000   0.746E-02       0.001       32.256   0.100E-07
     TRS4 it   7 1.00000000   0.132E-03       0.001       32.256   0.100E-07
     TRS4 it   8 1.00000000   0.570E-07       0.001       32.256   0.100E-07
     Final TRS4 iteration    8 1.00000000   0.570E-07
     Chemical potential (mu):       0.00794
 
 PAO| energy:  -7.7057478868003990      penalty:   1.1580793116577262E-005
 PAO|LS| Need extra step
 PAO|LS| adapt:  T T F
 PAO|LS| adapt: scan_steps:    0.0000000000000000       0.99352916455651730        0.0000000000000000     
 PAO|LS| adapt: energies:   -7.7057350830045666       -7.7057478868003990        0.0000000000000000     
 PAO| ======================= Iteration:        32 =============================

     Lanczos converged:  T threshold:   0.100E-02
     Est. extremal eigenvalues:    0.287E+01   0.193E+00
     Est. condition number :    0.148E+02

 Order=           3
     NS sqrt iter    1 1.00000000   0.730E+00       0.001       57.684
     NS sqrt iter    2 1.00000000   0.334E+00       0.001       97.921
     NS sqrt iter    3 1.00000000   0.733E-01       0.001       99.353
     NS sqrt iter    4 1.00000000   0.163E-02       0.001       96.914
     NS sqrt iter    5 1.00000000   0.359E-07       0.001       56.845
     Symmetrizing Results
     Final NS sqrt iter    5 1.00000000   0.229E-08

     Est. extremal eigenvalues     -0.93025     1.60398  converged:  T
     TRS4 it   1 1.00000000   0.854E+00       0.000       16.128   0.100E-07
     TRS4 it   2 1.00000000   0.594E+00       0.001       32.256   0.100E-07
     TRS4 it   3 1.00000000   0.401E+00       0.001       32.256   0.100E-07
     TRS4 it   4 1.00000000   0.201E+00       0.001       32.256   0.100E-07
     TRS4 it   5 1.00000000   0.627E-01       0.001       32.256   0.100E-07
     TRS4 it   6 1.00000000   0.738E-02       0.001       32.256   0.100E-07
     TRS4 it   7 1.00000000   0.129E-03       0.001       32.256   0.100E-07
     TRS4 it   8 1.00000000   0.546E-07       0.001       32.256   0.100E-07
     Final TRS4 iteration    8 1.00000000   0.546E-07
     Chemical potential (mu):       0.00829
 
 PAO| energy:  -7.7057392620308898      penalty:   1.0193216286951450E-005
 PAO|LS| Need extra step
 PAO|LS| adapt:  T T T
 PAO|LS| adapt: scan_steps:    0.0000000000000000       0.99352916455651730        1.9870583291130346     
[...]
     Symmetrizing Results
     Final NS sqrt iter    5 1.00000000   0.319E-10

     Est. extremal eigenvalues     -0.92995     1.45648  converged:  T
     TRS4 it   1 1.00000000   0.831E+00       0.001       16.128   0.100E-07
     TRS4 it   2 1.00000000   0.595E+00       0.001       32.256   0.100E-07
     TRS4 it   3 1.00000000   0.428E+00       0.001       32.256   0.100E-07
     TRS4 it   4 1.00000000   0.260E+00       0.001       32.256   0.100E-07
     TRS4 it   5 1.00000000   0.119E+00       0.001       32.256   0.100E-07
     TRS4 it   6 1.00000000   0.311E-01       0.001       32.256   0.100E-07
     TRS4 it   7 1.00000000   0.303E-02       0.001       32.256   0.100E-07
     TRS4 it   8 1.00000000   0.376E-04       0.001       32.256   0.100E-07
     TRS4 it   9 1.00000000   0.632E-08       0.001       32.256   0.100E-07
     Final TRS4 iteration    9 1.00000000   0.632E-08
     Chemical potential (mu):      -0.07044
 
 PAO| energy:  -7.7040988093253890      penalty:   4.0588243186749516E-011
 PAO|CG| warming up with steepest descent
 PAO|CG| beta:    0.0000000000000000     
 PAO| norm of gradient:   7.1490317116478439E-006
 PAO| energy improvement:  -2.4534152487376559E-011
 PAO| step    775                   -7.704098809  0.447E-06  0.223E+00     0.106
 PAO| converged after          775  steps :-)
 PAO| Recalculating energy after mixing.

     Lanczos converged:  T threshold:   0.100E-02
     Est. extremal eigenvalues:    0.270E+01   0.233E+00
     Est. condition number :    0.116E+02

 Order=           3
     NS sqrt iter    1 1.00000000   0.681E+00       0.001       51.250
     NS sqrt iter    2 1.00000000   0.290E+00       0.001       97.249
     NS sqrt iter    3 1.00000000   0.492E-01       0.001       91.909
     NS sqrt iter    4 1.00000000   0.482E-03       0.001      101.540
     NS sqrt iter    5 1.00000000   0.442E-09       0.001       36.471
     Symmetrizing Results
     Final NS sqrt iter    5 1.00000000   0.319E-10

     Est. extremal eigenvalues     -0.92995     1.45648  converged:  T
     TRS4 it   1 1.00000000   0.831E+00       0.000       16.128   0.100E-07
     TRS4 it   2 1.00000000   0.595E+00       0.001       32.256   0.100E-07
     TRS4 it   3 1.00000000   0.428E+00       0.001       32.256   0.100E-07
     TRS4 it   4 1.00000000   0.260E+00       0.001       32.256   0.100E-07
     TRS4 it   5 1.00000000   0.119E+00       0.001       32.256   0.100E-07
     TRS4 it   6 1.00000000   0.311E-01       0.001       32.256   0.100E-07
     TRS4 it   7 1.00000000   0.303E-02       0.001       32.256   0.100E-07
     TRS4 it   8 1.00000000   0.376E-04       0.001       32.256   0.100E-07
     TRS4 it   9 1.00000000   0.632E-08       0.001       32.256   0.100E-07
     Final TRS4 iteration    9 1.00000000   0.632E-08
     Chemical potential (mu):      -0.07044
 
 PAO| energy:  -7.7040988093192571      penalty:   4.0953122170508992E-011
 PAO| Writing restart file.
     Est. extremal eigenvalues     -0.92995     1.45648  converged:  T
     TRS4 it   1 1.00000000   0.831E+00       0.000       16.128   0.100E-07
     TRS4 it   2 1.00000000   0.595E+00       0.001       32.256   0.100E-07
     TRS4 it   3 1.00000000   0.428E+00       0.001       32.256   0.100E-07
     TRS4 it   4 1.00000000   0.260E+00       0.001       32.256   0.100E-07
     TRS4 it   5 1.00000000   0.119E+00       0.001       32.256   0.100E-07
     TRS4 it   6 1.00000000   0.311E-01       0.001       32.256   0.100E-07
     TRS4 it   7 1.00000000   0.303E-02       0.001       32.256   0.100E-07
     TRS4 it   8 1.00000000   0.376E-04       0.001       32.256   0.100E-07
     TRS4 it   9 1.00000000   0.632E-08       0.001       32.256   0.100E-07
     Final TRS4 iteration    9 1.00000000   0.632E-08
     Chemical potential (mu):      -0.07044

 SCF     1       -34.446536031       -34.446536031    3.317782

*********************************************************
 Using MIXING_FRACTION=0.450 to mix KS matrix:  iscf=  2
 KS_nw=0.450*KS + 0.550*KS_old
*********************************************************
     Est. extremal eigenvalues     -0.92995     1.45648  converged:  T
     TRS4 it   1 1.00000000   0.831E+00       0.000       16.128   0.100E-07
     TRS4 it   2 1.00000000   0.595E+00       0.001       32.256   0.100E-07
     TRS4 it   3 1.00000000   0.428E+00       0.001       32.256   0.100E-07
     TRS4 it   4 1.00000000   0.260E+00       0.001       32.256   0.100E-07
     TRS4 it   5 1.00000000   0.119E+00       0.001       32.256   0.100E-07
     TRS4 it   6 1.00000000   0.311E-01       0.001       32.256   0.100E-07
     TRS4 it   7 1.00000000   0.303E-02       0.001       32.256   0.100E-07
     TRS4 it   8 1.00000000   0.376E-04       0.001       32.256   0.100E-07
     TRS4 it   9 1.00000000   0.632E-08       0.001       32.256   0.100E-07
     Final TRS4 iteration    9 1.00000000   0.632E-08
     Chemical potential (mu):      -0.07044

 SCF     2       -34.446536031        -0.000000000    3.311795


 SCF run converged in     2 steps.

 PAO| Storing density matrix for ASPC guess in slot:           1

 ENERGY| Total FORCE_EVAL ( QS ) energy [a.u.]:              -34.446536030687142

 -------------------------------------------------------------------------------
 -                                                                             -
 -                                DBCSR STATISTICS                             -
 -                                                                             -
 -------------------------------------------------------------------------------
 COUNTER                                    TOTAL       BLAS       SMM       ACC
 flops     5 x     5 x     4                28000       0.0%    100.0%      0.0%
 flops    13 x     5 x     4                29120       0.0%    100.0%      0.0%
 flops     5 x    13 x     4                29120       0.0%    100.0%      0.0%
 flops    13 x    13 x     4                56784       0.0%    100.0%      0.0%
 flops     4 x     4 x     5              6063360       0.0%    100.0%      0.0%
 flops     5 x     4 x     5              7414400       0.0%    100.0%      0.0%
 flops     4 x     4 x    13              7882368       0.0%    100.0%      0.0%
 flops    13 x     4 x     5              9638720       0.0%    100.0%      0.0%
 flops     5 x     4 x    13              9638720       0.0%    100.0%      0.0%
 flops     5 x     4 x     4             11598240       0.0%    100.0%      0.0%
 flops    13 x     4 x    13             12530336       0.0%    100.0%      0.0%
 flops    13 x     4 x     4             15251392       0.0%    100.0%      0.0%
 flops     4 x     4 x     4            768979072       0.0%    100.0%      0.0%
 flops inhomo. stacks                           0       0.0%      0.0%      0.0%
 flops total                       849.139632E+06       0.0%    100.0%      0.0%
 flops max/rank                    849.139632E+06       0.0%    100.0%      0.0%
 matmuls inhomo. stacks                         0       0.0%      0.0%      0.0%
 matmuls total                            6257350       0.0%    100.0%      0.0%
 number of processed stacks                 50175       0.0%    100.0%      0.0%
 average stack size                                     0.0     124.7       0.0
 marketing flops                     1.385086E+09
 -------------------------------------------------------------------------------
 # multiplications                          41727
 max memory usage/rank             506.507264E+06
 # max total images/rank                        1
 # max 3D layers                                1
 # MPI messages exchanged                       0
 -------------------------------------------------------------------------------

 -------------------------------------------------------------------------------
 -                                                                             -
 -                                DBM STATISTICS                               -
 -                                                                             -
 -------------------------------------------------------------------------------
    M  x    N  x    K                                          COUNT     PERCENT
 -------------------------------------------------------------------------------

 -------------------------------------------------------------------------------
 -                                                                             -
 -                                GRID STATISTICS                              -
 -                                                                             -
 -------------------------------------------------------------------------------
 LP    KERNEL             BACKEND                              COUNT     PERCENT
 2     collocate ortho    REF                                  53158      30.74%
 2     integrate ortho    REF                                  53158      30.74%
 3     collocate ortho    REF                                  27356      15.82%
 3     integrate ortho    REF                                  27356      15.82%
 4     collocate ortho    REF                                   5950       3.44%
 4     integrate ortho    REF                                   5950       3.44%
 0     collocate general  REF                                      6       0.00%
 -------------------------------------------------------------------------------

 MEMORY| Estimated peak process memory [MiB]                                 484

 -------------------------------------------------------------------------------
 -                                                                             -
 -                           R E F E R E N C E S                               -
 -                                                                             -
 -------------------------------------------------------------------------------
 
 CP2K version 2023.1 (Development Version), the CP2K developers group (2023).
 CP2K is freely available from https://www.cp2k.org/ .

 Kuehne,Thomas D.; Iannuzzi,Marcella; Del Ben,Mauro;
 Rybkin,Vladimir V.; Seewald,Patrick; Stein,Frederick; Laino,Teodoro;
 Khaliullin,Rustam Z.; Schuett,Ole; Schiffmann,Florian; Golze,Dorothea;
 Wilhelm,Jan; Chulkov,Sergey; Bani-Hashemian,Mohammad Hossein;
 Weber,Valery; Borstnik,Urban; Taillefumier,Mathieu;
 Jakobovits,Alice Shoshana; Lazzaro,Alfio; Pabst,Hans; Mueller,Tiziano;
 Schade,Robert; Guidon,Manuel; Andermatt,Samuel; Holmberg,Nico;
 Schenter,Gregory K.; Hehn,Anna; Bussy,Augustin; Belleflamme,Fabian;
 Tabacchi,Gloria; Gloess,Andreas; Lass,Michael; Bethune,Iain;
 Mundy,Christopher J.; Plessl,Christian; Watkins,Matt;
 VandeVondele,Joost; Krack,Matthias; Hutter,Juerg. 
 The Journal of Chemical Physics, 152 (19), (2020). 
 CP2K: An electronic structure and molecular dynamics software package -
 Quickstep: Efficient and accurate electronic structure calculations.
 https://doi.org/10.1063/5.0007045

 Schuett, O; VandeVondele, J. 
 Journal of Chemical Theory and Computation, 14, (2018). 
 Machine Learning Adaptive Basis Sets for Efficient Large Scale
 Density Functional Theory Simulation.
 https://doi.org/10.1021/acs.jctc.8b00378

 Schuett, Ole; Messmer, Peter; Hutter, Juerg; VandeVondele, Joost. 
 Electronic Structure Calculations on Graphics Processing Units, John
 Wiley & Sons, Ltd, 173-190 (2016). 
 GPU-Accelerated Sparse Matrix-Matrix Multiplication for
 Linear Scaling Density Functional Theory.
 https://doi.org/10.1002/9781118670712.ch8

 Heinecke, A; Henry, G; Hutchinson, M; Pabst, H. 
 Proceedings of Intl. Supercomputing Conference, 981-991 (2016). 
 LIBXSMM: Accelerating Small Matrix Multiplications
 by Runtime Code Generation.
 https://doi.org/10.1109/SC.2016.83

 Borstnik, U; VandeVondele, J; Weber, V; Hutter, J. 
 PARALLEL COMPUTING, 40 (5-6), 47-58 (2014). 
 Sparse matrix multiplication: The distributed block-compressed sparse
 row library.
 https://doi.org/10.1016/j.parco.2014.03.012

 Hutter, J; Iannuzzi, M; Schiffmann, F; VandeVondele, J. 
 WIREs Comput Mol Sci., 4 (1), 15-25 (2014). 
 CP2K: atomistic simulations of condensed matter systems.
 https://doi.org/10.1002/wcms.1159

 VandeVondele, J; Borstnik, U; Hutter, J. 
 JOURNAL OF CHEMICAL THEORY AND COMPUTATION, 8 (10), 3565-3573 (2012). 
 Linear Scaling Self-Consistent Field Calculations with Millions of Atoms
 in the Condensed Phase.
 https://doi.org/10.1021/ct200897x

 VandeVondele, J; Hutter, J. 
 JOURNAL OF CHEMICAL PHYSICS, 127 (11), 114105 (2007). 
 Gaussian basis sets for accurate calculations on molecular systems in
 gas and condensed phases.
 https://doi.org/10.1063/1.2770708

 Krack, M. 
 THEORETICAL CHEMISTRY ACCOUNTS, 114 (1-3), 145-152 (2005). 
 Pseudopotentials for H to Kr optimized for gradient-corrected
 exchange-correlation functionals.
 https://doi.org/10.1007/s00214-005-0655-y

 VandeVondele, J; Krack, M; Mohamed, F; Parrinello, M; Chassaing, T;
 Hutter, J. COMPUTER PHYSICS COMMUNICATIONS, 167 (2), 103-128 (2005). 
 QUICKSTEP: Fast and accurate density functional calculations using a
 mixed Gaussian and plane waves approach.
 https://doi.org/10.1016/j.cpc.2004.12.014

 Frigo, M; Johnson, SG. 
 PROCEEDINGS OF THE IEEE, 93 (2), 216-231 (2005). 
 The design and implementation of FFTW3.
 https://doi.org/10.1109/JPROC.2004.840301

 Niklasson, AMN; Tymczak, CJ; Challacombe, M. 
 JOURNAL OF CHEMICAL PHYSICS, 118 (19), 8611-8620 (2003). 
 Trace resetting density matrix purification in O(N)
 self-consistent-field theory.
 https://doi.org/10.1063/1.1559913

 Hartwigsen, C; Goedecker, S; Hutter, J. 
 PHYSICAL REVIEW B, 58 (7), 3641-3662 (1998). 
 Relativistic separable dual-space Gaussian pseudopotentials from H to Rn.
 https://doi.org/10.1103/PhysRevB.58.3641

 Lippert, G; Hutter, J; Parrinello, M. 
 MOLECULAR PHYSICS, 92 (3), 477-487 (1997). 
 A hybrid Gaussian and plane wave density functional scheme.
 https://doi.org/10.1080/002689797170220

 Perdew, JP; Burke, K; Ernzerhof, M. 
 PHYSICAL REVIEW LETTERS, 77 (18), 3865-3868 (1996). 
 Generalized gradient approximation made simple.
 https://doi.org/10.1103/PhysRevLett.77.3865

 Goedecker, S; Teter, M; Hutter, J. 
 PHYSICAL REVIEW B, 54 (3), 1703-1710 (1996). 
 Separable dual-space Gaussian pseudopotentials.
 https://doi.org/10.1103/PhysRevB.54.1703


 -------------------------------------------------------------------------------
 -                                                                             -
 -                                T I M I N G                                  -
 -                                                                             -
 -------------------------------------------------------------------------------
 SUBROUTINE                       CALLS  ASD         SELF TIME        TOTAL TIME
                                MAXIMUM       AVERAGE  MAXIMUM  AVERAGE  MAXIMUM
 CP2K                                 1  1.0    0.015    0.015   84.829   84.829
 qs_energies                          1  2.0    0.000    0.000   83.925   83.925
 ls_scf                               1  3.0    0.000    0.000   83.676   83.676
 ls_scf_main                          6  4.0    0.002    0.002   57.189   57.189
 ls_scf_dm_to_ks                     13  5.0    0.014    0.014   56.947   56.947
 qs_ks_update_qs_env                 14  6.0    0.000    0.000   46.061   46.061
 rebuild_ks_matrix                   14  7.0    0.000    0.000   46.060   46.060
 qs_ks_build_kohn_sham_matrix        14  8.0    0.005    0.005   46.060   46.060
 qs_vxc_create                       14  9.0    0.001    0.001   27.318   27.318
 xc_vxc_pw_create                    14 10.0    0.511    0.511   27.317   27.317
 pw_transfer                        267 11.1    0.073    0.073   24.313   24.313
 fft_wrap_pw1pw2                    239 12.3    0.006    0.006   23.580   23.580
 fft_wrap_pw1pw2_200                155 13.7    2.518    2.518   22.661   22.661
 pao_update                           6  4.0    0.017    0.017   21.196   21.196
 pao_calc_energy                    780  5.0    0.006    0.006   19.040   19.040
 xc_pw_derive                        84 12.0    0.002    0.002   16.452   16.452
 qs_rho_update_rho_low               14  6.0    0.000    0.000   16.004   16.004
 calculate_rho_elec                  14  7.0    0.116    0.116   16.003   16.003
 xc_rho_set_and_dset_create          14 11.0    0.618    0.618   15.761   15.761
 dbcsr_multiply_generic           41727  8.4    0.987    0.987   15.277   15.277
 sum_up_and_integrate                14  9.0    0.405    0.405   14.504   14.504
 integrate_v_rspace                  14 10.0    0.002    0.002   14.099   14.099
 grid_integrate_task_list            14 11.0   11.160   11.160   11.160   11.160
 xc_pw_divergence                    14 11.0    0.001    0.001   10.673   10.673
 grid_collocate_task_list            14  8.0   10.386   10.386   10.386   10.386
 fft3d_s                            240 14.2   10.347   10.347   10.373   10.373
 pao_dm_trs4                        780  6.0    0.006    0.006    9.757    9.757
 density_matrix_trs4                793  7.0    0.311    0.311    9.369    9.369
 ls_scf_init_matrix_S               786  7.0    0.006    0.006    9.288    9.288
 pao_rebuild_S                      780  6.0    0.003    0.003    9.161    9.161
 matrix_sqrt_Newton_Schulz          786  8.0    0.232    0.232    8.412    8.412
 multiply_cannon                  41727  9.4    2.288    2.288    5.790    5.790
 xc_functional_eval                  14 12.0    0.000    0.000    5.655    5.655
 pbe_lda_eval                        14 13.0    5.655    5.655    5.655    5.655
 make_m2s                         83454  9.4    0.367    0.367    5.587    5.587
 density_rs2pw                       14  8.0    0.002    0.002    5.501    5.501
 pw_scatter_s                       126 14.7    5.421    5.421    5.421    5.421
 pao_guess_initial_P                  1  4.0    0.000    0.000    5.145    5.145
 pao_read_preopt_dm                   1  5.0    0.000    0.000    5.145    5.145
 pw_gather_s                        113 13.8    5.137    5.137    5.137    5.137
 make_images                      83454 10.4    1.352    1.352    4.960    4.960
 pw_derive                           84 13.0    3.074    3.074    3.074    3.074
 arnoldi_extremal                  1579  8.5    0.007    0.007    3.057    3.057
 arnoldi_normal_ev                 1579  9.5    0.020    0.020    3.050    3.050
 potential_pw2rs                     14 11.0    0.009    0.009    2.937    2.937
 pw_copy                            168 11.8    2.561    2.561    2.561    2.561
 build_subspace                    1579 10.5    0.110    0.110    2.376    2.376
 dbcsr_matrix_vector_mult         37866 11.5    0.245    0.245    2.218    2.218
 pao_calc_AB                       1027  5.8    0.002    0.002    2.129    2.129
 pao_calc_AB_equi                  1027  6.8    0.048    0.048    2.127    2.127
 pao_calc_grad_lnv_wrt_AB           246  7.0    0.011    0.011    1.936    1.936
 dbcsr_finalize                   99704  9.6    0.383    0.383    1.903    1.903
 pw_axpy                            126 10.3    1.734    1.734    1.734    1.734
 dbcsr_create_new                320446 10.7    1.136    1.136    1.702    1.702
 -------------------------------------------------------------------------------

 The number of warnings for this run is : 0
 
 -------------------------------------------------------------------------------
  **** **** ******  **  PROGRAM ENDED AT                 2023-02-01 10:49:20.589
 ***** ** ***  *** **   PROGRAM RAN ON                                    moritz
 **    ****   ******    PROGRAM RAN BY                                       ole
 ***** **    ** ** **   PROGRAM PROCESS ID                                148730
  **** **  *******  **  PROGRAM STOPPED IN /home/ole/git/pao_ml_equivar/2H2O_MD/
                                           frame_0750
