 DBCSR| CPU Multiplication driver                                           BLAS
 DBCSR| Multrec recursion limit                                              512
 DBCSR| Multiplication stack size                                           1000
 DBCSR| Maximum elements for images                                    UNLIMITED
 DBCSR| Multiplicative factor virtual images                                   1
 DBCSR| Use multiplication densification                                       T
 DBCSR| Multiplication size stacks                                             3


  **** **** ******  **  PROGRAM STARTED AT               2019-03-28 17:24:52.026
 ***** ** ***  *** **   PROGRAM STARTED ON        oleschuett.zrh.corp.google.com
 **    ****   ******    PROGRAM STARTED BY                            oleschuett
 ***** **    ** ** **   PROGRAM PROCESS ID                                  6712
  **** **  *******  **  PROGRAM STARTED IN /usr/local/google/home/oleschuett/git
                                           /pao_ml_equivar/2H2O_rotations/phi_22

 CP2K| version string:                    CP2K version 7.0 (Development Version)
 CP2K| source code revision number:                                git:d9814d431
 CP2K| cp2kflags: libint fftw3 libxc libderiv_max_am1=5 libint_max_am=6         
 CP2K| is freely available from                            https://www.cp2k.org/
 CP2K| Program compiled at                          Mon Mar 25 16:50:07 CET 2019
 CP2K| Program compiled on                        oleschuett.zrh.corp.google.com
 CP2K| Program compiled for                                                local
 CP2K| Data directory path       /usr/local/google/home/oleschuett/git/cp2k/data
 CP2K| Input file name                                              2H2O_ref.inp

 GLOBAL| Force Environment number                                              1
 GLOBAL| Basis set file name                                        BASIS_MOLOPT
 GLOBAL| Potential file name                                      GTH_POTENTIALS
 GLOBAL| MM Potential file name                                     MM_POTENTIAL
 GLOBAL| Coordinate file name                                         coords.xyz
 GLOBAL| Method name                                                        CP2K
 GLOBAL| Project name                                                   2H2O_ref
 GLOBAL| Preferred FFT library                                             FFTW3
 GLOBAL| Preferred diagonalization lib.                                       SL
 GLOBAL| Run type                                                         ENERGY
 GLOBAL| All-to-all communication in single precision                          F
 GLOBAL| FFTs using library dependent lengths                                  F
 GLOBAL| Global print level                                                  LOW
 GLOBAL| MPI I/O enabled                                                       T
 GLOBAL| Total number of message passing processes                             1
 GLOBAL| Number of threads for this process                                    1
 GLOBAL| This output is from process                                           0
 GLOBAL| CPU model name :  Intel(R) Xeon(R) CPU E5-1650 v4 @ 3.60GHz

 MEMORY| system memory details [Kb]
 MEMORY|                        rank 0           min           max       average
 MEMORY| MemTotal             65953612      65953612      65953612      65953612
 MEMORY| MemFree               4329380       4329380       4329380       4329380
 MEMORY| Buffers               2547700       2547700       2547700       2547700
 MEMORY| Cached               25358980      25358980      25358980      25358980
 MEMORY| Slab                  3623988       3623988       3623988       3623988
 MEMORY| SReclaimable          2423016       2423016       2423016       2423016
 MEMORY| MemLikelyFree        34659076      34659076      34659076      34659076


 GENERATE|  Preliminary Number of Bonds generated:                             0
 GENERATE|  Achieved consistency in connectivity generation.

 *******************************************************************************
 *******************************************************************************
 **                                                                           **
 **     #####                         ##              ##                      **
 **    ##   ##            ##          ##              ##                      **
 **   ##     ##                       ##            ######                    **
 **   ##     ##  ##   ##  ##   #####  ##  ##   ####   ##    #####    #####    **
 **   ##     ##  ##   ##  ##  ##      ## ##   ##      ##   ##   ##  ##   ##   **
 **   ##  ## ##  ##   ##  ##  ##      ####     ###    ##   ######   ######    **
 **    ##  ###   ##   ##  ##  ##      ## ##      ##   ##   ##       ##        **
 **     #######   #####   ##   #####  ##  ##  ####    ##    #####   ##        **
 **           ##                                                    ##        **
 **                                                                           **
 **                                                ... make the atoms dance   **
 **                                                                           **
 **            Copyright (C) by CP2K developers group (2000 - 2018)           **
 **                                                                           **
 *******************************************************************************


 TOTAL NUMBERS AND MAXIMUM NUMBERS

  Total number of            - Atomic kinds:                                   2
                             - Atoms:                                          6
                             - Shell sets:                                     6
                             - Shells:                                        22
                             - Primitive Cartesian functions:                 42
                             - Cartesian basis functions:                     48
                             - Spherical basis functions:                     46

  Maximum angular momentum of- Orbital basis functions:                        2
                             - Local part of the GTH pseudopotential:          2
                             - Non-local part of the GTH pseudopotential:      0

 ------------------------------ Linear scaling SCF -----------------------------
 eps_scf:                                                              0.100E-07
 eps_filter:                                                           0.100E-07
 mixing_fraction:                                                      0.450E+00
 max_scf:                                                                     25
 fixed chemical potential (mu)                                                 F
 has unit metric:                                                              F
 Computing inv(S):                                                             T
 Computing sqrt(S):                                                            T
 Computing s preconditioner                                                    F
 sign sqrt order:                                                              3
 Extrapolation order:                                                          4
 Use single precision matrices                                                 F
 S preconditioner type                                                      NONE
 Polarized Atomic Orbitals (PAO)                                               F
 Purification method                                   Trace resetting 4th order
 Cluster type                                                             ATOMIC
 Computing Chebyshev                                                       FALSE
 Using PAO                                                                     F
 -------------------------------------------------------------------------------


     Lanczos converged:  T threshold:   0.100E-02
     Est. extremal eigenvalues:    0.407E+01   0.113E-01
     Est. condition number :    0.360E+03
     NS sqrt iter    1 1.00000000   0.105E+01       0.002      206.994
     NS sqrt iter    2 1.00000000   0.617E+00       0.002      402.915
     NS sqrt iter    3 1.00000000   0.342E+00       0.002      393.139
     NS sqrt iter    4 1.00000000   0.234E+00       0.002      413.649
     NS sqrt iter    5 1.00000000   0.117E+00       0.002      415.709
     NS sqrt iter    6 1.00000000   0.144E-01       0.002      417.186
     NS sqrt iter    7 1.00000000   0.343E-04       0.002      350.395
     Final NS sqrt iter    7 1.00000000   0.248E-08



 Guess for atomic kind: O

 Electronic structure
    Total number of core electrons                                          2.00
    Total number of valence electrons                                       6.00
    Total number of electrons                                               8.00
    Multiplicity                                                   not specified
    S   [  2.00] 2.00
    P      4.00


 *******************************************************************************
                  Iteration          Convergence                     Energy [au]
 *******************************************************************************
                          1        0.708315                     -15.576645311500
                          2        0.608879                     -15.587933561584
                          3        0.102828E-01                 -15.656849565404
                          4        0.113889E-02                 -15.656866888140
                          5        0.434197E-03                 -15.656867072159
                          6        0.263771E-03                 -15.656867091904
                          7        0.478536E-06                 -15.656867103452

 Energy components [Hartree]           Total Energy ::          -15.656867103452
                                        Band Energy ::           -3.000198112285
                                     Kinetic Energy ::           11.759971203220
                                   Potential Energy ::          -27.416838306672
                                      Virial (-V/T) ::            2.331369510426
                                        Core Energy ::          -26.140716385623
                                          XC Energy ::           -3.154051012914
                                     Coulomb Energy ::           13.637900295084
                       Total Pseudopotential Energy ::          -37.935781716540
                       Local Pseudopotential Energy ::          -39.218907440693
                    Nonlocal Pseudopotential Energy ::            1.283125724153
                                        Confinement ::            0.350941276976

 Orbital energies  State     L     Occupation   Energy[a.u.]          Energy[eV]

                       1     0          2.000      -0.864471          -23.523463

                       1     1          4.000      -0.317814           -8.648154


 Total Electron Density at R=0:                                         0.000068

 Guess for atomic kind: H

 Electronic structure
    Total number of core electrons                                          0.00
    Total number of valence electrons                                       1.00
    Total number of electrons                                               1.00
    Multiplicity                                                   not specified
    S      1.00


 *******************************************************************************
                  Iteration          Convergence                     Energy [au]
 *******************************************************************************
                          1        0.437545E-02                  -0.424159432110
                          2        0.531356E-03                  -0.424178438213
                          3        0.259176E-06                  -0.424178722480

 Energy components [Hartree]           Total Energy ::           -0.424178722480
                                        Band Energy ::           -0.199015229016
                                     Kinetic Energy ::            0.464007633961
                                   Potential Energy ::           -0.888186356441
                                      Virial (-V/T) ::            1.914163240935
                                        Core Energy ::           -0.479160803564
                                          XC Energy ::           -0.244352904054
                                     Coulomb Energy ::            0.299334985138
                       Total Pseudopotential Energy ::           -0.962295316385
                       Local Pseudopotential Energy ::           -0.962295316385
                    Nonlocal Pseudopotential Energy ::            0.000000000000
                                        Confinement ::            0.191268788606

 Orbital energies  State     L     Occupation   Energy[a.u.]          Energy[eV]

                       1     0          1.000      -0.199015           -5.415480


 Total Electron Density at R=0:                                         0.242907
 Re-scaling the density matrix to get the right number of electrons
                  # Electrons              Trace(P)               Scaling factor
                           16                15.990                        1.001
 Energy with the initial guess:       -34.130312165

     Est. extremal eigenvalues     -1.07107     3.82294  converged:  T
     TRS4 it   1 1.00000000   0.179E+01       0.001      117.484   0.100E-07
     TRS4 it   2 1.00000000   0.158E+01       0.001      117.484   0.100E-07
     TRS4 it   3 1.00000000   0.909E+00       0.001      178.703   0.100E-07
     TRS4 it   4 1.00000000   0.557E+00       0.001      211.128   0.100E-07
     TRS4 it   5 1.00000000   0.332E+00       0.001      205.024   0.100E-07
     TRS4 it   6 1.00000000   0.151E+00       0.001      205.757   0.100E-07
     TRS4 it   7 1.00000000   0.416E-01       0.001      199.487   0.100E-07
     TRS4 it   8 1.00000000   0.400E-02       0.001      208.965   0.100E-07
     TRS4 it   9 1.00000000   0.457E-04       0.001      210.196   0.100E-07
     TRS4 it  10 1.00000000   0.642E-08       0.002      152.114   0.100E-07
     Final TRS4 iteration   10 1.00000000   0.642E-08
     Chemical potential (mu):      -0.22565

 SCF     1       -34.247153684       -34.247153684    2.295293

*********************************************************
 Using MIXING_FRACTION=0.450 to mix KS matrix:  iscf=  2
 KS_nw=0.450*KS + 0.550*KS_old
*********************************************************
     Est. extremal eigenvalues     -0.92834     3.94975  converged:  T
     TRS4 it   1 1.00000000   0.176E+01       0.001      117.484   0.100E-07
     TRS4 it   2 1.00000000   0.161E+01       0.000      117.484   0.100E-07
     TRS4 it   3 1.00000000   0.974E+00       0.001      234.968   0.100E-07
     TRS4 it   4 1.00000000   0.594E+00       0.001      171.427   0.100E-07
     TRS4 it   5 1.00000000   0.396E+00       0.001      234.968   0.100E-07
     TRS4 it   6 1.00000000   0.229E+00       0.001      234.968   0.100E-07
     TRS4 it   7 1.00000000   0.104E+00       0.001      234.968   0.100E-07
     TRS4 it   8 1.00000000   0.285E-01       0.001      234.968   0.100E-07
     TRS4 it   9 1.00000000   0.294E-02       0.001      234.968   0.100E-07
     TRS4 it  10 1.00000000   0.369E-04       0.001      234.968   0.100E-07
     TRS4 it  11 1.00000000   0.607E-08       0.001      234.968   0.100E-07
     Final TRS4 iteration   11 1.00000000   0.607E-08
     Chemical potential (mu):      -0.11239

 SCF     2       -34.440126470        -0.192972786    1.809357

*********************************************************
 Using MIXING_FRACTION=0.450 to mix KS matrix:  iscf=  3
 KS_nw=0.450*KS + 0.550*KS_old
*********************************************************
     Est. extremal eigenvalues     -0.95114     3.93799  converged:  T
     TRS4 it   1 1.00000000   0.177E+01       0.001      117.484   0.100E-07
     TRS4 it   2 1.00000000   0.160E+01       0.000      117.484   0.100E-07
     TRS4 it   3 1.00000000   0.963E+00       0.001      234.968   0.100E-07
     TRS4 it   4 1.00000000   0.591E+00       0.001      234.968   0.100E-07
     TRS4 it   5 1.00000000   0.390E+00       0.001      234.968   0.100E-07
     TRS4 it   6 1.00000000   0.219E+00       0.001      217.122   0.100E-07
     TRS4 it   7 1.00000000   0.949E-01       0.001      228.854   0.100E-07
     TRS4 it   8 1.00000000   0.238E-01       0.001      234.968   0.100E-07
     TRS4 it   9 1.00000000   0.212E-02       0.001      224.526   0.100E-07
     TRS4 it  10 1.00000000   0.201E-04       0.001      227.509   0.100E-07
     TRS4 it  11 1.00000000   0.182E-08       0.001      232.433   0.100E-07
     Final TRS4 iteration   11 1.00000000   0.182E-08
     Chemical potential (mu):      -0.12310

 SCF     3       -34.449833203        -0.009706733    1.918073

*********************************************************
 Using MIXING_FRACTION=0.450 to mix KS matrix:  iscf=  4
 KS_nw=0.450*KS + 0.550*KS_old
*********************************************************
     Est. extremal eigenvalues     -0.93933     3.95030  converged:  T
     TRS4 it   1 1.00000000   0.177E+01       0.001      117.484   0.100E-07
     TRS4 it   2 1.00000000   0.161E+01       0.001      117.484   0.100E-07
     TRS4 it   3 1.00000000   0.967E+00       0.001      217.203   0.100E-07
     TRS4 it   4 1.00000000   0.594E+00       0.001      215.235   0.100E-07
     TRS4 it   5 1.00000000   0.395E+00       0.001      216.163   0.100E-07
     TRS4 it   6 1.00000000   0.226E+00       0.001      217.112   0.100E-07
     TRS4 it   7 1.00000000   0.101E+00       0.001      225.257   0.100E-07
     TRS4 it   8 1.00000000   0.276E-01       0.002      134.055   0.100E-07
     TRS4 it   9 1.00000000   0.293E-02       0.001      216.218   0.100E-07
     TRS4 it  10 1.00000000   0.394E-04       0.001      234.132   0.100E-07
     TRS4 it  11 1.00000000   0.703E-08       0.002      152.698   0.100E-07
     Final TRS4 iteration   11 1.00000000   0.703E-08
     Chemical potential (mu):      -0.11282

 SCF     4       -34.450564249        -0.000731046    1.873120

*********************************************************
 Using MIXING_FRACTION=0.450 to mix KS matrix:  iscf=  5
 KS_nw=0.450*KS + 0.550*KS_old
*********************************************************
     Est. extremal eigenvalues     -0.93964     3.95183  converged:  T
     TRS4 it   1 1.00000000   0.177E+01       0.001      117.484   0.100E-07
     TRS4 it   2 1.00000000   0.161E+01       0.001      117.484   0.100E-07
     TRS4 it   3 1.00000000   0.967E+00       0.001      234.968   0.100E-07
     TRS4 it   4 1.00000000   0.594E+00       0.001      234.968   0.100E-07
     TRS4 it   5 1.00000000   0.395E+00       0.001      234.968   0.100E-07
     TRS4 it   6 1.00000000   0.226E+00       0.001      234.968   0.100E-07
     TRS4 it   7 1.00000000   0.102E+00       0.001      234.688   0.100E-07
     TRS4 it   8 1.00000000   0.280E-01       0.001      234.968   0.100E-07
     TRS4 it   9 1.00000000   0.307E-02       0.002      123.631   0.100E-07
     TRS4 it  10 1.00000000   0.436E-04       0.001      193.981   0.100E-07
     TRS4 it  11 1.00000000   0.862E-08       0.001      219.868   0.100E-07
     Final TRS4 iteration   11 1.00000000   0.862E-08
     Chemical potential (mu):      -0.11162

 SCF     5       -34.450624905        -0.000060656    1.889609

*********************************************************
 Using MIXING_FRACTION=0.450 to mix KS matrix:  iscf=  6
 KS_nw=0.450*KS + 0.550*KS_old
*********************************************************
     Est. extremal eigenvalues     -0.93800     3.95392  converged:  T
     TRS4 it   1 1.00000000   0.177E+01       0.000      117.484   0.100E-07
     TRS4 it   2 1.00000000   0.161E+01       0.000      117.484   0.100E-07
     TRS4 it   3 1.00000000   0.967E+00       0.001      234.968   0.100E-07
     TRS4 it   4 1.00000000   0.595E+00       0.001      195.072   0.100E-07
     TRS4 it   5 1.00000000   0.396E+00       0.001      189.382   0.100E-07
     TRS4 it   6 1.00000000   0.227E+00       0.001      223.183   0.100E-07
     TRS4 it   7 1.00000000   0.103E+00       0.001      220.262   0.100E-07
     TRS4 it   8 1.00000000   0.287E-01       0.001      234.968   0.100E-07
     TRS4 it   9 1.00000000   0.324E-02       0.001      234.968   0.100E-07
     TRS4 it  10 1.00000000   0.489E-04       0.001      234.968   0.100E-07
     TRS4 it  11 1.00000000   0.109E-07       0.001      234.968   0.100E-07
     Final TRS4 iteration   11 1.00000000   0.109E-07
     Chemical potential (mu):      -0.10991

 SCF     6       -34.450631771        -0.000006867    1.831340

*********************************************************
 Using MIXING_FRACTION=0.450 to mix KS matrix:  iscf=  7
 KS_nw=0.450*KS + 0.550*KS_old
*********************************************************
     Est. extremal eigenvalues     -0.93763     3.95467  converged:  T
     TRS4 it   1 1.00000000   0.177E+01       0.001      117.484   0.100E-07
     TRS4 it   2 1.00000000   0.161E+01       0.001      117.484   0.100E-07
     TRS4 it   3 1.00000000   0.968E+00       0.001      234.968   0.100E-07
     TRS4 it   4 1.00000000   0.595E+00       0.001      234.968   0.100E-07
     TRS4 it   5 1.00000000   0.396E+00       0.001      234.968   0.100E-07
     TRS4 it   6 1.00000000   0.228E+00       0.001      234.968   0.100E-07
     TRS4 it   7 1.00000000   0.103E+00       0.001      234.968   0.100E-07
     TRS4 it   8 1.00000000   0.290E-01       0.001      234.968   0.100E-07
     TRS4 it   9 1.00000000   0.331E-02       0.001      234.968   0.100E-07
     TRS4 it  10 1.00000000   0.511E-04       0.001      205.760   0.100E-07
     TRS4 it  11 1.00000000   0.119E-07       0.001      234.775   0.100E-07
     Final TRS4 iteration   11 1.00000000   0.119E-07
     Chemical potential (mu):      -0.10929

 SCF     7       -34.450632949        -0.000001178    2.301148

*********************************************************
 Using MIXING_FRACTION=0.450 to mix KS matrix:  iscf=  8
 KS_nw=0.450*KS + 0.550*KS_old
*********************************************************
     Est. extremal eigenvalues     -0.93730     3.95516  converged:  T
     TRS4 it   1 1.00000000   0.177E+01       0.001      117.484   0.100E-07
     TRS4 it   2 1.00000000   0.161E+01       0.001      117.484   0.100E-07
     TRS4 it   3 1.00000000   0.968E+00       0.001      220.149   0.100E-07
     TRS4 it   4 1.00000000   0.595E+00       0.001      224.608   0.100E-07
     TRS4 it   5 1.00000000   0.396E+00       0.002      150.024   0.100E-07
     TRS4 it   6 1.00000000   0.228E+00       0.001      198.306   0.100E-07
     TRS4 it   7 1.00000000   0.104E+00       0.001      222.897   0.100E-07
     TRS4 it   8 1.00000000   0.291E-01       0.001      224.475   0.100E-07
     TRS4 it   9 1.00000000   0.335E-02       0.001      210.721   0.100E-07
     TRS4 it  10 1.00000000   0.526E-04       0.001      226.029   0.100E-07
     TRS4 it  11 1.00000000   0.126E-07       0.001      226.683   0.100E-07
     Final TRS4 iteration   11 1.00000000   0.126E-07
     Chemical potential (mu):      -0.10890

 SCF     8       -34.450633224        -0.000000275    2.374841

*********************************************************
 Using MIXING_FRACTION=0.450 to mix KS matrix:  iscf=  9
 KS_nw=0.450*KS + 0.550*KS_old
*********************************************************
     Est. extremal eigenvalues     -0.93716     3.95539  converged:  T
     TRS4 it   1 1.00000000   0.177E+01       0.001      117.484   0.100E-07
     TRS4 it   2 1.00000000   0.161E+01       0.001      117.484   0.100E-07
     TRS4 it   3 1.00000000   0.968E+00       0.001      175.237   0.100E-07
     TRS4 it   4 1.00000000   0.595E+00       0.001      216.334   0.100E-07
     TRS4 it   5 1.00000000   0.396E+00       0.001      232.535   0.100E-07
     TRS4 it   6 1.00000000   0.228E+00       0.001      234.968   0.100E-07
     TRS4 it   7 1.00000000   0.104E+00       0.001      221.425   0.100E-07
     TRS4 it   8 1.00000000   0.292E-01       0.001      234.968   0.100E-07
     TRS4 it   9 1.00000000   0.338E-02       0.001      234.968   0.100E-07
     TRS4 it  10 1.00000000   0.533E-04       0.001      224.375   0.100E-07
     TRS4 it  11 1.00000000   0.129E-07       0.006       38.843   0.100E-07
     Final TRS4 iteration   11 1.00000000   0.129E-07
     Chemical potential (mu):      -0.10871

 SCF     9       -34.450633297        -0.000000073    2.024240

 Writing restart DM 2H2O_ref_LS_DM_SPIN_1_RESTART.dm with checksum:       0.72672954E+02

 ENERGY| Total FORCE_EVAL ( QS ) energy (a.u.):              -34.450633297240842


 -------------------------------------------------------------------------------
 -                                                                             -
 -                                DBCSR STATISTICS                             -
 -                                                                             -
 -------------------------------------------------------------------------------
 COUNTER                                    TOTAL       BLAS       SMM       ACC
 flops     5 x     5 x     5              2778000     100.0%      0.0%      0.0%
 flops     5 x    13 x     5              3120000     100.0%      0.0%      0.0%
 flops    13 x     5 x     5              3120000     100.0%      0.0%      0.0%
 flops     5 x     5 x    13              3601000     100.0%      0.0%      0.0%
 flops    13 x     5 x    13              4059380     100.0%      0.0%      0.0%
 flops     5 x    13 x    13              4059380     100.0%      0.0%      0.0%
 flops    13 x    13 x     5              5313360     100.0%      0.0%      0.0%
 flops    13 x    13 x    13              6938126     100.0%      0.0%      0.0%
 flops inhomo. stacks                           0       0.0%      0.0%      0.0%
 flops total                        32.989246E+06     100.0%      0.0%      0.0%
 flops max/rank                     32.989246E+06     100.0%      0.0%      0.0%
 matmuls inhomo. stacks                         0       0.0%      0.0%      0.0%
 matmuls total                              35779     100.0%      0.0%      0.0%
 number of processed stacks                  1960     100.0%      0.0%      0.0%
 average stack size                                    18.3       0.0       0.0
 marketing flops                    47.889312E+06
 -------------------------------------------------------------------------------
 # multiplications                            246
 max memory usage/rank             327.872512E+06
 # max total images/rank                        1
 # max 3D layers                                1
 # MPI messages exchanged                       0
 MPI messages size (bytes):
  total size                         0.000000E+00
  min size                           0.000000E+00
  max size                           0.000000E+00
  average size                       0.000000E+00
 MPI breakdown and total messages size (bytes):
             size <=      128                   0                        0
       128 < size <=     8192                   0                        0
      8192 < size <=    32768                   0                        0
     32768 < size <=   131072                   0                        0
    131072 < size <=  4194304                   0                        0
   4194304 < size <= 16777216                   0                        0
  16777216 < size                               0                        0
 -------------------------------------------------------------------------------

 MEMORY| Estimated peak process memory [MiB]                                 313

 -------------------------------------------------------------------------------
 -                                                                             -
 -                           R E F E R E N C E S                               -
 -                                                                             -
 -------------------------------------------------------------------------------
 
 CP2K version 7.0 (Development Version), the CP2K developers group (2018).
 CP2K is freely available from https://www.cp2k.org/ .

 Schuett, Ole; Messmer, Peter; Hutter, Juerg; VandeVondele, Joost. 
 Electronic Structure Calculations on Graphics Processing Units, John Wiley & Sons, Ltd, 173-190 (2016). 
 GPU-Accelerated Sparse Matrix-Matrix Multiplication for Linear Scaling Density Functional Theory.
 https://dx.doi.org/10.1002/9781118670712.ch8


 Borstnik, U; VandeVondele, J; Weber, V; Hutter, J. 
 PARALLEL COMPUTING, 40 (5-6), 47-58 (2014). 
 Sparse matrix multiplication: The distributed block-compressed sparse
 row library.
 https://dx.doi.org/10.1016/j.parco.2014.03.012


 Hutter, J; Iannuzzi, M; Schiffmann, F; VandeVondele, J. 
 WILEY INTERDISCIPLINARY REVIEWS-COMPUTATIONAL MOLECULAR SCIENCE, 4 (1), 15-25 (2014). 
 CP2K: atomistic simulations of condensed matter systems.
 https://dx.doi.org/10.1002/wcms.1159


 VandeVondele, J; Borstnik, U; Hutter, J. 
 JOURNAL OF CHEMICAL THEORY AND COMPUTATION, 8 (10), 3565-3573 (2012). 
 Linear Scaling Self-Consistent Field Calculations with Millions of Atoms
 in the Condensed Phase.
 https://dx.doi.org/10.1021/ct200897x


 VandeVondele, J; Hutter, J. 
 JOURNAL OF CHEMICAL PHYSICS, 127 (11), 114105 (2007). 
 Gaussian basis sets for accurate calculations on molecular systems in
 gas and condensed phases.
 https://dx.doi.org/10.1063/1.2770708


 Krack, M. 
 THEORETICAL CHEMISTRY ACCOUNTS, 114 (1-3), 145-152 (2005). 
 Pseudopotentials for H to Kr optimized for gradient-corrected
 exchange-correlation functionals.
 https://dx.doi.org/10.1007/s00214-005-0655-y


 VandeVondele, J; Krack, M; Mohamed, F; Parrinello, M; Chassaing, T;
 Hutter, J. COMPUTER PHYSICS COMMUNICATIONS, 167 (2), 103-128 (2005). 
 QUICKSTEP: Fast and accurate density functional calculations using a
 mixed Gaussian and plane waves approach.
 https://dx.doi.org/10.1016/j.cpc.2004.12.014


 Frigo, M; Johnson, SG. 
 PROCEEDINGS OF THE IEEE, 93 (2), 216-231 (2005). 
 The design and implementation of FFTW3.
 https://dx.doi.org/10.1109/JPROC.2004.840301


 Niklasson, AMN; Tymczak, CJ; Challacombe, M. 
 JOURNAL OF CHEMICAL PHYSICS, 118 (19), 8611-8620 (2003). 
 Trace resetting density matrix purification in O(N)
 self-consistent-field theory.
 https://dx.doi.org/10.1063/1.1559913


 Hartwigsen, C; Goedecker, S; Hutter, J. 
 PHYSICAL REVIEW B, 58 (7), 3641-3662 (1998). 
 Relativistic separable dual-space Gaussian pseudopotentials from H to Rn.
 https://dx.doi.org/10.1103/PhysRevB.58.3641


 Lippert, G; Hutter, J; Parrinello, M. 
 MOLECULAR PHYSICS, 92 (3), 477-487 (1997). 
 A hybrid Gaussian and plane wave density functional scheme.
 https://dx.doi.org/10.1080/002689797170220


 Perdew, JP; Burke, K; Ernzerhof, M. 
 PHYSICAL REVIEW LETTERS, 77 (18), 3865-3868 (1996). 
 Generalized gradient approximation made simple.
 https://dx.doi.org/10.1103/PhysRevLett.77.3865


 Goedecker, S; Teter, M; Hutter, J. 
 PHYSICAL REVIEW B, 54 (3), 1703-1710 (1996). 
 Separable dual-space Gaussian pseudopotentials.
 https://dx.doi.org/10.1103/PhysRevB.54.1703


 -------------------------------------------------------------------------------
 -                                                                             -
 -                                T I M I N G                                  -
 -                                                                             -
 -------------------------------------------------------------------------------
 SUBROUTINE                       CALLS  ASD         SELF TIME        TOTAL TIME
                                MAXIMUM       AVERAGE  MAXIMUM  AVERAGE  MAXIMUM
 CP2K                                 1  1.0    0.035    0.035   21.458   21.458
 qs_energies                          1  2.0    0.000    0.000   20.893   20.893
 ls_scf                               1  3.0    0.000    0.000   20.730   20.730
 ls_scf_main                          1  4.0    0.001    0.001   18.318   18.318
 ls_scf_dm_to_ks                      9  5.0    0.000    0.000   18.174   18.174
 qs_ks_update_qs_env                 10  6.1    0.000    0.000   14.419   14.419
 rebuild_ks_matrix                   10  7.1    0.000    0.000   14.419   14.419
 qs_ks_build_kohn_sham_matrix        10  8.1    0.001    0.001   14.418   14.418
 qs_vxc_create                       10  9.1    0.000    0.000    8.670    8.670
 xc_vxc_pw_create                    10 10.1    0.110    0.110    8.670    8.670
 pw_transfer                        191 10.7    0.016    0.016    6.230    6.230
 xc_rho_set_and_dset_create          10 11.1    0.035    0.035    6.150    6.150
 qs_rho_update_rho                   10  6.1    0.000    0.000    6.139    6.139
 calculate_rho_elec                  10  7.1    4.694    4.694    6.139    6.139
 fft_wrap_pw1pw2                    171 11.8    0.002    0.002    6.123    6.123
 fft_wrap_pw1pw2_200                111 12.9    0.343    0.343    5.840    5.840
 sum_up_and_integrate                10  9.1    0.018    0.018    4.819    4.819
 integrate_v_rspace                  10 10.1    4.127    4.127    4.801    4.801
 xc_functional_eval                  10 12.1    0.000    0.000    4.268    4.268
 pbe_lda_eval                        10 13.1    4.268    4.268    4.268    4.268
 fft3d_s                            172 13.7    3.221    3.221    3.238    3.238
 ls_scf_init_scf                      1  4.0    0.000    0.000    2.411    2.411
 ls_scf_initial_guess                 1  5.0    0.000    0.000    2.386    2.386
 ls_scf_qs_atomic_guess               1  6.0    0.000    0.000    2.386    2.386
 pw_gather_s                         81 13.2    1.460    1.460    1.460    1.460
 density_rs2pw                       10  8.1    0.001    0.001    1.429    1.429
 pw_scatter_s                        90 14.3    1.060    1.060    1.060    1.060
 potential_pw2rs                     10 11.1    0.003    0.003    0.673    0.673
 qs_init_subsys                       1  2.0    0.001    0.001    0.493    0.493
 qs_env_setup                         1  3.0    0.000    0.000    0.490    0.490
 qs_env_rebuild_pw_env                2  3.5    0.000    0.000    0.490    0.490
 pw_env_rebuild                       1  5.0    0.000    0.000    0.490    0.490
 pw_grid_setup                        4  6.0    0.000    0.000    0.465    0.465
 pw_grid_setup_internal               4  7.0    0.006    0.006    0.465    0.465
 pw_derive                           60 11.6    0.434    0.434    0.434    0.434
 -------------------------------------------------------------------------------

 The number of warnings for this run is : 0
 
 -------------------------------------------------------------------------------
  **** **** ******  **  PROGRAM ENDED AT                 2019-03-28 17:25:13.578
 ***** ** ***  *** **   PROGRAM RAN ON            oleschuett.zrh.corp.google.com
 **    ****   ******    PROGRAM RAN BY                                oleschuett
 ***** **    ** ** **   PROGRAM PROCESS ID                                  6712
  **** **  *******  **  PROGRAM STOPPED IN /usr/local/google/home/oleschuett/git
                                           /pao_ml_equivar/2H2O_rotations/phi_22
