 DBCSR| CPU Multiplication driver                                           XSMM
 DBCSR| Multrec recursion limit                                              512
 DBCSR| Multiplication stack size                                           1000
 DBCSR| Maximum elements for images                                    UNLIMITED
 DBCSR| Multiplicative factor virtual images                                   1
 DBCSR| Use multiplication densification                                       T
 DBCSR| Multiplication size stacks                                             3


  **** **** ******  **  PROGRAM STARTED AT               2019-02-14 10:43:51.956
 ***** ** ***  *** **   PROGRAM STARTED ON                                  otto
 **    ****   ******    PROGRAM STARTED BY                                   ole
 ***** **    ** ** **   PROGRAM PROCESS ID                                  7177
  **** **  *******  **  PROGRAM STARTED IN /home/ole/git/pao_ml_equivar/2H2O_MD/
                                           frame_1125

 CP2K| version string:                    CP2K version 7.0 (Development Version)
 CP2K| source code revision number:                                git:8bf305913
 CP2K| cp2kflags: libint fftw3 libxc xsmm libderiv_max_am1=5 libint_max_am=6    
 CP2K| is freely available from                            https://www.cp2k.org/
 CP2K| Program compiled at                           So Jan 13 00:02:37 CET 2019
 CP2K| Program compiled on                                                  otto
 CP2K| Program compiled for                                                local
 CP2K| Data directory path                               /home/ole/git/cp2k/data
 CP2K| Input file name                                            2H2O_pao44.inp

 GLOBAL| Force Environment number                                              1
 GLOBAL| Basis set file name                                        BASIS_MOLOPT
 GLOBAL| Potential file name                                      GTH_POTENTIALS
 GLOBAL| MM Potential file name                                     MM_POTENTIAL
 GLOBAL| Coordinate file name                                         coords.xyz
 GLOBAL| Method name                                                        CP2K
 GLOBAL| Project name                                                 2H2O_pao44
 GLOBAL| Preferred FFT library                                             FFTW3
 GLOBAL| Preferred diagonalization lib.                                       SL
 GLOBAL| Run type                                                         ENERGY
 GLOBAL| All-to-all communication in single precision                          F
 GLOBAL| FFTs using library dependent lengths                                  F
 GLOBAL| Global print level                                                  LOW
 GLOBAL| MPI I/O enabled                                                       T
 GLOBAL| Total number of message passing processes                             1
 GLOBAL| Number of threads for this process                                    1
 GLOBAL| This output is from process                                           0
 GLOBAL| CPU model name :  Intel(R) Core(TM) i5-3320M CPU @ 2.60GHz

 MEMORY| system memory details [Kb]
 MEMORY|                        rank 0           min           max       average
 MEMORY| MemTotal              7860772       7860772       7860772       7860772
 MEMORY| MemFree               1194764       1194764       1194764       1194764
 MEMORY| Buffers                621208        621208        621208        621208
 MEMORY| Cached                2073564       2073564       2073564       2073564
 MEMORY| Slab                   409892        409892        409892        409892
 MEMORY| SReclaimable           285532        285532        285532        285532
 MEMORY| MemLikelyFree         4175068       4175068       4175068       4175068


 GENERATE|  Preliminary Number of Bonds generated:                             0
 GENERATE|  Achieved consistency in connectivity generation.

 *******************************************************************************
 *******************************************************************************
 **                                                                           **
 **     #####                         ##              ##                      **
 **    ##   ##            ##          ##              ##                      **
 **   ##     ##                       ##            ######                    **
 **   ##     ##  ##   ##  ##   #####  ##  ##   ####   ##    #####    #####    **
 **   ##     ##  ##   ##  ##  ##      ## ##   ##      ##   ##   ##  ##   ##   **
 **   ##  ## ##  ##   ##  ##  ##      ####     ###    ##   ######   ######    **
 **    ##  ###   ##   ##  ##  ##      ## ##      ##   ##   ##       ##        **
 **     #######   #####   ##   #####  ##  ##  ####    ##    #####   ##        **
 **           ##                                                    ##        **
 **                                                                           **
 **                                                ... make the atoms dance   **
 **                                                                           **
 **            Copyright (C) by CP2K developers group (2000 - 2018)           **
 **                                                                           **
 *******************************************************************************


 TOTAL NUMBERS AND MAXIMUM NUMBERS

  Total number of            - Atomic kinds:                                   2
                             - Atoms:                                          6
                             - Shell sets:                                     6
                             - Shells:                                        22
                             - Primitive Cartesian functions:                 42
                             - Cartesian basis functions:                     48
                             - Spherical basis functions:                     46

  Maximum angular momentum of- Orbital basis functions:                        2
                             - Local part of the GTH pseudopotential:          2
                             - Non-local part of the GTH pseudopotential:      0

 ------------------------------ Linear scaling SCF -----------------------------
 eps_scf:                                       0.100E-07
 eps_filter:                                    0.100E-07
 mixing_fraction:                               0.450E+00
 max_scf:                                              25
 fixed chemical potential (mu)                          F
 has unit metric:                                       F
 Computing inv(S):                                      T
 Computing sqrt(S):                                     T
 Computing s preconditioner                             F
 sign sqrt order:                                       3
 Extrapolation order:                                   1
 Use single precision matrices                          F
 S preconditioner type                               NONE
 Polarized Atomic Orbitals (PAO)                        T
 Purification method                      Trace resetting 4th order
 Cluster type                                      ATOMIC
 Computing Chebyshev                                FALSE
 Using PAO                                              T
 -------------------------------------------------------------------------------

 
 PAO|                                  EPS_PAO                           0.5E-06
 PAO|                                  MIXING                            0.5E+00
 PAO|                                  MAX_PAO                              1000
 PAO|                                  MAX_CYCLES                           1000
 PAO|                                  PARAMETERIZATION                   DIRECT
 PAO|                                  PRECONDITION                            F
 PAO|                                  REGULARIZATION                    0.0E+00
 PAO|                                  EPS_PGF                           0.1E-09
 PAO|                                  PENALTY_DISTANCE                  0.1E+00
 PAO|                                  PENALTY_STRENGTH                  0.5E-02
 PAO|                                  LINPOT_PRECONDITION_DELTA         0.0E+00
 PAO|                                  LINPOT_INITGUESS_DELT             0.0E+00
 PAO|                                  LINPOT_REGULARIZATION_DELTA       0.0E+00
 PAO|                                  LINPOT_REGULARIZATION_STRENGTH    0.0E+00
 PAO|                                  OPTIMIZER                              CG
 PAO|                                  CG_INIT_STEPS                           2
 PAO|                                  CG_RESET_LIMIT                    0.1E+00
 PAO|                                  CHECK_UNITARY_TOL                -0.1E+01
 PAO|                                  CHECK_GRADIENT_TOL               -0.1E+01
 PAO|                                  NUM_GRADIENT_ORDER                      2
 PAO|                                  NUM_GRADIENT_EPS                  0.1E-07
 PAO|                                  PRINT%RESTART%WRITE_CYCLES            100
 PAO|                                  RESTART_FILE 
 PAO|                                  PREOPT_DM_FILE 2H2O_ref_LS_DM_SPIN_1_RESTART.dm
 PAO|                                  MACHINE_LEARNING%METHOD        GAUSSIAN_P
 PAO|                                  MACHINE_LEARNING%PRIOR               ZERO
 PAO|                                  MACHINE_LEARNING%DESCRIPTOR     POTENTIAL
 PAO|                                  MACHINE_LEARNING%TOLERANCE        0.1E-01
 PAO|                                  MACHINE_LEARNING%GP_NOISE_VAR     0.1E+00
 PAO|                                  MACHINE_LEARNING%GP_SCALE         0.5E-01
 

 Calculating atomic Fock matrix for atomic kind: O

 Electronic structure
    Total number of core electrons                                          2.00
    Total number of valence electrons                                       6.00
    Total number of electrons                                               8.00
    Multiplicity                                                   not specified
    S   [  2.00] 2.00
    P      4.00


 *******************************************************************************
                  Iteration          Convergence                     Energy [au]
 *******************************************************************************
                          1        0.708315                     -15.576645311500
                          2        0.608879                     -15.587933561584
                          3        0.102828E-01                 -15.656849565404
                          4        0.113889E-02                 -15.656866888140
                          5        0.434197E-03                 -15.656867072159
                          6        0.263771E-03                 -15.656867091904
                          7        0.478536E-06                 -15.656867103452

 Energy components [Hartree]           Total Energy ::          -15.656867103452
                                        Band Energy ::           -3.000198112285
                                     Kinetic Energy ::           11.759971203220
                                   Potential Energy ::          -27.416838306672
                                      Virial (-V/T) ::            2.331369510426
                                        Core Energy ::          -26.140716385623
                                          XC Energy ::           -3.154051012914
                                     Coulomb Energy ::           13.637900295084
                       Total Pseudopotential Energy ::          -37.935781716540
                       Local Pseudopotential Energy ::          -39.218907440693
                    Nonlocal Pseudopotential Energy ::            1.283125724153
                                        Confinement ::            0.350941276976

 Orbital energies  State     L     Occupation   Energy[a.u.]          Energy[eV]

                       1     0          2.000      -0.864471          -23.523463

                       1     1          4.000      -0.317814           -8.648154


 Total Electron Density at R=0:                                         0.000068

 Calculating atomic Fock matrix for atomic kind: H

 Electronic structure
    Total number of core electrons                                          0.00
    Total number of valence electrons                                       1.00
    Total number of electrons                                               1.00
    Multiplicity                                                   not specified
    S      1.00


 *******************************************************************************
                  Iteration          Convergence                     Energy [au]
 *******************************************************************************
                          1        0.437545E-02                  -0.424159432110
                          2        0.531356E-03                  -0.424178438213
                          3        0.259176E-06                  -0.424178722480

 Energy components [Hartree]           Total Energy ::           -0.424178722480
                                        Band Energy ::           -0.199015229016
                                     Kinetic Energy ::            0.464007633961
                                   Potential Energy ::           -0.888186356441
                                      Virial (-V/T) ::            1.914163240935
                                        Core Energy ::           -0.479160803564
                                          XC Energy ::           -0.244352904054
                                     Coulomb Energy ::            0.299334985138
                       Total Pseudopotential Energy ::           -0.962295316385
                       Local Pseudopotential Energy ::           -0.962295316385
                    Nonlocal Pseudopotential Energy ::            0.000000000000
                                        Confinement ::            0.191268788606

 Orbital energies  State     L     Occupation   Energy[a.u.]          Energy[eV]

                       1     0          1.000      -0.199015           -5.415480


 Total Electron Density at R=0:                                         0.242907
 PAO| Made initial guess for matrix_X with norm:   4.8989794855663558     

     Lanczos converged:  T threshold:   0.100E-02
     Est. extremal eigenvalues:    0.315E+01   0.116E+00
     Est. condition number :    0.271E+02
     NS sqrt iter    1 1.00000000   0.770E+00       0.001       48.003
     NS sqrt iter    2 1.00000000   0.412E+00       0.001       84.047
     NS sqrt iter    3 1.00000000   0.155E+00       0.001       82.013
     NS sqrt iter    4 1.00000000   0.166E-01       0.001       84.251
     NS sqrt iter    5 1.00000000   0.296E-04       0.001       65.766
     Final NS sqrt iter    5 1.00000000   0.134E-08

 PAO| Read restart DM 2H2O_ref_LS_DM_SPIN_1_RESTART.dm with checksum:    59.314528379716471     
 PAO| Quickstep energy from restart density:  -34.445140432955704     
 PAO| ======================= Iteration:         1 =============================

     Lanczos converged:  T threshold:   0.100E-02
     Est. extremal eigenvalues:    0.315E+01   0.116E+00
     Est. condition number :    0.271E+02
     NS sqrt iter    1 1.00000000   0.770E+00       0.001       64.512
     NS sqrt iter    2 1.00000000   0.412E+00       0.001      110.592
     NS sqrt iter    3 1.00000000   0.155E+00       0.001      110.592
     NS sqrt iter    4 1.00000000   0.166E-01       0.001      110.592
     NS sqrt iter    5 1.00000000   0.296E-04       0.001       83.456
     Final NS sqrt iter    5 1.00000000   0.134E-08

     Est. extremal eigenvalues     -0.90459     1.75307  converged:  T
     TRS4 it   1 1.00000000   0.868E+00       0.000       16.128   0.100E-07
     TRS4 it   2 1.00000000   0.666E+00       0.001       32.256   0.100E-07
     TRS4 it   3 1.00000000   0.485E+00       0.001       32.256   0.100E-07
     TRS4 it   4 1.00000000   0.303E+00       0.001       32.256   0.100E-07
     TRS4 it   5 1.00000000   0.147E+00       0.001       32.256   0.100E-07
     TRS4 it   6 1.00000000   0.422E-01       0.001       32.256   0.100E-07
     TRS4 it   7 1.00000000   0.447E-02       0.001       32.256   0.100E-07
     TRS4 it   8 1.00000000   0.651E-04       0.001       32.256   0.100E-07
     TRS4 it   9 1.00000000   0.163E-07       0.001       32.256   0.100E-07
     Final TRS4 iteration    9 1.00000000   0.163E-07
     Chemical potential (mu):      -0.06845
 
 PAO| energy:  -7.5678515287125050      penalty:   6.7176436460226791E-033
 PAO|CG| warming up with steepest descent
 PAO|CG| beta:    0.0000000000000000     
 PAO| norm of gradient:  0.79026681567826229     
 PAO|LS| adapt:  T F F
 PAO|LS| adapt: scan_steps:    0.0000000000000000        0.0000000000000000        0.0000000000000000     
 PAO|LS| adapt: energies:   -7.5678515287125050        0.0000000000000000        0.0000000000000000     
 PAO| ======================= Iteration:         2 =============================

     Lanczos converged:  T threshold:   0.100E-02
     Est. extremal eigenvalues:    0.309E+01   0.130E+00
     Est. condition number :    0.237E+02
     NS sqrt iter    1 1.00000000   0.760E+00       0.001       64.512
     NS sqrt iter    2 1.00000000   0.399E+00       0.001      110.592
     NS sqrt iter    3 1.00000000   0.139E+00       0.001      110.592
     NS sqrt iter    4 1.00000000   0.112E-01       0.001      110.592
     NS sqrt iter    5 1.00000000   0.860E-05       0.001       82.944
     Final NS sqrt iter    5 1.00000000   0.111E-09

     Est. extremal eigenvalues     -0.90831     1.70158  converged:  T
     TRS4 it   1 1.00000000   0.863E+00       0.000       16.128   0.100E-07
     TRS4 it   2 1.00000000   0.647E+00       0.001       32.256   0.100E-07
     TRS4 it   3 1.00000000   0.466E+00       0.001       32.256   0.100E-07
     TRS4 it   4 1.00000000   0.280E+00       0.001       32.256   0.100E-07
     TRS4 it   5 1.00000000   0.126E+00       0.001       32.256   0.100E-07
     TRS4 it   6 1.00000000   0.309E-01       0.001       32.256   0.100E-07
     TRS4 it   7 1.00000000   0.241E-02       0.001       32.256   0.100E-07
     TRS4 it   8 1.00000000   0.191E-04       0.001       32.256   0.100E-07
     TRS4 it   9 1.00000000   0.142E-08       0.001       32.256   0.100E-07
     Final TRS4 iteration    9 1.00000000   0.142E-08
     Chemical potential (mu):      -0.05654
 
 PAO| energy:  -7.6241341841480681      penalty:   2.3186777397405372E-008
 PAO|LS| adapt:  T T F
 PAO|LS| adapt: scan_steps:    0.0000000000000000       0.10000000000000001        0.0000000000000000     
 PAO|LS| adapt: energies:   -7.5678515287125050       -7.6241341841480681        0.0000000000000000     
 PAO| ======================= Iteration:         3 =============================

     Lanczos converged:  T threshold:   0.100E-02
     Est. extremal eigenvalues:    0.302E+01   0.144E+00
     Est. condition number :    0.211E+02
     NS sqrt iter    1 1.00000000   0.747E+00       0.001       62.685
     NS sqrt iter    2 1.00000000   0.385E+00       0.001      110.592
     NS sqrt iter    3 1.00000000   0.123E+00       0.001      110.592
     NS sqrt iter    4 1.00000000   0.755E-02       0.001      110.592
     NS sqrt iter    5 1.00000000   0.257E-05       0.001       82.944
     Final NS sqrt iter    5 1.00000000   0.988E-11

     Est. extremal eigenvalues     -0.91172     1.66400  converged:  T
     TRS4 it   1 1.00000000   0.860E+00       0.000       16.128   0.100E-07
     TRS4 it   2 1.00000000   0.631E+00       0.001       32.256   0.100E-07
     TRS4 it   3 1.00000000   0.448E+00       0.001       32.256   0.100E-07
     TRS4 it   4 1.00000000   0.258E+00       0.001       32.256   0.100E-07
     TRS4 it   5 1.00000000   0.106E+00       0.001       32.256   0.100E-07
     TRS4 it   6 1.00000000   0.219E-01       0.001       32.256   0.100E-07
     TRS4 it   7 1.00000000   0.120E-02       0.001       32.256   0.100E-07
     TRS4 it   8 1.00000000   0.475E-05       0.001       32.256   0.100E-07
     TRS4 it   9 1.00000000   0.889E-10       0.001       32.256   0.100E-07
     Final TRS4 iteration    9 1.00000000   0.889E-10
     Chemical potential (mu):      -0.04350
 
 PAO| energy:  -7.6674386380771944      penalty:   3.7098808758681316E-007
 PAO|LS| adapt:  T T F
 PAO|LS| adapt: scan_steps:    0.0000000000000000       0.20000000000000001        0.0000000000000000     
 PAO|LS| adapt: energies:   -7.5678515287125050       -7.6674386380771944        0.0000000000000000     
 PAO| ======================= Iteration:         4 =============================

     Lanczos converged:  T threshold:   0.100E-02
     Est. extremal eigenvalues:    0.287E+01   0.164E+00
     Est. condition number :    0.175E+02
     NS sqrt iter    1 1.00000000   0.720E+00       0.001       64.512
     NS sqrt iter    2 1.00000000   0.354E+00       0.001      110.592
     NS sqrt iter    3 1.00000000   0.961E-01       0.001      110.592
     NS sqrt iter    4 1.00000000   0.361E-02       0.001      110.592
     NS sqrt iter    5 1.00000000   0.318E-06       0.001       80.128
     Final NS sqrt iter    5 1.00000000   0.672E-09

     Est. extremal eigenvalues     -0.91686     1.61814  converged:  T
     TRS4 it   1 1.00000000   0.858E+00       0.000       16.128   0.100E-07
     TRS4 it   2 1.00000000   0.606E+00       0.001       32.256   0.100E-07
     TRS4 it   3 1.00000000   0.416E+00       0.001       32.256   0.100E-07
     TRS4 it   4 1.00000000   0.219E+00       0.001       32.256   0.100E-07
     TRS4 it   5 1.00000000   0.749E-01       0.001       32.256   0.100E-07
     TRS4 it   6 1.00000000   0.104E-01       0.001       32.256   0.100E-07
     TRS4 it   7 1.00000000   0.251E-03       0.001       32.256   0.100E-07
     TRS4 it   8 1.00000000   0.204E-06       0.001       32.256   0.100E-07
     TRS4 it   9 1.00000000   0.169E-12       0.001       32.256   0.100E-07
     Final TRS4 iteration    9 1.00000000   0.169E-12
     Chemical potential (mu):      -0.01519
 
 PAO| energy:  -7.7136193470110710      penalty:   5.9358065957195404E-006
 PAO|LS| Need extra step
 PAO|LS| adapt:  T T F
 PAO|LS| adapt: scan_steps:    0.0000000000000000       0.40000000000000002        0.0000000000000000     
 PAO|LS| adapt: energies:   -7.5678515287125050       -7.7136193470110710        0.0000000000000000     
 PAO| ======================= Iteration:         5 =============================

     Lanczos converged:  T threshold:   0.100E-02
     Est. extremal eigenvalues:    0.256E+01   0.191E+00
     Est. condition number :    0.134E+02
     NS sqrt iter    1 1.00000000   0.666E+00       0.001       64.447
     NS sqrt iter    2 1.00000000   0.296E+00       0.001      110.592
     NS sqrt iter    3 1.00000000   0.589E-01       0.001      110.592
     NS sqrt iter    4 1.00000000   0.978E-03       0.001      110.592
     NS sqrt iter    5 1.00000000   0.735E-08       0.001       40.448
     Final NS sqrt iter    5 1.00000000   0.498E-08

     Est. extremal eigenvalues     -0.91725     1.58098  converged:  T
     TRS4 it   1 1.00000000   0.862E+00       0.000       16.128   0.100E-07
     TRS4 it   2 1.00000000   0.577E+00       0.001       32.256   0.100E-07
     TRS4 it   3 1.00000000   0.370E+00       0.001       32.256   0.100E-07
     TRS4 it   4 1.00000000   0.164E+00       0.001       32.256   0.100E-07
     TRS4 it   5 1.00000000   0.389E-01       0.001       32.256   0.100E-07
     TRS4 it   6 1.00000000   0.251E-02       0.001       32.256   0.100E-07
     TRS4 it   7 1.00000000   0.128E-04       0.001       32.256   0.100E-07
     TRS4 it   8 1.00000000   0.473E-09       0.001       32.256   0.100E-07
     Final TRS4 iteration    8 1.00000000   0.473E-09
     Chemical potential (mu):       0.03227
 
 PAO| energy:  -7.6514112506669738      penalty:   9.4972883088176286E-005
 PAO|LS| Need extra step
 PAO|LS| adapt:  T T T
 PAO|LS| adapt: scan_steps:    0.0000000000000000       0.40000000000000002       0.80000000000000004     
 PAO|LS| adapt: energies:   -7.5678515287125050       -7.7136193470110710       -7.6514112506669738     
 PAO|LS| adapt: suggested step_size:   0.48035519122302056     
 PAO|LS| adapt: predicted energy  -7.7178158829086918     
 PAO| ======================= Iteration:         6 =============================

     Lanczos converged:  T threshold:   0.100E-02
     Est. extremal eigenvalues:    0.281E+01   0.170E+00
     Est. condition number :    0.165E+02
     NS sqrt iter    1 1.00000000   0.709E+00       0.001       64.512
     NS sqrt iter    2 1.00000000   0.342E+00       0.001      110.592
     NS sqrt iter    3 1.00000000   0.869E-01       0.001      110.592
     NS sqrt iter    4 1.00000000   0.274E-02       0.001      110.592
     NS sqrt iter    5 1.00000000   0.152E-06       0.001       77.056
     Final NS sqrt iter    5 1.00000000   0.727E-09

     Est. extremal eigenvalues     -0.91808     1.60681  converged:  T
     TRS4 it   1 1.00000000   0.859E+00       0.000       16.128   0.100E-07
     TRS4 it   2 1.00000000   0.599E+00       0.001       32.256   0.100E-07
     TRS4 it   3 1.00000000   0.405E+00       0.001       32.256   0.100E-07
     TRS4 it   4 1.00000000   0.205E+00       0.001       32.256   0.100E-07
     TRS4 it   5 1.00000000   0.650E-01       0.001       32.256   0.100E-07
     TRS4 it   6 1.00000000   0.760E-02       0.001       32.256   0.100E-07
     TRS4 it   7 1.00000000   0.129E-03       0.001       32.256   0.100E-07
     TRS4 it   8 1.00000000   0.530E-07       0.001       32.256   0.100E-07
     Final TRS4 iteration    8 1.00000000   0.530E-07
     Chemical potential (mu):      -0.00219
 
 PAO| energy:  -7.7171156875813267      penalty:   1.2344960265435635E-005
 PAO|CG| warming up with steepest descent
 PAO|CG| beta:    0.0000000000000000     
 PAO| norm of gradient:  0.41903337332753754     
 PAO| energy improvement: -0.14926415886882172     
 PAO| step      6                   -7.717115688  0.262E-01  0.480E+00     0.079
 PAO|LS| adapt:  T F F
 PAO|LS| adapt: scan_steps:    0.0000000000000000        0.0000000000000000        0.0000000000000000     
 PAO|LS| adapt: energies:   -7.7171156875813267        0.0000000000000000        0.0000000000000000     
 PAO| ======================= Iteration:         7 =============================

     Lanczos converged:  T threshold:   0.100E-02
     Est. extremal eigenvalues:    0.273E+01   0.185E+00
     Est. condition number :    0.148E+02
     NS sqrt iter    1 1.00000000   0.694E+00       0.001       64.512
     NS sqrt iter    2 1.00000000   0.322E+00       0.001      110.592
     NS sqrt iter    3 1.00000000   0.724E-01       0.001      110.592
     NS sqrt iter    4 1.00000000   0.164E-02       0.001      110.592
     NS sqrt iter    5 1.00000000   0.354E-07       0.001       64.128
     Final NS sqrt iter    5 1.00000000   0.906E-09

     Est. extremal eigenvalues     -0.92002     1.61082  converged:  T
     TRS4 it   1 1.00000000   0.863E+00       0.000       16.128   0.100E-07
     TRS4 it   2 1.00000000   0.602E+00       0.001       32.256   0.100E-07
     TRS4 it   3 1.00000000   0.409E+00       0.001       32.256   0.100E-07
     TRS4 it   4 1.00000000   0.209E+00       0.001       32.256   0.100E-07
     TRS4 it   5 1.00000000   0.674E-01       0.001       32.256   0.100E-07
     TRS4 it   6 1.00000000   0.800E-02       0.001       32.256   0.100E-07
     TRS4 it   7 1.00000000   0.135E-03       0.001       32.256   0.100E-07
     TRS4 it   8 1.00000000   0.538E-07       0.001       32.256   0.100E-07
     Final TRS4 iteration    8 1.00000000   0.538E-07
     Chemical potential (mu):      -0.00163
 
 PAO| energy:  -7.7149440264811977      penalty:   1.8513182122881030E-005
 PAO|LS| adapt:  T F T
 PAO|LS| adapt: scan_steps:    0.0000000000000000        0.0000000000000000       0.48035519122302056     
 PAO|LS| adapt: energies:   -7.7171156875813267        0.0000000000000000       -7.7149440264811977     
 PAO| ======================= Iteration:         8 =============================

     Lanczos converged:  T threshold:   0.100E-02
     Est. extremal eigenvalues:    0.277E+01   0.177E+00
     Est. condition number :    0.156E+02
     NS sqrt iter    1 1.00000000   0.701E+00       0.001       64.512
     NS sqrt iter    2 1.00000000   0.332E+00       0.001      110.592
     NS sqrt iter    3 1.00000000   0.795E-01       0.001      110.592
     NS sqrt iter    4 1.00000000   0.214E-02       0.001      110.592
     NS sqrt iter    5 1.00000000   0.751E-07       0.001       71.296
     Final NS sqrt iter    5 1.00000000   0.624E-09

     Est. extremal eigenvalues     -0.92007     1.60833  converged:  T
     TRS4 it   1 1.00000000   0.860E+00       0.000       16.128   0.100E-07
     TRS4 it   2 1.00000000   0.600E+00       0.001       32.256   0.100E-07
     TRS4 it   3 1.00000000   0.406E+00       0.001       32.256   0.100E-07
     TRS4 it   4 1.00000000   0.207E+00       0.001       32.256   0.100E-07
     TRS4 it   5 1.00000000   0.662E-01       0.001       32.256   0.100E-07
     TRS4 it   6 1.00000000   0.790E-02       0.001       32.256   0.100E-07
     TRS4 it   7 1.00000000   0.137E-03       0.001       32.256   0.100E-07
     TRS4 it   8 1.00000000   0.576E-07       0.001       32.256   0.100E-07
     Final TRS4 iteration    8 1.00000000   0.576E-07
     Chemical potential (mu):      -0.00232
 
 PAO| energy:  -7.7374380960414042      penalty:   1.3371437264553143E-005
 PAO|LS| adapt:  T T T
 PAO|LS| adapt: scan_steps:    0.0000000000000000       0.24017759561151028       0.48035519122302056     
 PAO|LS| adapt: energies:   -7.7171156875813267       -7.7374380960414042       -7.7149440264811977     
 PAO|LS| adapt: suggested step_size:   0.23408666560478555     
 PAO|LS| adapt: predicted energy  -7.7374518644319634     
 PAO| ======================= Iteration:         9 =============================

     Lanczos converged:  T threshold:   0.100E-02
     Est. extremal eigenvalues:    0.277E+01   0.177E+00
     Est. condition number :    0.156E+02
     NS sqrt iter    1 1.00000000   0.701E+00       0.001       64.512
     NS sqrt iter    2 1.00000000   0.332E+00       0.001      110.592
     NS sqrt iter    3 1.00000000   0.797E-01       0.001      110.592
     NS sqrt iter    4 1.00000000   0.215E-02       0.001      110.592
     NS sqrt iter    5 1.00000000   0.765E-07       0.001       71.552
     Final NS sqrt iter    5 1.00000000   0.607E-09

     Est. extremal eigenvalues     -0.92004     1.60828  converged:  T
     TRS4 it   1 1.00000000   0.860E+00       0.000       16.128   0.100E-07
     TRS4 it   2 1.00000000   0.600E+00       0.001       32.256   0.100E-07
     TRS4 it   3 1.00000000   0.406E+00       0.001       32.256   0.100E-07
     TRS4 it   4 1.00000000   0.207E+00       0.001       32.256   0.100E-07
     TRS4 it   5 1.00000000   0.662E-01       0.001       32.256   0.100E-07
     TRS4 it   6 1.00000000   0.789E-02       0.001       32.256   0.100E-07
     TRS4 it   7 1.00000000   0.137E-03       0.001       32.256   0.100E-07
     TRS4 it   8 1.00000000   0.576E-07       0.001       32.256   0.100E-07
     Final TRS4 iteration    8 1.00000000   0.576E-07
     Chemical potential (mu):      -0.00233
 
 PAO| energy:  -7.7374605845316502      penalty:   1.3307889746330882E-005
 PAO|CG| trace_G_new    3.8798927061606849E-002
 PAO|CG| trace_G_prev   0.17558896796225543     
 PAO|CG| trace_G_mix   -1.4173326928302084E-003
 PAO|CG| trace_D   0.17558896796225543     
 PAO|CG| trace_D_Gnew   1.4173326928302084E-003
 PAO|CG| beta:   0.22903636954618892     
 PAO| norm of gradient:  0.19697443250738622     
 PAO| energy improvement:  -2.0344896950323488E-002
 PAO| step      9                   -7.737460585  0.123E-01  0.234E+00     0.047
 PAO|LS| adapt:  T F F
 PAO|LS| adapt: scan_steps:    0.0000000000000000        0.0000000000000000        0.0000000000000000     
 PAO|LS| adapt: energies:   -7.7374605845316502        0.0000000000000000        0.0000000000000000     
 PAO| ======================= Iteration:        10 =============================

     Lanczos converged:  T threshold:   0.100E-02
     Est. extremal eigenvalues:    0.274E+01   0.183E+00
     Est. condition number :    0.149E+02
     NS sqrt iter    1 1.00000000   0.694E+00       0.001       64.512
     NS sqrt iter    2 1.00000000   0.324E+00       0.001      110.592
     NS sqrt iter    3 1.00000000   0.742E-01       0.001      110.592
     NS sqrt iter    4 1.00000000   0.175E-02       0.001      110.592
     NS sqrt iter    5 1.00000000   0.415E-07       0.001       65.792
     Final NS sqrt iter    5 1.00000000   0.621E-09

     Est. extremal eigenvalues     -0.92102     1.61271  converged:  T
     TRS4 it   1 1.00000000   0.862E+00       0.000       16.128   0.100E-07
     TRS4 it   2 1.00000000   0.601E+00       0.001       32.256   0.100E-07
     TRS4 it   3 1.00000000   0.406E+00       0.001       32.256   0.100E-07
     TRS4 it   4 1.00000000   0.206E+00       0.001       32.256   0.100E-07
     TRS4 it   5 1.00000000   0.650E-01       0.001       32.256   0.100E-07
     TRS4 it   6 1.00000000   0.755E-02       0.001       32.256   0.100E-07
     TRS4 it   7 1.00000000   0.123E-03       0.001       32.256   0.100E-07
     TRS4 it   8 1.00000000   0.446E-07       0.001       32.256   0.100E-07
     Final TRS4 iteration    8 1.00000000   0.446E-07
     Chemical potential (mu):       0.00065
 
 PAO| energy:  -7.7427460578811766      penalty:   1.3918395892968804E-005
 PAO|LS| adapt:  T T F
 PAO|LS| adapt: scan_steps:    0.0000000000000000       0.23408666560478555        0.0000000000000000     
 PAO|LS| adapt: energies:   -7.7374605845316502       -7.7427460578811766        0.0000000000000000     
 PAO| ======================= Iteration:        11 =============================

     Lanczos converged:  T threshold:   0.100E-02
     Est. extremal eigenvalues:    0.270E+01   0.189E+00
     Est. condition number :    0.143E+02
     NS sqrt iter    1 1.00000000   0.686E+00       0.001       64.512
     NS sqrt iter    2 1.00000000   0.315E+00       0.001      110.592
     NS sqrt iter    3 1.00000000   0.689E-01       0.001      110.592
     NS sqrt iter    4 1.00000000   0.141E-02       0.001      110.592
     NS sqrt iter    5 1.00000000   0.214E-07       0.001       53.120
     Final NS sqrt iter    5 1.00000000   0.468E-08

     Est. extremal eigenvalues     -0.92077     1.61842  converged:  T
     TRS4 it   1 1.00000000   0.863E+00       0.000       16.128   0.100E-07
     TRS4 it   2 1.00000000   0.602E+00       0.001       32.256   0.100E-07
     TRS4 it   3 1.00000000   0.407E+00       0.001       32.256   0.100E-07
     TRS4 it   4 1.00000000   0.205E+00       0.001       32.256   0.100E-07
     TRS4 it   5 1.00000000   0.640E-01       0.001       32.256   0.100E-07
     TRS4 it   6 1.00000000   0.724E-02       0.001       32.256   0.100E-07
     TRS4 it   7 1.00000000   0.110E-03       0.001       32.256   0.100E-07
     TRS4 it   8 1.00000000   0.347E-07       0.001       32.256   0.100E-07
     Final TRS4 iteration    8 1.00000000   0.347E-07
     Chemical potential (mu):       0.00364
 
 PAO| energy:  -7.7408711093339146      penalty:   1.5274449167529850E-005
 PAO|LS| adapt:  T T T
 PAO|LS| adapt: scan_steps:    0.0000000000000000       0.23408666560478555       0.46817333120957111     
 PAO|LS| adapt: energies:   -7.7374605845316502       -7.7427460578811766       -7.7408711093339146     
 PAO|LS| adapt: suggested step_size:   0.28983466414678349     
 PAO|LS| adapt: predicted energy  -7.7429491129454329     
 PAO| ======================= Iteration:        12 =============================

     Lanczos converged:  T threshold:   0.100E-02
     Est. extremal eigenvalues:    0.273E+01   0.184E+00
     Est. condition number :    0.148E+02
     NS sqrt iter    1 1.00000000   0.692E+00       0.001       64.512
     NS sqrt iter    2 1.00000000   0.322E+00       0.001      110.592
     NS sqrt iter    3 1.00000000   0.729E-01       0.001      110.592
     NS sqrt iter    4 1.00000000   0.166E-02       0.001      110.592
     NS sqrt iter    5 1.00000000   0.358E-07       0.001       64.640
     Final NS sqrt iter    5 1.00000000   0.907E-09

     Est. extremal eigenvalues     -0.92107     1.61397  converged:  T
     TRS4 it   1 1.00000000   0.862E+00       0.000       16.128   0.100E-07
     TRS4 it   2 1.00000000   0.601E+00       0.001       32.256   0.100E-07
     TRS4 it   3 1.00000000   0.406E+00       0.001       32.256   0.100E-07
     TRS4 it   4 1.00000000   0.206E+00       0.001       32.256   0.100E-07
     TRS4 it   5 1.00000000   0.648E-01       0.001       32.256   0.100E-07
     TRS4 it   6 1.00000000   0.747E-02       0.001       32.256   0.100E-07
     TRS4 it   7 1.00000000   0.119E-03       0.001       32.256   0.100E-07
     TRS4 it   8 1.00000000   0.420E-07       0.001       32.256   0.100E-07
     Final TRS4 iteration    8 1.00000000   0.420E-07
     Chemical potential (mu):       0.00137
 
 PAO| energy:  -7.7429329581162865      penalty:   1.4165638303229358E-005
 PAO|CG| trace_G_new    1.2885869026706253E-002
 PAO|CG| trace_G_prev    3.8798927061606849E-002
 PAO|CG| trace_G_mix   -5.8426021332804530E-004
 PAO|CG| trace_D    4.7360671723679713E-002
 PAO|CG| trace_D_Gnew   2.5598139092000249E-004
 PAO|CG| beta:   0.34717787991007493     
 PAO| norm of gradient:  0.11351594172937231     
 PAO| energy improvement:  -5.4723735846362587E-003
 PAO| step     12                   -7.742932958  0.709E-02  0.290E+00     0.047
 PAO|LS| adapt:  T F F
 PAO|LS| adapt: scan_steps:    0.0000000000000000        0.0000000000000000        0.0000000000000000     
 PAO|LS| adapt: energies:   -7.7429329581162865        0.0000000000000000        0.0000000000000000     
 PAO| ======================= Iteration:        13 =============================

     Lanczos converged:  T threshold:   0.100E-02
     Est. extremal eigenvalues:    0.269E+01   0.189E+00
     Est. condition number :    0.142E+02
     NS sqrt iter    1 1.00000000   0.685E+00       0.001       54.324
     NS sqrt iter    2 1.00000000   0.315E+00       0.001      104.610
     NS sqrt iter    3 1.00000000   0.686E-01       0.001      110.592
     NS sqrt iter    4 1.00000000   0.139E-02       0.001      109.427
     NS sqrt iter    5 1.00000000   0.204E-07       0.001       52.992
     Final NS sqrt iter    5 1.00000000   0.454E-08

     Est. extremal eigenvalues     -0.92167     1.60921  converged:  T
     TRS4 it   1 1.00000000   0.862E+00       0.000       16.128   0.100E-07
     TRS4 it   2 1.00000000   0.598E+00       0.001       32.256   0.100E-07
     TRS4 it   3 1.00000000   0.402E+00       0.001       32.256   0.100E-07
     TRS4 it   4 1.00000000   0.200E+00       0.001       32.256   0.100E-07
     TRS4 it   5 1.00000000   0.612E-01       0.001       32.256   0.100E-07
     TRS4 it   6 1.00000000   0.662E-02       0.001       32.256   0.100E-07
     TRS4 it   7 1.00000000   0.916E-04       0.001       32.256   0.100E-07
     TRS4 it   8 1.00000000   0.241E-07       0.001       32.256   0.100E-07
     Final TRS4 iteration    8 1.00000000   0.241E-07
     Chemical potential (mu):       0.00577
 
 PAO| energy:  -7.7451640999593874      penalty:   1.4550768909822401E-005
 PAO|LS| adapt:  T T F
 PAO|LS| adapt: scan_steps:    0.0000000000000000       0.28983466414678349        0.0000000000000000     
 PAO|LS| adapt: energies:   -7.7429329581162865       -7.7451640999593874        0.0000000000000000     
 PAO| ======================= Iteration:        14 =============================

     Lanczos converged:  T threshold:   0.100E-02
     Est. extremal eigenvalues:    0.266E+01   0.194E+00
     Est. condition number :    0.137E+02
     NS sqrt iter    1 1.00000000   0.678E+00       0.001       64.512
     NS sqrt iter    2 1.00000000   0.308E+00       0.001      110.592
     NS sqrt iter    3 1.00000000   0.645E-01       0.001      110.592
     NS sqrt iter    4 1.00000000   0.116E-02       0.001      110.592
     NS sqrt iter    5 1.00000000   0.105E-07       0.001       42.752
     Final NS sqrt iter    5 1.00000000   0.588E-08

     Est. extremal eigenvalues     -0.92163     1.60472  converged:  T
     TRS4 it   1 1.00000000   0.862E+00       0.000       16.128   0.100E-07
     TRS4 it   2 1.00000000   0.596E+00       0.001       32.256   0.100E-07
     TRS4 it   3 1.00000000   0.398E+00       0.001       32.256   0.100E-07
     TRS4 it   4 1.00000000   0.195E+00       0.001       32.256   0.100E-07
     TRS4 it   5 1.00000000   0.579E-01       0.001       32.256   0.100E-07
     TRS4 it   6 1.00000000   0.586E-02       0.001       32.256   0.100E-07
     TRS4 it   7 1.00000000   0.706E-04       0.001       32.256   0.100E-07
     TRS4 it   8 1.00000000   0.139E-07       0.001       32.256   0.100E-07
     Final TRS4 iteration    8 1.00000000   0.139E-07
     Chemical potential (mu):       0.00998
 
 PAO| energy:  -7.7444931674633759      penalty:   1.5455162520294169E-005
 PAO|LS| adapt:  T T T
 PAO|LS| adapt: scan_steps:    0.0000000000000000       0.28983466414678349       0.57966932829356699     
 PAO|LS| adapt: energies:   -7.7429329581162865       -7.7451640999593874       -7.7444931674633759     
 PAO|LS| adapt: suggested step_size:   0.36774492750872262     
 PAO|LS| adapt: predicted energy  -7.7452689496686951     
 PAO| ======================= Iteration:        15 =============================

     Lanczos converged:  T threshold:   0.100E-02
     Est. extremal eigenvalues:    0.268E+01   0.190E+00
     Est. condition number :    0.141E+02
     NS sqrt iter    1 1.00000000   0.683E+00       0.001       64.512
     NS sqrt iter    2 1.00000000   0.313E+00       0.001      110.592
     NS sqrt iter    3 1.00000000   0.675E-01       0.001      110.592
     NS sqrt iter    4 1.00000000   0.132E-02       0.001      110.592
     NS sqrt iter    5 1.00000000   0.176E-07       0.001       52.608
     Final NS sqrt iter    5 1.00000000   0.209E-08

     Est. extremal eigenvalues     -0.92172     1.60798  converged:  T
     TRS4 it   1 1.00000000   0.862E+00       0.000       16.128   0.100E-07
     TRS4 it   2 1.00000000   0.598E+00       0.001       32.256   0.100E-07
     TRS4 it   3 1.00000000   0.401E+00       0.001       32.256   0.100E-07
     TRS4 it   4 1.00000000   0.199E+00       0.001       32.256   0.100E-07
     TRS4 it   5 1.00000000   0.603E-01       0.001       32.256   0.100E-07
     TRS4 it   6 1.00000000   0.640E-02       0.001       32.256   0.100E-07
     TRS4 it   7 1.00000000   0.854E-04       0.001       32.256   0.100E-07
     TRS4 it   8 1.00000000   0.207E-07       0.001       32.256   0.100E-07
     Final TRS4 iteration    8 1.00000000   0.207E-07
     Chemical potential (mu):       0.00693
 
 PAO| energy:  -7.7452655689905967      penalty:   1.4739104726464717E-005
 PAO|CG| trace_G_new    2.6473050260498185E-003
 PAO|CG| trace_G_prev    1.2885869026706253E-002
 PAO|CG| trace_G_mix    1.0260651267108923E-004
 PAO|CG| trace_D    1.8416626104989106E-002
 PAO|CG| trace_D_Gnew   3.6718399670018865E-005
 PAO|CG| beta:   0.19747977479088019     
 PAO| norm of gradient:   5.1451968145541517E-002
 PAO| energy improvement:  -2.3326108743102481E-003
 PAO| step     15                   -7.745265569  0.322E-02  0.368E+00     0.049
 PAO|LS| adapt:  T F F
 PAO|LS| adapt: scan_steps:    0.0000000000000000        0.0000000000000000        0.0000000000000000     
 PAO|LS| adapt: energies:   -7.7452655689905967        0.0000000000000000        0.0000000000000000     
 PAO| ======================= Iteration:        16 =============================

     Lanczos converged:  T threshold:   0.100E-02
     Est. extremal eigenvalues:    0.267E+01   0.191E+00
     Est. condition number :    0.140E+02
     NS sqrt iter    1 1.00000000   0.682E+00       0.001       64.512
     NS sqrt iter    2 1.00000000   0.312E+00       0.001      110.592
     NS sqrt iter    3 1.00000000   0.669E-01       0.001      110.592
     NS sqrt iter    4 1.00000000   0.128E-02       0.001      110.592
     NS sqrt iter    5 1.00000000   0.152E-07       0.001       48.896
     Final NS sqrt iter    5 1.00000000   0.557E-08

     Est. extremal eigenvalues     -0.92175     1.60788  converged:  T
     TRS4 it   1 1.00000000   0.862E+00       0.000       16.128   0.100E-07
     TRS4 it   2 1.00000000   0.597E+00       0.001       32.256   0.100E-07
     TRS4 it   3 1.00000000   0.400E+00       0.001       32.256   0.100E-07
     TRS4 it   4 1.00000000   0.198E+00       0.001       32.256   0.100E-07
     TRS4 it   5 1.00000000   0.593E-01       0.001       32.256   0.100E-07
     TRS4 it   6 1.00000000   0.620E-02       0.001       32.256   0.100E-07
     TRS4 it   7 1.00000000   0.803E-04       0.001       32.256   0.100E-07
     TRS4 it   8 1.00000000   0.184E-07       0.001       32.256   0.100E-07
     Final TRS4 iteration    8 1.00000000   0.184E-07
     Chemical potential (mu):       0.00787
 
 PAO| energy:  -7.7454108163138011      penalty:   1.4547910376482969E-005
 PAO|LS| adapt:  T T F
 PAO|LS| adapt: scan_steps:    0.0000000000000000       0.36774492750872262        0.0000000000000000     
 PAO|LS| adapt: energies:   -7.7452655689905967       -7.7454108163138011        0.0000000000000000     
 PAO| ======================= Iteration:        17 =============================

     Lanczos converged:  T threshold:   0.100E-02
     Est. extremal eigenvalues:    0.267E+01   0.192E+00
     Est. condition number :    0.139E+02
     NS sqrt iter    1 1.00000000   0.680E+00       0.001       64.512
     NS sqrt iter    2 1.00000000   0.310E+00       0.001      110.592
     NS sqrt iter    3 1.00000000   0.663E-01       0.001      110.592
     NS sqrt iter    4 1.00000000   0.124E-02       0.001      110.592
     NS sqrt iter    5 1.00000000   0.127E-07       0.001       44.288
     Final NS sqrt iter    5 1.00000000   0.604E-08

     Est. extremal eigenvalues     -0.92165     1.60787  converged:  T
     TRS4 it   1 1.00000000   0.862E+00       0.000       16.128   0.100E-07
     TRS4 it   2 1.00000000   0.596E+00       0.001       32.256   0.100E-07
     TRS4 it   3 1.00000000   0.399E+00       0.001       32.256   0.100E-07
     TRS4 it   4 1.00000000   0.196E+00       0.001       32.256   0.100E-07
     TRS4 it   5 1.00000000   0.584E-01       0.001       32.256   0.100E-07
     TRS4 it   6 1.00000000   0.600E-02       0.001       32.256   0.100E-07
     TRS4 it   7 1.00000000   0.755E-04       0.001       32.256   0.100E-07
     TRS4 it   8 1.00000000   0.163E-07       0.001       32.256   0.100E-07
     Final TRS4 iteration    8 1.00000000   0.163E-07
     Chemical potential (mu):       0.00879
 
 PAO| energy:  -7.7438987661593615      penalty:   1.4474816839071809E-005
 PAO|LS| adapt:  T T T
 PAO|LS| adapt: scan_steps:    0.0000000000000000       0.36774492750872262       0.73548985501744524     
 PAO|LS| adapt: energies:   -7.7452655689905967       -7.7454108163138011       -7.7438987661593615     
 PAO|LS| adapt: suggested step_size:   0.21610202245650592     
 PAO|LS| adapt: predicted energy  -7.7455517196522683     
 PAO| ======================= Iteration:        18 =============================

     Lanczos converged:  T threshold:   0.100E-02
     Est. extremal eigenvalues:    0.268E+01   0.191E+00
     Est. condition number :    0.140E+02
     NS sqrt iter    1 1.00000000   0.682E+00       0.001       64.512
     NS sqrt iter    2 1.00000000   0.312E+00       0.001      110.592
     NS sqrt iter    3 1.00000000   0.671E-01       0.001      110.592
     NS sqrt iter    4 1.00000000   0.130E-02       0.001      110.592
     NS sqrt iter    5 1.00000000   0.165E-07       0.001       52.224
     Final NS sqrt iter    5 1.00000000   0.228E-08

     Est. extremal eigenvalues     -0.92175     1.60791  converged:  T
     TRS4 it   1 1.00000000   0.862E+00       0.000       16.128   0.100E-07
     TRS4 it   2 1.00000000   0.597E+00       0.001       32.256   0.100E-07
     TRS4 it   3 1.00000000   0.400E+00       0.001       32.256   0.100E-07
     TRS4 it   4 1.00000000   0.198E+00       0.001       32.256   0.100E-07
     TRS4 it   5 1.00000000   0.597E-01       0.001       32.256   0.100E-07
     TRS4 it   6 1.00000000   0.628E-02       0.001       32.256   0.100E-07
     TRS4 it   7 1.00000000   0.823E-04       0.001       32.256   0.100E-07
     TRS4 it   8 1.00000000   0.193E-07       0.001       32.256   0.100E-07
     Final TRS4 iteration    8 1.00000000   0.193E-07
     Chemical potential (mu):       0.00748
 
 PAO| energy:  -7.7455512279559349      penalty:   1.4612712824016317E-005
 PAO|CG| trace_G_new    7.9209978483434833E-004
 PAO|CG| trace_G_prev    2.6473050260498185E-003
 PAO|CG| trace_G_mix    2.0474875183615108E-006
 PAO|CG| trace_D    3.3510191433508748E-003
 PAO|CG| trace_D_Gnew  -2.0392632280609306E-006
 PAO|CG| beta:   0.29843644368207350     
 PAO| norm of gradient:   2.8144267352950374E-002
 PAO| energy improvement:  -2.8565896533816471E-004
 PAO| step     18                   -7.745551228  0.176E-02  0.216E+00     0.047
 PAO|LS| adapt:  T F F
 PAO|LS| adapt: scan_steps:    0.0000000000000000        0.0000000000000000        0.0000000000000000     
 PAO|LS| adapt: energies:   -7.7455512279559349        0.0000000000000000        0.0000000000000000     
 PAO| ======================= Iteration:        19 =============================

     Lanczos converged:  T threshold:   0.100E-02
     Est. extremal eigenvalues:    0.268E+01   0.191E+00
     Est. condition number :    0.140E+02
     NS sqrt iter    1 1.00000000   0.682E+00       0.001       64.512
     NS sqrt iter    2 1.00000000   0.312E+00       0.001      110.592
     NS sqrt iter    3 1.00000000   0.673E-01       0.001      110.592
     NS sqrt iter    4 1.00000000   0.130E-02       0.001      110.592
     NS sqrt iter    5 1.00000000   0.162E-07       0.001       50.560
     Final NS sqrt iter    5 1.00000000   0.464E-08

     Est. extremal eigenvalues     -0.92176     1.60808  converged:  T
     TRS4 it   1 1.00000000   0.862E+00       0.000       16.128   0.100E-07
     TRS4 it   2 1.00000000   0.597E+00       0.001       32.256   0.100E-07
     TRS4 it   3 1.00000000   0.400E+00       0.001       32.256   0.100E-07
     TRS4 it   4 1.00000000   0.198E+00       0.001       32.256   0.100E-07
     TRS4 it   5 1.00000000   0.596E-01       0.001       32.256   0.100E-07
     TRS4 it   6 1.00000000   0.628E-02       0.001       32.256   0.100E-07
     TRS4 it   7 1.00000000   0.826E-04       0.001       32.256   0.100E-07
     TRS4 it   8 1.00000000   0.195E-07       0.001       32.256   0.100E-07
     Final TRS4 iteration    8 1.00000000   0.195E-07
     Chemical potential (mu):       0.00737
 
 PAO| energy:  -7.7456797569878804      penalty:   1.4330133543429866E-005
 PAO|LS| adapt:  T T F
 PAO|LS| adapt: scan_steps:    0.0000000000000000       0.21610202245650592        0.0000000000000000     
 PAO|LS| adapt: energies:   -7.7455512279559349       -7.7456797569878804        0.0000000000000000     
 PAO| ======================= Iteration:        20 =============================

     Lanczos converged:  T threshold:   0.100E-02
     Est. extremal eigenvalues:    0.268E+01   0.191E+00
     Est. condition number :    0.140E+02
     NS sqrt iter    1 1.00000000   0.682E+00       0.001       64.512
     NS sqrt iter    2 1.00000000   0.312E+00       0.001      101.604
     NS sqrt iter    3 1.00000000   0.675E-01       0.001      105.945
     NS sqrt iter    4 1.00000000   0.131E-02       0.001      108.653
     NS sqrt iter    5 1.00000000   0.162E-07       0.001       50.560
     Final NS sqrt iter    5 1.00000000   0.464E-08

     Est. extremal eigenvalues     -0.92175     1.60825  converged:  T
     TRS4 it   1 1.00000000   0.862E+00       0.000       16.128   0.100E-07
     TRS4 it   2 1.00000000   0.597E+00       0.001       32.256   0.100E-07
     TRS4 it   3 1.00000000   0.400E+00       0.001       32.256   0.100E-07
     TRS4 it   4 1.00000000   0.198E+00       0.001       32.256   0.100E-07
     TRS4 it   5 1.00000000   0.596E-01       0.001       32.256   0.100E-07
     TRS4 it   6 1.00000000   0.627E-02       0.001       32.256   0.100E-07
     TRS4 it   7 1.00000000   0.828E-04       0.001       32.256   0.100E-07
     TRS4 it   8 1.00000000   0.197E-07       0.001       32.256   0.100E-07
     Final TRS4 iteration    8 1.00000000   0.197E-07
     Chemical potential (mu):       0.00725
 
 PAO| energy:  -7.7457222716394565      penalty:   1.4061056249028279E-005
 PAO|LS| adapt:  T T F
 PAO|LS| adapt: scan_steps:    0.0000000000000000       0.43220404491301184        0.0000000000000000     
 PAO|LS| adapt: energies:   -7.7455512279559349       -7.7457222716394565        0.0000000000000000     
 PAO| ======================= Iteration:        21 =============================

     Lanczos converged:  T threshold:   0.100E-02
     Est. extremal eigenvalues:    0.268E+01   0.191E+00
     Est. condition number :    0.140E+02
     NS sqrt iter    1 1.00000000   0.682E+00       0.001       64.512
     NS sqrt iter    2 1.00000000   0.313E+00       0.001      110.592
     NS sqrt iter    3 1.00000000   0.679E-01       0.001      110.592
     NS sqrt iter    4 1.00000000   0.132E-02       0.001      110.592
     NS sqrt iter    5 1.00000000   0.162E-07       0.001       50.688
     Final NS sqrt iter    5 1.00000000   0.387E-08

     Est. extremal eigenvalues     -0.92175     1.60859  converged:  T
     TRS4 it   1 1.00000000   0.862E+00       0.000       16.128   0.100E-07
     TRS4 it   2 1.00000000   0.597E+00       0.001       32.256   0.100E-07
     TRS4 it   3 1.00000000   0.400E+00       0.001       32.256   0.100E-07
     TRS4 it   4 1.00000000   0.198E+00       0.001       32.256   0.100E-07
     TRS4 it   5 1.00000000   0.594E-01       0.001       32.256   0.100E-07
     TRS4 it   6 1.00000000   0.626E-02       0.001       32.256   0.100E-07
     TRS4 it   7 1.00000000   0.833E-04       0.001       32.256   0.100E-07
     TRS4 it   8 1.00000000   0.201E-07       0.001       32.256   0.100E-07
     Final TRS4 iteration    8 1.00000000   0.201E-07
     Chemical potential (mu):       0.00700
 
 PAO| energy:  -7.7455463977496635      penalty:   1.3562882771141771E-005
 PAO|LS| Need extra step
 PAO|LS| adapt:  T T T
 PAO|LS| adapt: scan_steps:    0.0000000000000000       0.43220404491301184       0.86440808982602368     
 PAO|LS| adapt: energies:   -7.7455512279559349       -7.7457222716394565       -7.7455463977496635     
 PAO|LS| adapt: suggested step_size:   0.42919521104461344     
 PAO|LS| adapt: predicted energy  -7.7457222800459533     
 PAO| ======================= Iteration:        22 =============================

     Lanczos converged:  T threshold:   0.100E-02
     Est. extremal eigenvalues:    0.268E+01   0.191E+00
     Est. condition number :    0.140E+02
     NS sqrt iter    1 1.00000000   0.682E+00       0.001       60.022
     NS sqrt iter    2 1.00000000   0.312E+00       0.001       99.125
     NS sqrt iter    3 1.00000000   0.675E-01       0.001      110.302
     NS sqrt iter    4 1.00000000   0.131E-02       0.001      110.592
     NS sqrt iter    5 1.00000000   0.162E-07       0.001       50.560
     Final NS sqrt iter    5 1.00000000   0.464E-08

     Est. extremal eigenvalues     -0.92175     1.60825  converged:  T
     TRS4 it   1 1.00000000   0.862E+00       0.000       16.128   0.100E-07
     TRS4 it   2 1.00000000   0.597E+00       0.001       32.256   0.100E-07
     TRS4 it   3 1.00000000   0.400E+00       0.001       32.256   0.100E-07
     TRS4 it   4 1.00000000   0.198E+00       0.001       32.256   0.100E-07
     TRS4 it   5 1.00000000   0.596E-01       0.001       32.256   0.100E-07
     TRS4 it   6 1.00000000   0.627E-02       0.001       32.256   0.100E-07
     TRS4 it   7 1.00000000   0.828E-04       0.001       32.256   0.100E-07
     TRS4 it   8 1.00000000   0.197E-07       0.001       32.256   0.100E-07
     Final TRS4 iteration    8 1.00000000   0.197E-07
     Chemical potential (mu):       0.00725
 
 PAO| energy:  -7.7457222734234534      penalty:   1.4064710785312213E-005
 PAO|CG| trace_G_new    2.1980033970713935E-004
 PAO|CG| trace_G_prev    7.9209978483434833E-004
 PAO|CG| trace_G_mix    3.4037478985544847E-006
 PAO|CG| trace_D    1.0917731766396199E-003
 PAO|CG| trace_D_Gnew  -2.1993754056401313E-006
 PAO|CG| beta:   0.27319360003845961     
 PAO| norm of gradient:   1.4825664899327089E-002
 PAO| energy improvement:  -1.7104546751856020E-004
 PAO| step     22                   -7.745722273  0.927E-03  0.429E+00     0.065
 PAO|LS| adapt:  T F F
 PAO|LS| adapt: scan_steps:    0.0000000000000000        0.0000000000000000        0.0000000000000000     
 PAO|LS| adapt: energies:   -7.7457222734234534        0.0000000000000000        0.0000000000000000     
 PAO| ======================= Iteration:        23 =============================

     Lanczos converged:  T threshold:   0.100E-02
     Est. extremal eigenvalues:    0.268E+01   0.191E+00
     Est. condition number :    0.140E+02
     NS sqrt iter    1 1.00000000   0.682E+00       0.001       64.512
     NS sqrt iter    2 1.00000000   0.313E+00       0.001      110.592
     NS sqrt iter    3 1.00000000   0.675E-01       0.001      110.592
     NS sqrt iter    4 1.00000000   0.131E-02       0.001      110.592
     NS sqrt iter    5 1.00000000   0.159E-07       0.001       50.560
     Final NS sqrt iter    5 1.00000000   0.456E-08

     Est. extremal eigenvalues     -0.92175     1.60837  converged:  T
     TRS4 it   1 1.00000000   0.862E+00       0.000       16.128   0.100E-07
     TRS4 it   2 1.00000000   0.597E+00       0.001       32.256   0.100E-07
     TRS4 it   3 1.00000000   0.400E+00       0.001       32.256   0.100E-07
     TRS4 it   4 1.00000000   0.198E+00       0.001       32.256   0.100E-07
     TRS4 it   5 1.00000000   0.597E-01       0.001       32.256   0.100E-07
     TRS4 it   6 1.00000000   0.631E-02       0.001       32.256   0.100E-07
     TRS4 it   7 1.00000000   0.840E-04       0.001       32.256   0.100E-07
     TRS4 it   8 1.00000000   0.203E-07       0.001       32.256   0.100E-07
     Final TRS4 iteration    8 1.00000000   0.203E-07
     Chemical potential (mu):       0.00701
 
 PAO| energy:  -7.7457662051879401      penalty:   1.3442239787292218E-005
 PAO|LS| adapt:  T T F
 PAO|LS| adapt: scan_steps:    0.0000000000000000       0.42919521104461344        0.0000000000000000     
 PAO|LS| adapt: energies:   -7.7457222734234534       -7.7457662051879401        0.0000000000000000     
 PAO| ======================= Iteration:        24 =============================

     Lanczos converged:  T threshold:   0.100E-02
     Est. extremal eigenvalues:    0.268E+01   0.191E+00
     Est. condition number :    0.140E+02
     NS sqrt iter    1 1.00000000   0.682E+00       0.001       60.919
     NS sqrt iter    2 1.00000000   0.313E+00       0.001      110.592
     NS sqrt iter    3 1.00000000   0.675E-01       0.001      110.592
     NS sqrt iter    4 1.00000000   0.130E-02       0.001      110.592
     NS sqrt iter    5 1.00000000   0.157E-07       0.001       50.560
     Final NS sqrt iter    5 1.00000000   0.401E-08

     Est. extremal eigenvalues     -0.92175     1.60849  converged:  T
     TRS4 it   1 1.00000000   0.862E+00       0.000       16.128   0.100E-07
     TRS4 it   2 1.00000000   0.597E+00       0.001       32.256   0.100E-07
     TRS4 it   3 1.00000000   0.401E+00       0.001       32.256   0.100E-07
     TRS4 it   4 1.00000000   0.198E+00       0.001       32.256   0.100E-07
     TRS4 it   5 1.00000000   0.599E-01       0.001       32.256   0.100E-07
     TRS4 it   6 1.00000000   0.635E-02       0.001       32.256   0.100E-07
     TRS4 it   7 1.00000000   0.852E-04       0.001       32.256   0.100E-07
     TRS4 it   8 1.00000000   0.209E-07       0.001       32.256   0.100E-07
     Final TRS4 iteration    8 1.00000000   0.209E-07
     Chemical potential (mu):       0.00677
 
 PAO| energy:  -7.7457083188393616      penalty:   1.2844002998215372E-005
 PAO|LS| adapt:  T T T
 PAO|LS| adapt: scan_steps:    0.0000000000000000       0.42919521104461344       0.85839042208922689     
 PAO|LS| adapt: energies:   -7.7457222734234534       -7.7457662051879401       -7.7457083188393616     
 PAO|LS| adapt: suggested step_size:   0.39978374149356061     
 PAO|LS| adapt: predicted energy  -7.7457664442544614     
 PAO| ======================= Iteration:        25 =============================

     Lanczos converged:  T threshold:   0.100E-02
     Est. extremal eigenvalues:    0.268E+01   0.191E+00
     Est. condition number :    0.140E+02
     NS sqrt iter    1 1.00000000   0.682E+00       0.001       64.512
     NS sqrt iter    2 1.00000000   0.313E+00       0.001      110.592
     NS sqrt iter    3 1.00000000   0.675E-01       0.001      110.592
     NS sqrt iter    4 1.00000000   0.131E-02       0.001      110.592
     NS sqrt iter    5 1.00000000   0.160E-07       0.001       50.560
     Final NS sqrt iter    5 1.00000000   0.457E-08

     Est. extremal eigenvalues     -0.92175     1.60836  converged:  T
     TRS4 it   1 1.00000000   0.862E+00       0.000       16.128   0.100E-07
     TRS4 it   2 1.00000000   0.597E+00       0.001       32.256   0.100E-07
     TRS4 it   3 1.00000000   0.400E+00       0.001       32.256   0.100E-07
     TRS4 it   4 1.00000000   0.198E+00       0.001       32.256   0.100E-07
     TRS4 it   5 1.00000000   0.597E-01       0.001       32.256   0.100E-07
     TRS4 it   6 1.00000000   0.631E-02       0.001       32.256   0.100E-07
     TRS4 it   7 1.00000000   0.839E-04       0.001       32.256   0.100E-07
     TRS4 it   8 1.00000000   0.203E-07       0.001       32.256   0.100E-07
     Final TRS4 iteration    8 1.00000000   0.203E-07
     Chemical potential (mu):       0.00702
 
 PAO| energy:  -7.7457664358674716      penalty:   1.3484116880650251E-005
 PAO|CG| trace_G_new    6.2731490775352357E-005
 PAO|CG| trace_G_prev    2.1980033970713935E-004
 PAO|CG| trace_G_mix    3.0878660621311288E-007
 PAO|CG| trace_D    3.0248626084106910E-004
 PAO|CG| trace_D_Gnew  -2.8332290868377961E-007
 PAO|CG| beta:   0.28399730524671113     
 PAO| norm of gradient:   7.9203213808122924E-003
 PAO| energy improvement:  -4.4162444018169822E-005
 PAO| step     25                   -7.745766436  0.495E-03  0.400E+00     0.049
 PAO|LS| adapt:  T F F
 PAO|LS| adapt: scan_steps:    0.0000000000000000        0.0000000000000000        0.0000000000000000     
 PAO|LS| adapt: energies:   -7.7457664358674716        0.0000000000000000        0.0000000000000000     
 PAO| ======================= Iteration:        26 =============================

     Lanczos converged:  T threshold:   0.100E-02
     Est. extremal eigenvalues:    0.268E+01   0.191E+00
     Est. condition number :    0.140E+02
     NS sqrt iter    1 1.00000000   0.682E+00       0.001       64.512
     NS sqrt iter    2 1.00000000   0.312E+00       0.001      110.592
     NS sqrt iter    3 1.00000000   0.674E-01       0.001      110.592
     NS sqrt iter    4 1.00000000   0.130E-02       0.001      110.592
     NS sqrt iter    5 1.00000000   0.158E-07       0.001       50.560
     Final NS sqrt iter    5 1.00000000   0.449E-08

     Est. extremal eigenvalues     -0.92176     1.60802  converged:  T
     TRS4 it   1 1.00000000   0.862E+00       0.000       16.128   0.100E-07
     TRS4 it   2 1.00000000   0.597E+00       0.001       32.256   0.100E-07
     TRS4 it   3 1.00000000   0.400E+00       0.001       32.256   0.100E-07
     TRS4 it   4 1.00000000   0.198E+00       0.001       32.256   0.100E-07
     TRS4 it   5 1.00000000   0.597E-01       0.001       32.256   0.100E-07
     TRS4 it   6 1.00000000   0.630E-02       0.001       32.256   0.100E-07
     TRS4 it   7 1.00000000   0.835E-04       0.001       32.256   0.100E-07
     TRS4 it   8 1.00000000   0.201E-07       0.001       32.256   0.100E-07
     Final TRS4 iteration    8 1.00000000   0.201E-07
     Chemical potential (mu):       0.00707
 
 PAO| energy:  -7.7457712223729054      penalty:   1.2890531326120303E-005
 PAO|LS| adapt:  T T F
 PAO|LS| adapt: scan_steps:    0.0000000000000000       0.39978374149356061        0.0000000000000000     
 PAO|LS| adapt: energies:   -7.7457664358674716       -7.7457712223729054        0.0000000000000000     
 PAO| ======================= Iteration:        27 =============================

     Lanczos converged:  T threshold:   0.100E-02
     Est. extremal eigenvalues:    0.268E+01   0.191E+00
     Est. condition number :    0.140E+02
     NS sqrt iter    1 1.00000000   0.682E+00       0.001       64.512
     NS sqrt iter    2 1.00000000   0.312E+00       0.001      110.592
     NS sqrt iter    3 1.00000000   0.673E-01       0.001      110.592
     NS sqrt iter    4 1.00000000   0.129E-02       0.001      110.592
     NS sqrt iter    5 1.00000000   0.153E-07       0.001       48.896
     Final NS sqrt iter    5 1.00000000   0.598E-08

     Est. extremal eigenvalues     -0.92176     1.60767  converged:  T
     TRS4 it   1 1.00000000   0.862E+00       0.000       16.128   0.100E-07
     TRS4 it   2 1.00000000   0.597E+00       0.001       32.256   0.100E-07
     TRS4 it   3 1.00000000   0.400E+00       0.001       32.256   0.100E-07
     TRS4 it   4 1.00000000   0.198E+00       0.001       32.256   0.100E-07
     TRS4 it   5 1.00000000   0.596E-01       0.001       32.256   0.100E-07
     TRS4 it   6 1.00000000   0.628E-02       0.001       32.256   0.100E-07
     TRS4 it   7 1.00000000   0.831E-04       0.001       32.256   0.100E-07
     TRS4 it   8 1.00000000   0.199E-07       0.001       32.256   0.100E-07
     Final TRS4 iteration    8 1.00000000   0.199E-07
     Chemical potential (mu):       0.00712
 
 PAO| energy:  -7.7457353122358672      penalty:   1.2312366687100253E-005
 PAO|LS| adapt:  T T T
 PAO|LS| adapt: scan_steps:    0.0000000000000000       0.39978374149356061       0.79956748298712121     
 PAO|LS| adapt: energies:   -7.7457664358674716       -7.7457712223729054       -7.7457353122358672     
 PAO|LS| adapt: suggested step_size:   0.24691213912188420     
 PAO|LS| adapt: predicted energy  -7.7457741976811407     
 PAO| ======================= Iteration:        28 =============================

     Lanczos converged:  T threshold:   0.100E-02
     Est. extremal eigenvalues:    0.268E+01   0.191E+00
     Est. condition number :    0.140E+02
     NS sqrt iter    1 1.00000000   0.682E+00       0.001       64.512
     NS sqrt iter    2 1.00000000   0.312E+00       0.001      110.592
     NS sqrt iter    3 1.00000000   0.675E-01       0.001      110.592
     NS sqrt iter    4 1.00000000   0.130E-02       0.001      110.592
     NS sqrt iter    5 1.00000000   0.158E-07       0.001       50.560
     Final NS sqrt iter    5 1.00000000   0.452E-08

     Est. extremal eigenvalues     -0.92176     1.60815  converged:  T
     TRS4 it   1 1.00000000   0.862E+00       0.000       16.128   0.100E-07
     TRS4 it   2 1.00000000   0.597E+00       0.001       32.256   0.100E-07
     TRS4 it   3 1.00000000   0.400E+00       0.001       32.256   0.100E-07
     TRS4 it   4 1.00000000   0.198E+00       0.001       32.256   0.100E-07
     TRS4 it   5 1.00000000   0.597E-01       0.001       32.256   0.100E-07
     TRS4 it   6 1.00000000   0.630E-02       0.001       32.256   0.100E-07
     TRS4 it   7 1.00000000   0.836E-04       0.001       32.256   0.100E-07
     TRS4 it   8 1.00000000   0.202E-07       0.001       32.256   0.100E-07
     Final TRS4 iteration    8 1.00000000   0.202E-07
     Chemical potential (mu):       0.00706
 
 PAO| energy:  -7.7457741938150289      penalty:   1.3115681941275551E-005
 PAO|CG| trace_G_new    1.7669944282019375E-005
 PAO|CG| trace_G_prev    6.2731490775352357E-005
 PAO|CG| trace_G_mix    2.7834963697650067E-008
 PAO|CG| trace_D    8.7289285525627227E-005
 PAO|CG| trace_D_Gnew  -1.6403040594093217E-008
 PAO|CG| beta:   0.28123210687754663     
 PAO| norm of gradient:   4.2035632839317848E-003
 PAO| energy improvement:  -7.7579475572520096E-006
 PAO| step     28                   -7.745774194  0.263E-03  0.247E+00     0.047
 PAO|LS| adapt:  T F F
 PAO|LS| adapt: scan_steps:    0.0000000000000000        0.0000000000000000        0.0000000000000000     
 PAO|LS| adapt: energies:   -7.7457741938150289        0.0000000000000000        0.0000000000000000     
 PAO| ======================= Iteration:        29 =============================

     Lanczos converged:  T threshold:   0.100E-02
     Est. extremal eigenvalues:    0.268E+01   0.191E+00
     Est. condition number :    0.140E+02
     NS sqrt iter    1 1.00000000   0.682E+00       0.001       64.512
     NS sqrt iter    2 1.00000000   0.312E+00       0.001      101.585
     NS sqrt iter    3 1.00000000   0.674E-01       0.001      110.592
     NS sqrt iter    4 1.00000000   0.130E-02       0.001      110.592
     NS sqrt iter    5 1.00000000   0.158E-07       0.001       50.560
     Final NS sqrt iter    5 1.00000000   0.449E-08

     Est. extremal eigenvalues     -0.92176     1.60814  converged:  T
     TRS4 it   1 1.00000000   0.862E+00       0.000       16.128   0.100E-07
     TRS4 it   2 1.00000000   0.597E+00       0.001       32.256   0.100E-07
     TRS4 it   3 1.00000000   0.400E+00       0.001       32.256   0.100E-07
     TRS4 it   4 1.00000000   0.198E+00       0.001       32.256   0.100E-07
     TRS4 it   5 1.00000000   0.597E-01       0.001       32.256   0.100E-07
     TRS4 it   6 1.00000000   0.629E-02       0.001       32.256   0.100E-07
     TRS4 it   7 1.00000000   0.833E-04       0.001       32.256   0.100E-07
     TRS4 it   8 1.00000000   0.200E-07       0.001       32.256   0.100E-07
     Final TRS4 iteration    8 1.00000000   0.200E-07
     Chemical potential (mu):       0.00712
 
 PAO| energy:  -7.7457779341685624      penalty:   1.2751695449233319E-005
 PAO|LS| adapt:  T T F
 PAO|LS| adapt: scan_steps:    0.0000000000000000       0.24691213912188420        0.0000000000000000     
 PAO|LS| adapt: energies:   -7.7457741938150289       -7.7457779341685624        0.0000000000000000     
 PAO| ======================= Iteration:        30 =============================

     Lanczos converged:  T threshold:   0.100E-02
     Est. extremal eigenvalues:    0.268E+01   0.191E+00
     Est. condition number :    0.140E+02
     NS sqrt iter    1 1.00000000   0.682E+00       0.001       64.512
     NS sqrt iter    2 1.00000000   0.312E+00       0.001      110.592
     NS sqrt iter    3 1.00000000   0.674E-01       0.001      110.592
     NS sqrt iter    4 1.00000000   0.130E-02       0.001      110.592
     NS sqrt iter    5 1.00000000   0.157E-07       0.001       50.560
     Final NS sqrt iter    5 1.00000000   0.446E-08

     Est. extremal eigenvalues     -0.92176     1.60814  converged:  T
     TRS4 it   1 1.00000000   0.862E+00       0.000       16.128   0.100E-07
     TRS4 it   2 1.00000000   0.597E+00       0.001       32.256   0.100E-07
     TRS4 it   3 1.00000000   0.400E+00       0.001       32.256   0.100E-07
     TRS4 it   4 1.00000000   0.198E+00       0.001       32.256   0.100E-07
     TRS4 it   5 1.00000000   0.596E-01       0.001       32.256   0.100E-07
     TRS4 it   6 1.00000000   0.628E-02       0.001       32.256   0.100E-07
     TRS4 it   7 1.00000000   0.830E-04       0.001       32.256   0.100E-07
     TRS4 it   8 1.00000000   0.199E-07       0.001       32.256   0.100E-07
     Final TRS4 iteration    8 1.00000000   0.199E-07
     Chemical potential (mu):       0.00718
 
 PAO| energy:  -7.7457804270927371      penalty:   1.2393160483564886E-005
 PAO|LS| adapt:  T T F
 PAO|LS| adapt: scan_steps:    0.0000000000000000       0.49382427824376840        0.0000000000000000     
 PAO|LS| adapt: energies:   -7.7457741938150289       -7.7457804270927371        0.0000000000000000     
 PAO| ======================= Iteration:        31 =============================

     Lanczos converged:  T threshold:   0.100E-02
     Est. extremal eigenvalues:    0.268E+01   0.191E+00
     Est. condition number :    0.140E+02
     NS sqrt iter    1 1.00000000   0.681E+00       0.001       64.512
     NS sqrt iter    2 1.00000000   0.312E+00       0.001      110.592
     NS sqrt iter    3 1.00000000   0.673E-01       0.001      110.592
     NS sqrt iter    4 1.00000000   0.129E-02       0.001      110.592
     NS sqrt iter    5 1.00000000   0.156E-07       0.001       50.560
     Final NS sqrt iter    5 1.00000000   0.441E-08

     Est. extremal eigenvalues     -0.92176     1.60812  converged:  T
     TRS4 it   1 1.00000000   0.862E+00       0.000       16.128   0.100E-07
     TRS4 it   2 1.00000000   0.597E+00       0.001       32.256   0.100E-07
     TRS4 it   3 1.00000000   0.400E+00       0.001       32.256   0.100E-07
     TRS4 it   4 1.00000000   0.198E+00       0.001       32.256   0.100E-07
     TRS4 it   5 1.00000000   0.595E-01       0.001       32.256   0.100E-07
     TRS4 it   6 1.00000000   0.626E-02       0.001       32.256   0.100E-07
     TRS4 it   7 1.00000000   0.825E-04       0.001       32.256   0.100E-07
     TRS4 it   8 1.00000000   0.196E-07       0.001       32.256   0.100E-07
     Final TRS4 iteration    8 1.00000000   0.196E-07
     Chemical potential (mu):       0.00731
 
 PAO| energy:  -7.7457816694816772      penalty:   1.1692388840303041E-005
 PAO|LS| Need extra step
 PAO|LS| adapt:  T T F
 PAO|LS| adapt: scan_steps:    0.0000000000000000       0.98764855648753680        0.0000000000000000     
 PAO|LS| adapt: energies:   -7.7457741938150289       -7.7457816694816772        0.0000000000000000     
 PAO| ======================= Iteration:        32 =============================

     Lanczos converged:  T threshold:   0.100E-02
     Est. extremal eigenvalues:    0.268E+01   0.191E+00
     Est. condition number :    0.140E+02
     NS sqrt iter    1 1.00000000   0.681E+00       0.001       64.512
     NS sqrt iter    2 1.00000000   0.312E+00       0.001      110.592
     NS sqrt iter    3 1.00000000   0.671E-01       0.001      110.592
     NS sqrt iter    4 1.00000000   0.128E-02       0.001      110.592
     NS sqrt iter    5 1.00000000   0.149E-07       0.001       47.616
     Final NS sqrt iter    5 1.00000000   0.645E-08

     Est. extremal eigenvalues     -0.92177     1.60809  converged:  T
     TRS4 it   1 1.00000000   0.862E+00       0.000       16.128   0.100E-07
     TRS4 it   2 1.00000000   0.597E+00       0.001       32.256   0.100E-07
     TRS4 it   3 1.00000000   0.400E+00       0.001       32.256   0.100E-07
     TRS4 it   4 1.00000000   0.198E+00       0.001       32.256   0.100E-07
     TRS4 it   5 1.00000000   0.593E-01       0.001       32.256   0.100E-07
     TRS4 it   6 1.00000000   0.622E-02       0.001       32.256   0.100E-07
     TRS4 it   7 1.00000000   0.813E-04       0.001       32.256   0.100E-07
     TRS4 it   8 1.00000000   0.191E-07       0.001       32.256   0.100E-07
     Final TRS4 iteration    8 1.00000000   0.191E-07
     Chemical potential (mu):       0.00756
 
 PAO| energy:  -7.7457691702822506      penalty:   1.0355646280527773E-005
 PAO|LS| Need extra step
 PAO|LS| adapt:  T T T
 PAO|LS| adapt: scan_steps:    0.0000000000000000       0.98764855648753680        1.9752971129750736     
 PAO|LS| adapt: energies:   -7.7457741938150289       -7.7457816694816772       -7.7457691702822506     
 PAO|LS| adapt: suggested step_size:   0.86345536094271058     
 PAO|LS| adapt: predicted energy  -7.7457818274043992     
 PAO| ======================= Iteration:        33 =============================

     Lanczos converged:  T threshold:   0.100E-02
     Est. extremal eigenvalues:    0.268E+01   0.191E+00
     Est. condition number :    0.140E+02
     NS sqrt iter    1 1.00000000   0.681E+00       0.001       64.512
     NS sqrt iter    2 1.00000000   0.312E+00       0.001      110.592
     NS sqrt iter    3 1.00000000   0.673E-01       0.001      110.592
     NS sqrt iter    4 1.00000000   0.129E-02       0.001      110.027
     NS sqrt iter    5 1.00000000   0.157E-07       0.001       50.560
     Final NS sqrt iter    5 1.00000000   0.442E-08

     Est. extremal eigenvalues     -0.92176     1.60813  converged:  T
     TRS4 it   1 1.00000000   0.862E+00       0.000       16.128   0.100E-07
     TRS4 it   2 1.00000000   0.597E+00       0.001       32.256   0.100E-07
     TRS4 it   3 1.00000000   0.400E+00       0.001       32.256   0.100E-07
     TRS4 it   4 1.00000000   0.198E+00       0.001       32.256   0.100E-07
     TRS4 it   5 1.00000000   0.595E-01       0.001       32.256   0.100E-07
     TRS4 it   6 1.00000000   0.626E-02       0.001       32.256   0.100E-07
     TRS4 it   7 1.00000000   0.826E-04       0.001       32.256   0.100E-07
     TRS4 it   8 1.00000000   0.197E-07       0.001       32.256   0.100E-07
     Final TRS4 iteration    8 1.00000000   0.197E-07
     Chemical potential (mu):       0.00728
 
 PAO| energy:  -7.7457818269135865      penalty:   1.1866586815931916E-005
 PAO|CG| trace_G_new    4.4393161281873836E-005
 PAO|CG| trace_G_prev    1.7669944282019375E-005
 PAO|CG| trace_G_mix    2.4632845525168659E-008
 PAO|CG| trace_D    2.4583010751578377E-005
 PAO|CG| trace_D_Gnew  -4.0332790704921995E-009
 PAO|CG| beta:    2.5109602910008779     
 PAO| norm of gradient:   6.6628193193177488E-003
 PAO| energy improvement:  -7.6330985576689159E-006
 PAO| step     33                   -7.745781827  0.416E-03  0.863E+00     0.076
 PAO|LS| adapt:  T F F
 PAO|LS| adapt: scan_steps:    0.0000000000000000        0.0000000000000000        0.0000000000000000     
 PAO|LS| adapt: energies:   -7.7457818269135865        0.0000000000000000        0.0000000000000000     
 PAO| ======================= Iteration:        34 =============================

     Lanczos converged:  T threshold:   0.100E-02
     Est. extremal eigenvalues:    0.268E+01   0.191E+00
     Est. condition number :    0.140E+02
     NS sqrt iter    1 1.00000000   0.680E+00       0.001       64.512
     NS sqrt iter    2 1.00000000   0.311E+00       0.001      110.592
     NS sqrt iter    3 1.00000000   0.669E-01       0.001      110.592
     NS sqrt iter    4 1.00000000   0.128E-02       0.001      110.592
     NS sqrt iter    5 1.00000000   0.152E-07       0.001       49.280
     Final NS sqrt iter    5 1.00000000   0.483E-08

     Est. extremal eigenvalues     -0.92177     1.60780  converged:  T
     TRS4 it   1 1.00000000   0.863E+00       0.000       16.128   0.100E-07
     TRS4 it   2 1.00000000   0.597E+00       0.001       32.256   0.100E-07
     TRS4 it   3 1.00000000   0.400E+00       0.001       32.256   0.100E-07
     TRS4 it   4 1.00000000   0.197E+00       0.001       32.256   0.100E-07
     TRS4 it   5 1.00000000   0.592E-01       0.001       32.256   0.100E-07
     TRS4 it   6 1.00000000   0.618E-02       0.001       32.256   0.100E-07
     TRS4 it   7 1.00000000   0.805E-04       0.001       32.256   0.100E-07
     TRS4 it   8 1.00000000   0.189E-07       0.001       32.256   0.100E-07
     Final TRS4 iteration    8 1.00000000   0.189E-07
     Chemical potential (mu):       0.00767
 
 PAO| energy:  -7.7457874662634136      penalty:   8.3093175166099313E-006
 PAO|LS| adapt:  T T F
[...]
 PAO|LS| adapt: energies:   -7.7461960679493806       -7.7461960679608390        0.0000000000000000     
 PAO| ======================= Iteration:       848 =============================

     Lanczos converged:  T threshold:   0.100E-02
     Est. extremal eigenvalues:    0.245E+01   0.233E+00
     Est. condition number :    0.105E+02
     NS sqrt iter    1 1.00000000   0.620E+00       0.001       64.512
     NS sqrt iter    2 1.00000000   0.261E+00       0.001      110.592
     NS sqrt iter    3 1.00000000   0.408E-01       0.001      110.592
     NS sqrt iter    4 1.00000000   0.280E-03       0.001      110.080
     NS sqrt iter    5 1.00000000   0.226E-09       0.001       36.864
     Final NS sqrt iter    5 1.00000000   0.553E-10

     Est. extremal eigenvalues     -0.92171     1.35041  converged:  T
     TRS4 it   1 1.00000000   0.791E+00       0.000       16.128   0.100E-07
     TRS4 it   2 1.00000000   0.563E+00       0.001       32.256   0.100E-07
     TRS4 it   3 1.00000000   0.391E+00       0.001       32.256   0.100E-07
     TRS4 it   4 1.00000000   0.228E+00       0.001       32.256   0.100E-07
     TRS4 it   5 1.00000000   0.946E-01       0.001       32.256   0.100E-07
     TRS4 it   6 1.00000000   0.202E-01       0.001       32.256   0.100E-07
     TRS4 it   7 1.00000000   0.124E-02       0.001       32.256   0.100E-07
     TRS4 it   8 1.00000000   0.553E-05       0.001       32.256   0.100E-07
     TRS4 it   9 1.00000000   0.124E-09       0.001       32.256   0.100E-07
     Final TRS4 iteration    9 1.00000000   0.124E-09
     Chemical potential (mu):      -0.07641
 
 PAO| energy:  -7.7461960679551618      penalty:   2.1634916396520844E-011
 PAO|LS| Need extra step
 PAO|LS| adapt:  T T T
 PAO|LS| adapt: scan_steps:    0.0000000000000000       0.20000000000000001       0.40000000000000002     
 PAO|LS| adapt: energies:   -7.7461960679493806       -7.7461960679608390       -7.7461960679551618     
 PAO|LS| adapt: suggested step_size:   0.23373762504535323     
 PAO|LS| adapt: predicted energy  -7.7461960679610824     
 PAO| ======================= Iteration:       849 =============================

     Lanczos converged:  T threshold:   0.100E-02
     Est. extremal eigenvalues:    0.245E+01   0.233E+00
     Est. condition number :    0.105E+02
     NS sqrt iter    1 1.00000000   0.620E+00       0.001       64.512
     NS sqrt iter    2 1.00000000   0.261E+00       0.001      110.209
     NS sqrt iter    3 1.00000000   0.408E-01       0.001      110.592
     NS sqrt iter    4 1.00000000   0.280E-03       0.001      110.080
     NS sqrt iter    5 1.00000000   0.226E-09       0.001       36.864
     Final NS sqrt iter    5 1.00000000   0.553E-10

     Est. extremal eigenvalues     -0.92171     1.35041  converged:  T
     TRS4 it   1 1.00000000   0.791E+00       0.000       16.128   0.100E-07
     TRS4 it   2 1.00000000   0.563E+00       0.001       32.256   0.100E-07
     TRS4 it   3 1.00000000   0.391E+00       0.001       32.256   0.100E-07
     TRS4 it   4 1.00000000   0.228E+00       0.001       32.256   0.100E-07
     TRS4 it   5 1.00000000   0.946E-01       0.001       32.256   0.100E-07
     TRS4 it   6 1.00000000   0.202E-01       0.001       32.256   0.100E-07
     TRS4 it   7 1.00000000   0.124E-02       0.001       32.256   0.100E-07
     TRS4 it   8 1.00000000   0.553E-05       0.001       32.256   0.100E-07
     TRS4 it   9 1.00000000   0.124E-09       0.001       32.256   0.100E-07
     Final TRS4 iteration    9 1.00000000   0.124E-09
     Chemical potential (mu):      -0.07641
 
 PAO| energy:  -7.7461960679610788      penalty:   2.1891541478390326E-011
 PAO|CG| warming up with steepest descent
 PAO|CG| beta:    0.0000000000000000     
 PAO| norm of gradient:   6.0548881282338010E-006
 PAO| energy improvement:  -1.1698197965870349E-011
 PAO| step    849                   -7.746196068  0.378E-06  0.234E+00     0.076
 PAO| converged after          849  steps :-)
 PAO| Recalculating energy after mixing.

     Lanczos converged:  T threshold:   0.100E-02
     Est. extremal eigenvalues:    0.245E+01   0.233E+00
     Est. condition number :    0.105E+02
     NS sqrt iter    1 1.00000000   0.620E+00       0.001       64.512
     NS sqrt iter    2 1.00000000   0.261E+00       0.001      110.592
     NS sqrt iter    3 1.00000000   0.408E-01       0.001      110.592
     NS sqrt iter    4 1.00000000   0.280E-03       0.001      110.080
     NS sqrt iter    5 1.00000000   0.226E-09       0.001       36.864
     Final NS sqrt iter    5 1.00000000   0.553E-10

     Est. extremal eigenvalues     -0.92171     1.35041  converged:  T
     TRS4 it   1 1.00000000   0.791E+00       0.000       16.128   0.100E-07
     TRS4 it   2 1.00000000   0.563E+00       0.001       32.256   0.100E-07
     TRS4 it   3 1.00000000   0.391E+00       0.001       32.256   0.100E-07
     TRS4 it   4 1.00000000   0.228E+00       0.001       32.256   0.100E-07
     TRS4 it   5 1.00000000   0.946E-01       0.001       32.256   0.100E-07
     TRS4 it   6 1.00000000   0.202E-01       0.001       32.256   0.100E-07
     TRS4 it   7 1.00000000   0.124E-02       0.001       32.256   0.100E-07
     TRS4 it   8 1.00000000   0.553E-05       0.001       32.256   0.100E-07
     TRS4 it   9 1.00000000   0.124E-09       0.001       32.256   0.100E-07
     Final TRS4 iteration    9 1.00000000   0.124E-09
     Chemical potential (mu):      -0.07641
 
 PAO| energy:  -7.7461960679581576      penalty:   2.2072982061695631E-011
 PAO| Writing restart file.
     Est. extremal eigenvalues     -0.92171     1.35041  converged:  T
     TRS4 it   1 1.00000000   0.791E+00       0.000       16.128   0.100E-07
     TRS4 it   2 1.00000000   0.563E+00       0.001       32.256   0.100E-07
     TRS4 it   3 1.00000000   0.391E+00       0.001       32.256   0.100E-07
     TRS4 it   4 1.00000000   0.228E+00       0.001       32.256   0.100E-07
     TRS4 it   5 1.00000000   0.946E-01       0.001       32.256   0.100E-07
     TRS4 it   6 1.00000000   0.202E-01       0.001       32.256   0.100E-07
     TRS4 it   7 1.00000000   0.124E-02       0.001       32.256   0.100E-07
     TRS4 it   8 1.00000000   0.553E-05       0.001       32.256   0.100E-07
     TRS4 it   9 1.00000000   0.124E-09       0.001       32.256   0.100E-07
     Final TRS4 iteration    9 1.00000000   0.124E-09
     Chemical potential (mu):      -0.07641

 SCF     1       -34.444992092       -34.444992092    2.058673

*********************************************************
 Using MIXING_FRACTION=0.450 to mix KS matrix:  iscf=  2
 KS_nw=0.450*KS + 0.550*KS_old
*********************************************************
     Est. extremal eigenvalues     -0.92171     1.35041  converged:  T
     TRS4 it   1 1.00000000   0.791E+00       0.000       16.128   0.100E-07
     TRS4 it   2 1.00000000   0.563E+00       0.001       32.256   0.100E-07
     TRS4 it   3 1.00000000   0.391E+00       0.001       32.256   0.100E-07
     TRS4 it   4 1.00000000   0.228E+00       0.001       32.256   0.100E-07
     TRS4 it   5 1.00000000   0.946E-01       0.001       32.256   0.100E-07
     TRS4 it   6 1.00000000   0.202E-01       0.001       32.256   0.100E-07
     TRS4 it   7 1.00000000   0.124E-02       0.001       32.256   0.100E-07
     TRS4 it   8 1.00000000   0.553E-05       0.001       32.256   0.100E-07
     TRS4 it   9 1.00000000   0.124E-09       0.001       32.256   0.100E-07
     Final TRS4 iteration    9 1.00000000   0.124E-09
     Chemical potential (mu):      -0.07641

 SCF     2       -34.444992092         0.000000000    2.014307

 PAO| Storing density matrix for ASPC guess in slot:           1

 ENERGY| Total FORCE_EVAL ( QS ) energy (a.u.):              -34.444992091749384


 -------------------------------------------------------------------------------
 -                                                                             -
 -                                DBCSR STATISTICS                             -
 -                                                                             -
 -------------------------------------------------------------------------------
 COUNTER                                    TOTAL       BLAS       SMM       ACC
 flops     5 x     5 x     4                26000       0.0%    100.0%      0.0%
 flops    13 x     5 x     4                27040       0.0%    100.0%      0.0%
 flops     5 x    13 x     4                27040       0.0%    100.0%      0.0%
 flops    13 x    13 x     4                52728       0.0%    100.0%      0.0%
 flops     4 x     4 x     5              6627840       0.0%    100.0%      0.0%
 flops     5 x     4 x     5              8105600       0.0%    100.0%      0.0%
 flops     4 x     4 x    13              8616192       0.0%    100.0%      0.0%
 flops    13 x     4 x     5             10537280       0.0%    100.0%      0.0%
 flops     5 x     4 x    13             10537280       0.0%    100.0%      0.0%
 flops     5 x     4 x     4             12612960       0.0%    100.0%      0.0%
 flops    13 x     4 x    13             13698464       0.0%    100.0%      0.0%
 flops    13 x     4 x     4             16474432       0.0%    100.0%      0.0%
 flops     4 x     4 x     4            838972032       0.0%    100.0%      0.0%
 flops inhomo. stacks                           0       0.0%      0.0%      0.0%
 flops total                       926.314888E+06       0.0%    100.0%      0.0%
 flops max/rank                    926.314888E+06       0.0%    100.0%      0.0%
 matmuls inhomo. stacks                         0       0.0%      0.0%      0.0%
 matmuls total                            6826499       0.0%    100.0%      0.0%
 number of processed stacks                 54435       0.0%    100.0%      0.0%
 average stack size                                     0.0     125.4       0.0
 marketing flops                     1.513439E+09
 -------------------------------------------------------------------------------
 # multiplications                          45597
 max memory usage/rank             321.310720E+06
 # max total images/rank                        1
 # max 3D layers                                1
 # MPI messages exchanged                       0
 MPI messages size (bytes):
  total size                         0.000000E+00
  min size                           0.000000E+00
  max size                           0.000000E+00
  average size                       0.000000E+00
 MPI breakdown and total messages size (bytes):
             size <=      128                   0                        0
       128 < size <=     8192                   0                        0
      8192 < size <=    32768                   0                        0
     32768 < size <=   131072                   0                        0
    131072 < size <=  4194304                   0                        0
   4194304 < size <= 16777216                   0                        0
  16777216 < size                               0                        0
 -------------------------------------------------------------------------------

 MEMORY| Estimated peak process memory [MiB]                                 307

 -------------------------------------------------------------------------------
 -                                                                             -
 -                           R E F E R E N C E S                               -
 -                                                                             -
 -------------------------------------------------------------------------------
 
 CP2K version 7.0 (Development Version), the CP2K developers group (2018).
 CP2K is freely available from https://www.cp2k.org/ .

 Schuett, O; VandeVondele, J. 
 Journal of Chemical Theory and Computation, 14, (2018). 
 Machine Learning Adaptive Basis Sets for Efficient Large Scale Density Functional Theory Simulation.
 https://dx.doi.org/10.1021/acs.jctc.8b00378


 Schuett, Ole; Messmer, Peter; Hutter, Juerg; VandeVondele, Joost. 
 Electronic Structure Calculations on Graphics Processing Units, John Wiley & Sons, Ltd, 173-190 (2016). 
 GPU-Accelerated Sparse Matrix-Matrix Multiplication for Linear Scaling Density Functional Theory.
 https://dx.doi.org/10.1002/9781118670712.ch8


 Borstnik, U; VandeVondele, J; Weber, V; Hutter, J. 
 PARALLEL COMPUTING, 40 (5-6), 47-58 (2014). 
 Sparse matrix multiplication: The distributed block-compressed sparse
 row library.
 https://dx.doi.org/10.1016/j.parco.2014.03.012


 Hutter, J; Iannuzzi, M; Schiffmann, F; VandeVondele, J. 
 WILEY INTERDISCIPLINARY REVIEWS-COMPUTATIONAL MOLECULAR SCIENCE, 4 (1), 15-25 (2014). 
 CP2K: atomistic simulations of condensed matter systems.
 https://dx.doi.org/10.1002/wcms.1159


 VandeVondele, J; Borstnik, U; Hutter, J. 
 JOURNAL OF CHEMICAL THEORY AND COMPUTATION, 8 (10), 3565-3573 (2012). 
 Linear Scaling Self-Consistent Field Calculations with Millions of Atoms
 in the Condensed Phase.
 https://dx.doi.org/10.1021/ct200897x


 VandeVondele, J; Hutter, J. 
 JOURNAL OF CHEMICAL PHYSICS, 127 (11), 114105 (2007). 
 Gaussian basis sets for accurate calculations on molecular systems in
 gas and condensed phases.
 https://dx.doi.org/10.1063/1.2770708


 Krack, M. 
 THEORETICAL CHEMISTRY ACCOUNTS, 114 (1-3), 145-152 (2005). 
 Pseudopotentials for H to Kr optimized for gradient-corrected
 exchange-correlation functionals.
 https://dx.doi.org/10.1007/s00214-005-0655-y


 VandeVondele, J; Krack, M; Mohamed, F; Parrinello, M; Chassaing, T;
 Hutter, J. COMPUTER PHYSICS COMMUNICATIONS, 167 (2), 103-128 (2005). 
 QUICKSTEP: Fast and accurate density functional calculations using a
 mixed Gaussian and plane waves approach.
 https://dx.doi.org/10.1016/j.cpc.2004.12.014


 Frigo, M; Johnson, SG. 
 PROCEEDINGS OF THE IEEE, 93 (2), 216-231 (2005). 
 The design and implementation of FFTW3.
 https://dx.doi.org/10.1109/JPROC.2004.840301


 Niklasson, AMN; Tymczak, CJ; Challacombe, M. 
 JOURNAL OF CHEMICAL PHYSICS, 118 (19), 8611-8620 (2003). 
 Trace resetting density matrix purification in O(N)
 self-consistent-field theory.
 https://dx.doi.org/10.1063/1.1559913


 Hartwigsen, C; Goedecker, S; Hutter, J. 
 PHYSICAL REVIEW B, 58 (7), 3641-3662 (1998). 
 Relativistic separable dual-space Gaussian pseudopotentials from H to Rn.
 https://dx.doi.org/10.1103/PhysRevB.58.3641


 Lippert, G; Hutter, J; Parrinello, M. 
 MOLECULAR PHYSICS, 92 (3), 477-487 (1997). 
 A hybrid Gaussian and plane wave density functional scheme.
 https://dx.doi.org/10.1080/002689797170220


 Perdew, JP; Burke, K; Ernzerhof, M. 
 PHYSICAL REVIEW LETTERS, 77 (18), 3865-3868 (1996). 
 Generalized gradient approximation made simple.
 https://dx.doi.org/10.1103/PhysRevLett.77.3865


 Goedecker, S; Teter, M; Hutter, J. 
 PHYSICAL REVIEW B, 54 (3), 1703-1710 (1996). 
 Separable dual-space Gaussian pseudopotentials.
 https://dx.doi.org/10.1103/PhysRevB.54.1703


 -------------------------------------------------------------------------------
 -                                                                             -
 -                                T I M I N G                                  -
 -                                                                             -
 -------------------------------------------------------------------------------
 SUBROUTINE                       CALLS  ASD         SELF TIME        TOTAL TIME
                                MAXIMUM       AVERAGE  MAXIMUM  AVERAGE  MAXIMUM
 CP2K                                 1  1.0    0.033    0.033   41.490   41.490
 qs_energies                          1  2.0    0.000    0.000   41.111   41.111
 ls_scf                               1  3.0    0.000    0.000   41.003   41.003
 ls_scf_main                          6  4.0    0.001    0.001   24.059   24.059
 ls_scf_dm_to_ks                     12  5.0    0.000    0.000   23.957   23.957
 qs_ks_update_qs_env                 13  6.0    0.000    0.000   18.337   18.337
 rebuild_ks_matrix                   13  7.0    0.000    0.000   18.337   18.337
 qs_ks_build_kohn_sham_matrix        13  8.0    0.002    0.002   18.337   18.337
 pao_update                           6  4.0    0.020    0.020   14.863   14.863
 pao_calc_energy                    854  5.0    0.008    0.008   13.436   13.436
 dbcsr_multiply_generic           45597  8.4    0.824    0.824   10.849   10.849
 qs_vxc_create                       13  9.0    0.000    0.000   10.421   10.421
 xc_vxc_pw_create                    13 10.0    0.166    0.166   10.421   10.421
 xc_rho_set_and_dset_create          13 11.0    0.062    0.062    7.649    7.649
 qs_rho_update_rho                   13  6.0    0.000    0.000    7.625    7.625
 calculate_rho_elec                  13  7.0    6.182    6.182    7.624    7.624
 pao_dm_trs4                        854  6.0    0.005    0.005    6.928    6.928
 sum_up_and_integrate                13  9.0    0.028    0.028    6.826    6.826
 integrate_v_rspace                  13 10.0    6.056    6.056    6.798    6.798
 density_matrix_trs4                866  7.0    0.372    0.372    6.599    6.599
 pw_transfer                        248 10.6    0.017    0.017    6.518    6.518
 ls_scf_init_matrix_S               860  7.0    0.006    0.006    6.473    6.473
 pao_rebuild_S                      854  6.0    0.004    0.004    6.430    6.430
 fft_wrap_pw1pw2                    222 11.7    0.003    0.003    6.377    6.377
 fft_wrap_pw1pw2_200                144 12.8    0.517    0.517    6.104    6.104
 matrix_sqrt_Newton_Schulz          860  8.0    0.273    0.273    5.817    5.817
 xc_functional_eval                  13 12.0    0.000    0.000    5.312    5.312
 pbe_lda_eval                        13 13.0    5.312    5.312    5.312    5.312
 multiply_cannon                  45597  9.4    1.901    1.901    4.228    4.228
 make_m2s                         91194  9.4    0.280    0.280    3.973    3.973
 fft3d_s                            223 13.6    3.550    3.550    3.562    3.562
 make_images                      91194 10.4    1.042    1.042    3.531    3.531
 pao_guess_initial_P                  1  4.0    0.000    0.000    2.011    2.011
 pao_read_preopt_dm                   1  5.0    0.000    0.000    2.011    2.011
 arnoldi_extremal                  1726  8.5    0.009    0.009    1.804    1.804
 arnoldi_normal_ev                 1726  9.5    0.020    0.020    1.795    1.795
 density_rs2pw                       13  8.0    0.001    0.001    1.419    1.419
 pao_calc_AB                       1124  5.8    0.001    0.001    1.396    1.396
 pao_calc_AB_direct                1124  6.8    0.047    0.047    1.395    1.395
 build_subspace                    1726 10.5    0.108    0.108    1.334    1.334
 pao_calc_grad_lnv_wrt_AB           269  7.0    0.014    0.014    1.292    1.292
 dbcsr_matrix_vector_mult         41392 11.5    0.212    0.212    1.178    1.178
 pw_scatter_s                       117 14.2    1.163    1.163    1.163    1.163
 dbcsr_create_new                348755 10.7    0.647    0.647    1.153    1.153
 dbcsr_finalize                  107575  9.7    0.212    0.212    1.129    1.129
 pw_gather_s                        105 13.1    1.112    1.112    1.112    1.112
 matrix_qs_to_ls                   1726  7.5    0.012    0.012    0.846    0.846
 -------------------------------------------------------------------------------

 The number of warnings for this run is : 0
 
 -------------------------------------------------------------------------------
  **** **** ******  **  PROGRAM ENDED AT                 2019-02-14 10:44:33.504
 ***** ** ***  *** **   PROGRAM RAN ON                                      otto
 **    ****   ******    PROGRAM RAN BY                                       ole
 ***** **    ** ** **   PROGRAM PROCESS ID                                  7177
  **** **  *******  **  PROGRAM STOPPED IN /home/ole/git/pao_ml_equivar/2H2O_MD/
                                           frame_1125
