 DBCSR| CPU Multiplication driver                                           XSMM (U)
 DBCSR| Multrec recursion limit                                              512 (U)
 DBCSR| Multiplication stack size                                           1000 (D)
 DBCSR| Maximum elements for images                                    UNLIMITED (U)
 DBCSR| Multiplicative factor virtual images                                   1 (U)
 DBCSR| Use multiplication densification                                       T (D)
 DBCSR| Multiplication size stacks                                             3 (U)
 DBCSR| Use memory pool for CPU allocation                                     F (U)
 DBCSR| Number of 3D layers                                               SINGLE (U)
 DBCSR| Use MPI memory allocation                                              F (U)
 DBCSR| Use RMA algorithm                                                      F (U)
 DBCSR| Use Communication thread                                               T (U)
 DBCSR| Communication thread load                                             87 (D)
 DBCSR| MPI: My process id                                                     0
 DBCSR| MPI: Number of processes                                              32
 DBCSR| OMP: Current number of threads                                         1
 DBCSR| OMP: Max number of threads                                             1
 DBCSR| Split modifier for TAS multiplication algorithm                  1.0E+00 (U)


  **** **** ******  **  PROGRAM STARTED AT               2024-09-24 06:33:35.079
 ***** ** ***  *** **   PROGRAM STARTED ON                                moritz
 **    ****   ******    PROGRAM STARTED BY                                   ole
 ***** **    ** ** **   PROGRAM PROCESS ID                                170382
  **** **  *******  **  PROGRAM STARTED IN /home/ole/git/pao_ml_equivar/64H2O_MD
                                           /Frame6700

 CP2K| version string:                 CP2K version 2024.3 (Development Version)
 CP2K| source code revision number:                                  git:3f890bb
 CP2K| cp2kflags: omp libint fftw3 libxc libgrpp pexsi elpa parallel scalapack c
 CP2K|            osma quip deepmd xsmm plumed2 spglib libdftd4 sirius libvori l
 CP2K|            libbqb libvdwxc hdf5
 CP2K| is freely available from                            https://www.cp2k.org/
 CP2K| Program compiled at                          Mo 23 Sep 2024 17:17:04 CEST
 CP2K| Program compiled on                                                moritz
 CP2K| Program compiled for                                                local
 CP2K| Data directory path                               /home/ole/git/cp2k/data
 CP2K| Input file name                                           64H2O_pao44.inp

 GLOBAL| Force Environment number                                              1
 GLOBAL| Basis set file name                                        BASIS_MOLOPT
 GLOBAL| Potential file name                                      GTH_POTENTIALS
 GLOBAL| MM Potential file name                                     MM_POTENTIAL
 GLOBAL| Coordinate file name                                         coords.xyz
 GLOBAL| Method name                                                        CP2K
 GLOBAL| Project name                                                64H2O_pao44
 GLOBAL| Run type                                                         ENERGY
 GLOBAL| FFT library                                                       FFTW3
 GLOBAL| Diagonalization library                                            ELPA
 GLOBAL| DGEMM library                                                      BLAS
 GLOBAL| Minimum number of eigenvectors for ELPA usage                        16
 GLOBAL| Orthonormality check for eigenvectors                          DISABLED
 GLOBAL| Matrix multiplication library                                     COSMA
 GLOBAL| All-to-all communication in single precision                          F
 GLOBAL| FFTs using library dependent lengths                                  F
 GLOBAL| Grid backend                                                       AUTO
 GLOBAL| Global print level                                                  LOW
 GLOBAL| MPI I/O enabled                                                       T
 GLOBAL| Total number of message passing processes                            32
 GLOBAL| Number of threads for this process                                    1
 GLOBAL| This output is from process                                           0
 GLOBAL| Stack size for threads created by OpenMP (OMP_STACKSIZE)        default
 GLOBAL| CPU model name           AMD Ryzen Threadripper 3970X 32-Core Processor
 GLOBAL| CPUID                                                              1002

 MEMORY| system memory details [Kb]
 MEMORY|                        rank 0           min           max       average
 MEMORY| MemTotal            131752136     131752136     131752136     131752136
 MEMORY| MemFree             114329140     114329140     114329140     114329140
 MEMORY| Buffers               2031084       2031084       2031084       2031084
 MEMORY| Cached                8728908       8728908       8728912       8728910
 MEMORY| Slab                  1644068       1644068       1644068       1644068
 MEMORY| SReclaimable          1146516       1146516       1146516       1146516
 MEMORY| MemLikelyFree       126235648     126235648     126235652     126235650


 GENERATE|  Preliminary Number of Bonds generated:                             0
 GENERATE|  Achieved consistency in connectivity generation.

 *******************************************************************************
 *******************************************************************************
 **                                                                           **
 **     #####                         ##              ##                      **
 **    ##   ##            ##          ##              ##                      **
 **   ##     ##                       ##            ######                    **
 **   ##     ##  ##   ##  ##   #####  ##  ##   ####   ##    #####    #####    **
 **   ##     ##  ##   ##  ##  ##      ## ##   ##      ##   ##   ##  ##   ##   **
 **   ##  ## ##  ##   ##  ##  ##      ####     ###    ##   ######   ######    **
 **    ##  ###   ##   ##  ##  ##      ## ##      ##   ##   ##       ##        **
 **     #######   #####   ##   #####  ##  ##  ####    ##    #####   ##        **
 **           ##                                                    ##        **
 **                                                                           **
 **                                                ... make the atoms dance   **
 **                                                                           **
 **            Copyright (C) by CP2K developers group (2000-2024)             **
 **                      J. Chem. Phys. 152, 194103 (2020)                    **
 **                                                                           **
 *******************************************************************************


 TOTAL NUMBERS AND MAXIMUM NUMBERS

  Total number of            - Atomic kinds:                                   2
                             - Atoms:                                        192
                             - Shell sets:                                   192
                             - Shells:                                       704
                             - Primitive Cartesian functions:               1344
                             - Cartesian basis functions:                   1536
                             - Spherical basis functions:                   1472

  Maximum angular momentum of- Orbital basis functions:                        2
                             - Local part of the GTH pseudopotential:          2
                             - Non-local part of the GTH pseudopotential:      0

 ------------------------------ Linear scaling SCF -----------------------------
 eps_scf:                                                              0.100E-07
 eps_filter:                                                           0.100E-11
 mixing_fraction:                                                      0.450E+00
 max_scf:                                                                     25
 fixed chemical potential (mu)                                                 F
 has unit metric:                                                              F
 Computing inv(S):                                                             T
 Computing sqrt(S):                                                            T
 Computing S preconditioner                                                    F
 S sqrt method:                                                     NEWTONSCHULZ
 S sqrt order:                                                                 3
 Extrapolation order:                                                          1
 S preconditioner type                                                      NONE
 Polarized Atomic Orbitals (PAO)                                               T
 Purification method                                   Trace resetting 4th order
 Cluster type                                                             ATOMIC
 Computing Chebyshev                                                       FALSE
 Using PAO                                                                     T
 -------------------------------------------------------------------------------

 
 PAO|                                  EPS_PAO                           0.5E-06
 PAO|                                  MIXING                            0.5E+00
 PAO|                                  MAX_PAO                              1500
 PAO|                                  MAX_CYCLES                           1000
 PAO|                                  PARAMETERIZATION              EQUIVARIANT
 PAO|                                  PRECONDITION                            F
 PAO|                                  REGULARIZATION                    0.0E+00
 PAO|                                  EPS_PGF                           0.1E-09
 PAO|                                  PENALTY_DISTANCE                  0.1E+00
 PAO|                                  PENALTY_STRENGTH                  0.5E-02
 PAO|                                  LINPOT_PRECONDITION_DELTA         0.0E+00
 PAO|                                  LINPOT_INITGUESS_DELT             0.0E+00
 PAO|                                  LINPOT_REGULARIZATION_DELTA       0.0E+00
 PAO|                                  LINPOT_REGULARIZATION_STRENGTH    0.0E+00
 PAO|                                  OPTIMIZER                              CG
 PAO|                                  CG_INIT_STEPS                           2
 PAO|                                  CG_RESET_LIMIT                    0.1E+00
 PAO|                                  CHECK_UNITARY_TOL                -0.1E+01
 PAO|                                  CHECK_GRADIENT_TOL               -0.1E+01
 PAO|                                  NUM_GRADIENT_ORDER                      2
 PAO|                                  NUM_GRADIENT_EPS                  0.1E-07
 PAO|                                  PRINT%RESTART%WRITE_CYCLES            100
 PAO|                                  RESTART_FILE 
 PAO|                                  PREOPT_DM_FILE 64H2O_ref_LS_DM_SPIN_1_RESTART.dm
 PAO|                                  MACHINE_LEARNING%METHOD       GAUSSIAN_PR
 PAO|                                  MACHINE_LEARNING%PRIOR               ZERO
 PAO|                                  MACHINE_LEARNING%DESCRIPTOR     POTENTIAL
 PAO|                                  MACHINE_LEARNING%TOLERANCE        0.1E-01
 PAO|                                  MACHINE_LEARNING%GP_NOISE_VAR     0.1E+00
 PAO|                                  MACHINE_LEARNING%GP_SCALE         0.5E-01
 

 Calculating atomic Fock matrix for atomic kind: O

 Electronic structure
    Total number of core electrons                                          2.00
    Total number of valence electrons                                       6.00
    Total number of electrons                                               8.00
    Multiplicity                                                   not specified
    S   [  2.00] 2.00
    P      4.00


 *******************************************************************************
                  Iteration          Convergence                     Energy [au]
 *******************************************************************************
                          1        0.708315                     -15.576645311500
                          2        0.608879                     -15.587933561584
                          3        0.102828E-01                 -15.656849565404
                          4        0.113889E-02                 -15.656866888140
                          5        0.434197E-03                 -15.656867072159
                          6        0.263771E-03                 -15.656867091904
                          7        0.478536E-06                 -15.656867103452

 Energy components [Hartree]           Total Energy ::          -15.656867103452
                                        Band Energy ::           -3.000198112285
                                     Kinetic Energy ::           11.759971203220
                                   Potential Energy ::          -27.416838306672
                                      Virial (-V/T) ::            2.331369510426
                                        Core Energy ::          -26.140716385623
                                          XC Energy ::           -3.154051012914
                                     Coulomb Energy ::           13.637900295084
                       Total Pseudopotential Energy ::          -37.935781716540
                       Local Pseudopotential Energy ::          -39.218907440693
                    Nonlocal Pseudopotential Energy ::            1.283125724153
                                        Confinement ::            0.350941276976

 Orbital energies  State     L     Occupation   Energy[a.u.]          Energy[eV]

                       1     0          2.000      -0.864471          -23.523463

                       1     1          4.000      -0.317814           -8.648154


 Total Electron Density at R=0:                                         0.000068

 Calculating atomic Fock matrix for atomic kind: H

 Electronic structure
    Total number of core electrons                                          0.00
    Total number of valence electrons                                       1.00
    Total number of electrons                                               1.00
    Multiplicity                                                   not specified
    S      1.00


 *******************************************************************************
                  Iteration          Convergence                     Energy [au]
 *******************************************************************************
                          1        0.437545E-02                  -0.424159432110
                          2        0.531356E-03                  -0.424178438213
                          3        0.259176E-06                  -0.424178722480

 Energy components [Hartree]           Total Energy ::           -0.424178722480
                                        Band Energy ::           -0.199015229016
                                     Kinetic Energy ::            0.464007633961
                                   Potential Energy ::           -0.888186356441
                                      Virial (-V/T) ::            1.914163240935
                                        Core Energy ::           -0.479160803564
                                          XC Energy ::           -0.244352904054
                                     Coulomb Energy ::            0.299334985138
                       Total Pseudopotential Energy ::           -0.962295316385
                       Local Pseudopotential Energy ::           -0.962295316385
                    Nonlocal Pseudopotential Energy ::            0.000000000000
                                        Confinement ::            0.191268788606

 Orbital energies  State     L     Occupation   Energy[a.u.]          Energy[eV]

                       1     0          1.000      -0.199015           -5.415480


 Total Electron Density at R=0:                                         0.242907
 PAO| Made initial guess for matrix_X with norm:   27.712812921102035     

     Lanczos converged:  F threshold:   0.100E-02
     Est. extremal eigenvalues:    0.614E+01   0.942E-01
     Est. condition number :    0.652E+02

 Order=           3
     NS sqrt iter    1 1.00000000   0.150E+01       0.022     2646.404
     NS sqrt iter    2 1.00000000   0.815E+00       0.034     3316.639
     NS sqrt iter    3 1.00000000   0.328E+00       0.034     3304.202
     NS sqrt iter    4 1.00000000   0.910E-01       0.034     3305.507
     NS sqrt iter    5 1.00000000   0.321E-02       0.034     3316.667
     NS sqrt iter    6 1.00000000   0.250E-06       0.029     2887.092
     Symmetrizing Results
     Final NS sqrt iter    6 1.00000000   0.109E-12

 PAO| Read restart DM 64H2O_ref_LS_DM_SPIN_1_RESTART.dm with checksum:    6107.5110138063847     
 PAO| Quickstep energy from restart density:  -1103.1420826256451     
 PAO| ======================= Iteration:         1 =============================

     Lanczos converged:  F threshold:   0.100E-02
     Est. extremal eigenvalues:    0.614E+01   0.942E-01
     Est. condition number :    0.652E+02

 Order=           3
     NS sqrt iter    1 1.00000000   0.150E+01       0.021     2668.035
     NS sqrt iter    2 1.00000000   0.815E+00       0.034     3351.927
     NS sqrt iter    3 1.00000000   0.328E+00       0.034     3344.254
     NS sqrt iter    4 1.00000000   0.910E-01       0.034     3333.842
     NS sqrt iter    5 1.00000000   0.321E-02       0.034     3326.039
     NS sqrt iter    6 1.00000000   0.250E-06       0.029     2889.030
     Symmetrizing Results
     Final NS sqrt iter    6 1.00000000   0.109E-12

     Est. extremal eigenvalues     -0.81649     2.64405  converged:  T
     TRS4 it   1 1.00000000   0.273E+02       0.007     2077.057   0.100E-11
     TRS4 it   2 1.00000000   0.237E+02       0.013     2169.937   0.100E-11
     TRS4 it   3 1.00000000   0.160E+02       0.013     2147.758   0.100E-11
     TRS4 it   4 1.00000000   0.100E+02       0.013     2171.459   0.100E-11
     TRS4 it   5 1.00000000   0.483E+01       0.013     2140.243   0.100E-11
     TRS4 it   6 1.00000000   0.161E+01       0.013     2148.658   0.100E-11
     TRS4 it   7 1.00000000   0.317E+00       0.013     2142.227   0.100E-11
     TRS4 it   8 1.00000000   0.223E-01       0.013     2165.954   0.100E-11
     TRS4 it   9 1.00000000   0.191E-03       0.013     2143.357   0.100E-11
     TRS4 it  10 1.00000000   0.132E-07       0.013     2151.753   0.100E-11
     TRS4 it  11 1.00000000   0.266E-13       0.013     2153.536   0.100E-11
     Final TRS4 iteration   11 1.00000000   0.266E-13
     Chemical potential (mu):       0.00852
 
 PAO| energy:  -186.12896567361452      penalty:   1.3761925010613434E-031
 PAO|CG| warming up with steepest descent
 PAO|CG| beta:    0.0000000000000000     
 PAO| norm of gradient:   3.9915771434167580     
 PAO|LS| adapt:  T F F
 PAO|LS| adapt: scan_steps:    0.0000000000000000        0.0000000000000000        0.0000000000000000     
 PAO|LS| adapt: energies:   -186.12896567361452        0.0000000000000000        0.0000000000000000     
 PAO| ======================= Iteration:         2 =============================

     Lanczos converged:  F threshold:   0.100E-02
     Est. extremal eigenvalues:    0.593E+01   0.999E-01
     Est. condition number :    0.594E+02

 Order=           3
     NS sqrt iter    1 1.00000000   0.146E+01       0.021     2665.760
     NS sqrt iter    2 1.00000000   0.786E+00       0.034     3331.958
     NS sqrt iter    3 1.00000000   0.307E+00       0.034     3323.186
     NS sqrt iter    4 1.00000000   0.764E-01       0.034     3332.107
     NS sqrt iter    5 1.00000000   0.199E-02       0.034     3317.979
     NS sqrt iter    6 1.00000000   0.712E-07       0.029     2886.036
     Symmetrizing Results
     Final NS sqrt iter    6 1.00000000   0.121E-13

     Est. extremal eigenvalues     -0.81981     2.63881  converged:  T
     TRS4 it   1 1.00000000   0.276E+02       0.007     2067.034   0.100E-11
     TRS4 it   2 1.00000000   0.237E+02       0.013     2184.367   0.100E-11
     TRS4 it   3 1.00000000   0.159E+02       0.013     2157.288   0.100E-11
     TRS4 it   4 1.00000000   0.981E+01       0.013     2169.439   0.100E-11
     TRS4 it   5 1.00000000   0.462E+01       0.013     2168.071   0.100E-11
     TRS4 it   6 1.00000000   0.148E+01       0.013     2165.107   0.100E-11
     TRS4 it   7 1.00000000   0.271E+00       0.013     2159.167   0.100E-11
     TRS4 it   8 1.00000000   0.160E-01       0.013     2168.608   0.100E-11
     TRS4 it   9 1.00000000   0.884E-04       0.013     2153.519   0.100E-11
     TRS4 it  10 1.00000000   0.325E-08       0.013     2164.537   0.100E-11
     TRS4 it  11 1.00000000   0.000E+00       0.013     2191.357   0.100E-11
     Final TRS4 iteration   11 1.00000000   0.000E+00
     Chemical potential (mu):       0.01417
 
 PAO| energy:  -187.59095860697278      penalty:   4.7460111553452157E-007
 PAO|LS| adapt:  T T F
 PAO|LS| adapt: scan_steps:    0.0000000000000000       0.10000000000000001        0.0000000000000000     
 PAO|LS| adapt: energies:   -186.12896567361452       -187.59095860697278        0.0000000000000000     
 PAO| ======================= Iteration:         3 =============================

     Lanczos converged:  F threshold:   0.100E-02
     Est. extremal eigenvalues:    0.571E+01   0.105E+00
     Est. condition number :    0.544E+02

 Order=           3
     NS sqrt iter    1 1.00000000   0.141E+01       0.021     2649.745
     NS sqrt iter    2 1.00000000   0.757E+00       0.034     3341.555
     NS sqrt iter    3 1.00000000   0.287E+00       0.034     3319.214
     NS sqrt iter    4 1.00000000   0.639E-01       0.034     3325.022
     NS sqrt iter    5 1.00000000   0.125E-02       0.034     3322.684
     NS sqrt iter    6 1.00000000   0.217E-07       0.029     2888.040
     Symmetrizing Results
     Final NS sqrt iter    6 1.00000000   0.312E-14

     Est. extremal eigenvalues     -0.82297     2.63539  converged:  T
     TRS4 it   1 1.00000000   0.278E+02       0.007     2106.956   0.100E-11
     TRS4 it   2 1.00000000   0.237E+02       0.013     2136.651   0.100E-11
     TRS4 it   3 1.00000000   0.158E+02       0.013     2177.700   0.100E-11
     TRS4 it   4 1.00000000   0.962E+01       0.013     2151.514   0.100E-11
     TRS4 it   5 1.00000000   0.441E+01       0.013     2173.535   0.100E-11
     TRS4 it   6 1.00000000   0.135E+01       0.013     2165.608   0.100E-11
     TRS4 it   7 1.00000000   0.230E+00       0.013     2154.181   0.100E-11
     TRS4 it   8 1.00000000   0.110E-01       0.013     2180.200   0.100E-11
     TRS4 it   9 1.00000000   0.379E-04       0.013     2162.033   0.100E-11
     TRS4 it  10 1.00000000   0.690E-09       0.013     2140.627   0.100E-11
     TRS4 it  11 1.00000000   0.178E-14       0.013     2176.048   0.100E-11
     Final TRS4 iteration   11 1.00000000   0.178E-14
     Chemical potential (mu):       0.02059
 
 PAO| energy:  -188.77395550126266      penalty:   7.5936178485947145E-006
 PAO|LS| adapt:  T T F
 PAO|LS| adapt: scan_steps:    0.0000000000000000       0.20000000000000001        0.0000000000000000     
 PAO|LS| adapt: energies:   -186.12896567361452       -188.77395550126266        0.0000000000000000     
 PAO| ======================= Iteration:         4 =============================

     Lanczos converged:  T threshold:   0.100E-02
     Est. extremal eigenvalues:    0.530E+01   0.114E+00
     Est. condition number :    0.465E+02

 Order=           3
     NS sqrt iter    1 1.00000000   0.133E+01       0.021     2673.281
     NS sqrt iter    2 1.00000000   0.701E+00       0.034     3337.048
     NS sqrt iter    3 1.00000000   0.249E+00       0.034     3331.624
     NS sqrt iter    4 1.00000000   0.446E-01       0.034     3322.500
     NS sqrt iter    5 1.00000000   0.510E-03       0.034     3332.323
     NS sqrt iter    6 1.00000000   0.204E-08       0.029     2830.545
     Symmetrizing Results
     Final NS sqrt iter    6 1.00000000   0.159E-13

     Est. extremal eigenvalues     -0.82817     2.63314  converged:  T
     TRS4 it   1 1.00000000   0.282E+02       0.007     2100.348   0.100E-11
     TRS4 it   2 1.00000000   0.237E+02       0.013     2164.224   0.100E-11
     TRS4 it   3 1.00000000   0.156E+02       0.013     2168.957   0.100E-11
     TRS4 it   4 1.00000000   0.929E+01       0.013     2132.794   0.100E-11
     TRS4 it   5 1.00000000   0.405E+01       0.013     2168.205   0.100E-11
     TRS4 it   6 1.00000000   0.114E+01       0.013     2177.718   0.100E-11
     TRS4 it   7 1.00000000   0.163E+00       0.013     2178.638   0.100E-11
     TRS4 it   8 1.00000000   0.508E-02       0.013     2157.037   0.100E-11
     TRS4 it   9 1.00000000   0.647E-05       0.013     2179.382   0.100E-11
     TRS4 it  10 1.00000000   0.231E-10       0.013     2154.302   0.100E-11
     Final TRS4 iteration   10 1.00000000   0.231E-10
     Chemical potential (mu):       0.04047
 
 PAO| energy:  -190.26045355949194      penalty:   1.2149788557785549E-004
 PAO|LS| Need extra step
 PAO|LS| adapt:  T T F
 PAO|LS| adapt: scan_steps:    0.0000000000000000       0.40000000000000002        0.0000000000000000     
 PAO|LS| adapt: energies:   -186.12896567361452       -190.26045355949194        0.0000000000000000     
 PAO| ======================= Iteration:         5 =============================

     Lanczos converged:  T threshold:   0.100E-02
     Est. extremal eigenvalues:    0.464E+01   0.129E+00
     Est. condition number :    0.360E+02

 Order=           3
     NS sqrt iter    1 1.00000000   0.120E+01       0.022     2641.557
     NS sqrt iter    2 1.00000000   0.611E+00       0.034     3344.132
     NS sqrt iter    3 1.00000000   0.192E+00       0.034     3345.118
     NS sqrt iter    4 1.00000000   0.232E-01       0.034     3337.690
     NS sqrt iter    5 1.00000000   0.963E-04       0.034     3320.331
     NS sqrt iter    6 1.00000000   0.206E-10       0.018     2149.162
     Symmetrizing Results
     Final NS sqrt iter    6 1.00000000   0.206E-11

     Est. extremal eigenvalues     -0.83148     2.63108  converged:  T
     TRS4 it   1 1.00000000   0.288E+02       0.007     2101.228   0.100E-11
     TRS4 it   2 1.00000000   0.237E+02       0.013     2188.388   0.100E-11
     TRS4 it   3 1.00000000   0.154E+02       0.013     2151.525   0.100E-11
     TRS4 it   4 1.00000000   0.880E+01       0.013     2162.401   0.100E-11
     TRS4 it   5 1.00000000   0.353E+01       0.013     2154.493   0.100E-11
     TRS4 it   6 1.00000000   0.843E+00       0.013     2142.227   0.100E-11
     TRS4 it   7 1.00000000   0.877E-01       0.013     2177.515   0.100E-11
     TRS4 it   8 1.00000000   0.135E-02       0.013     2173.807   0.100E-11
     TRS4 it   9 1.00000000   0.432E-06       0.013     2167.358   0.100E-11
     TRS4 it  10 1.00000000   0.870E-13       0.013     2171.328   0.100E-11
     Final TRS4 iteration   10 1.00000000   0.870E-13
     Chemical potential (mu):       0.06325
 
 PAO| energy:  -189.84164705894435      penalty:   1.9439661692484103E-003
 PAO|LS| Need extra step
 PAO|LS| adapt:  T T T
 PAO|LS| adapt: scan_steps:    0.0000000000000000       0.40000000000000002       0.80000000000000004     
 PAO|LS| adapt: energies:   -186.12896567361452       -190.26045355949194       -189.84164705894435     
 PAO|LS| adapt: suggested step_size:   0.56318422809767876     
 PAO|LS| adapt: predicted energy  -190.63911046326547     
 PAO| ======================= Iteration:         6 =============================

     Lanczos converged:  T threshold:   0.100E-02
     Est. extremal eigenvalues:    0.500E+01   0.121E+00
     Est. condition number :    0.415E+02

 Order=           3
     NS sqrt iter    1 1.00000000   0.127E+01       0.021     2647.987
     NS sqrt iter    2 1.00000000   0.659E+00       0.034     3337.622
     NS sqrt iter    3 1.00000000   0.223E+00       0.034     3311.057
     NS sqrt iter    4 1.00000000   0.337E-01       0.034     3305.963
     NS sqrt iter    5 1.00000000   0.252E-03       0.034     3323.160
     NS sqrt iter    6 1.00000000   0.297E-09       0.028     2646.866
     Symmetrizing Results
     Final NS sqrt iter    6 1.00000000   0.409E-12

     Est. extremal eigenvalues     -0.83082     2.63285  converged:  T
     TRS4 it   1 1.00000000   0.285E+02       0.007     2092.026   0.100E-11
     TRS4 it   2 1.00000000   0.237E+02       0.013     2165.718   0.100E-11
     TRS4 it   3 1.00000000   0.155E+02       0.013     2153.857   0.100E-11
     TRS4 it   4 1.00000000   0.906E+01       0.013     2170.197   0.100E-11
     TRS4 it   5 1.00000000   0.381E+01       0.013     2164.554   0.100E-11
     TRS4 it   6 1.00000000   0.995E+00       0.013     2174.048   0.100E-11
     TRS4 it   7 1.00000000   0.124E+00       0.013     2165.944   0.100E-11
     TRS4 it   8 1.00000000   0.279E-02       0.013     2156.048   0.100E-11
     TRS4 it   9 1.00000000   0.181E-05       0.013     2179.618   0.100E-11
     TRS4 it  10 1.00000000   0.174E-11       0.013     2177.198   0.100E-11
     Final TRS4 iteration   10 1.00000000   0.174E-11
     Chemical potential (mu):       0.05099
 
 PAO| energy:  -190.61301009871926      penalty:   4.7745307030250744E-004
 PAO|CG| warming up with steepest descent
 PAO|CG| beta:    0.0000000000000000     
 PAO| norm of gradient:   2.1302275249361222     
 PAO| energy improvement:  -4.4840444251047415     
 PAO| step      6                 -190.613010099  0.416E-02  0.563E+00     2.482
 PAO|LS| adapt:  T F F
 PAO|LS| adapt: scan_steps:    0.0000000000000000        0.0000000000000000        0.0000000000000000     
 PAO|LS| adapt: energies:   -190.61301009871926        0.0000000000000000        0.0000000000000000     
 PAO| ======================= Iteration:         7 =============================

     Lanczos converged:  T threshold:   0.100E-02
     Est. extremal eigenvalues:    0.485E+01   0.129E+00
     Est. condition number :    0.376E+02

 Order=           3
     NS sqrt iter    1 1.00000000   0.124E+01       0.022     2640.350
     NS sqrt iter    2 1.00000000   0.635E+00       0.034     3340.379
     NS sqrt iter    3 1.00000000   0.206E+00       0.034     3338.251
     NS sqrt iter    4 1.00000000   0.271E-01       0.034     3333.982
     NS sqrt iter    5 1.00000000   0.139E-03       0.034     3337.029
     NS sqrt iter    6 1.00000000   0.530E-10       0.023     2314.201
     Symmetrizing Results
     Final NS sqrt iter    6 1.00000000   0.212E-11

     Est. extremal eigenvalues     -0.83113     2.62415  converged:  T
     TRS4 it   1 1.00000000   0.286E+02       0.007     2075.881   0.100E-11
     TRS4 it   2 1.00000000   0.238E+02       0.013     2174.344   0.100E-11
     TRS4 it   3 1.00000000   0.156E+02       0.013     2167.746   0.100E-11
     TRS4 it   4 1.00000000   0.919E+01       0.013     2164.595   0.100E-11
     TRS4 it   5 1.00000000   0.391E+01       0.013     2196.692   0.100E-11
     TRS4 it   6 1.00000000   0.102E+01       0.013     2195.871   0.100E-11
     TRS4 it   7 1.00000000   0.125E+00       0.013     2172.551   0.100E-11
     TRS4 it   8 1.00000000   0.280E-02       0.013     2175.113   0.100E-11
     TRS4 it   9 1.00000000   0.189E-05       0.013     2188.965   0.100E-11
     TRS4 it  10 1.00000000   0.197E-11       0.013     2153.216   0.100E-11
     Final TRS4 iteration   10 1.00000000   0.197E-11
     Chemical potential (mu):       0.05347
 
 PAO| energy:  -189.68867046646278      penalty:   6.8220570484435364E-004
 PAO|LS| adapt:  T F T
 PAO|LS| adapt: scan_steps:    0.0000000000000000        0.0000000000000000       0.56318422809767876     
 PAO|LS| adapt: energies:   -190.61301009871926        0.0000000000000000       -189.68867046646278     
 PAO| ======================= Iteration:         8 =============================

     Lanczos converged:  T threshold:   0.100E-02
     Est. extremal eigenvalues:    0.492E+01   0.125E+00
     Est. condition number :    0.395E+02

 Order=           3
     NS sqrt iter    1 1.00000000   0.126E+01       0.021     2654.091
     NS sqrt iter    2 1.00000000   0.647E+00       0.034     3283.918
     NS sqrt iter    3 1.00000000   0.214E+00       0.034     3333.139
     NS sqrt iter    4 1.00000000   0.303E-01       0.034     3319.878
     NS sqrt iter    5 1.00000000   0.188E-03       0.034     3300.959
     NS sqrt iter    6 1.00000000   0.128E-09       0.027     2466.359
     Symmetrizing Results
     Final NS sqrt iter    6 1.00000000   0.144E-11

     Est. extremal eigenvalues     -0.83217     2.62903  converged:  T
     TRS4 it   1 1.00000000   0.285E+02       0.007     2118.531   0.100E-11
     TRS4 it   2 1.00000000   0.237E+02       0.013     2150.447   0.100E-11
     TRS4 it   3 1.00000000   0.155E+02       0.013     2149.955   0.100E-11
     TRS4 it   4 1.00000000   0.909E+01       0.013     2156.161   0.100E-11
     TRS4 it   5 1.00000000   0.383E+01       0.013     2150.075   0.100E-11
     TRS4 it   6 1.00000000   0.998E+00       0.013     2164.537   0.100E-11
     TRS4 it   7 1.00000000   0.123E+00       0.013     2159.987   0.100E-11
     TRS4 it   8 1.00000000   0.277E-02       0.013     2175.792   0.100E-11
     TRS4 it   9 1.00000000   0.183E-05       0.013     2149.815   0.100E-11
     TRS4 it  10 1.00000000   0.185E-11       0.013     2177.048   0.100E-11
     Final TRS4 iteration   10 1.00000000   0.185E-11
     Chemical potential (mu):       0.05111
 
 PAO| energy:  -191.00675840621540      penalty:   5.0833517099761944E-004
 PAO|LS| adapt:  T T T
 PAO|LS| adapt: scan_steps:    0.0000000000000000       0.28159211404883938       0.56318422809767876     
 PAO|LS| adapt: energies:   -190.61301009871926       -191.00675840621540       -189.68867046646278     
 PAO|LS| adapt: suggested step_size:   0.20556651534903439     
 PAO|LS| adapt: predicted energy  -191.06914782555481     
 PAO| ======================= Iteration:         9 =============================

     Lanczos converged:  T threshold:   0.100E-02
     Est. extremal eigenvalues:    0.494E+01   0.124E+00
     Est. condition number :    0.400E+02

 Order=           3
     NS sqrt iter    1 1.00000000   0.126E+01       0.021     2658.861
     NS sqrt iter    2 1.00000000   0.650E+00       0.034     3342.695
     NS sqrt iter    3 1.00000000   0.216E+00       0.034     3329.240
     NS sqrt iter    4 1.00000000   0.311E-01       0.034     3340.979
     NS sqrt iter    5 1.00000000   0.204E-03       0.034     3320.040
     NS sqrt iter    6 1.00000000   0.161E-09       0.027     2543.006
     Symmetrizing Results
     Final NS sqrt iter    6 1.00000000   0.112E-11

     Est. extremal eigenvalues     -0.83205     2.63018  converged:  T
     TRS4 it   1 1.00000000   0.285E+02       0.007     2098.567   0.100E-11
     TRS4 it   2 1.00000000   0.237E+02       0.013     2184.977   0.100E-11
     TRS4 it   3 1.00000000   0.155E+02       0.013     2157.490   0.100E-11
     TRS4 it   4 1.00000000   0.908E+01       0.013     2163.300   0.100E-11
     TRS4 it   5 1.00000000   0.382E+01       0.013     2183.412   0.100E-11
     TRS4 it   6 1.00000000   0.996E+00       0.013     2172.904   0.100E-11
     TRS4 it   7 1.00000000   0.123E+00       0.013     2152.944   0.100E-11
     TRS4 it   8 1.00000000   0.278E-02       0.013     2151.805   0.100E-11
     TRS4 it   9 1.00000000   0.182E-05       0.013     2169.707   0.100E-11
     TRS4 it  10 1.00000000   0.180E-11       0.013     2162.992   0.100E-11
     Final TRS4 iteration   10 1.00000000   0.180E-11
     Chemical potential (mu):       0.05086
 
 PAO| energy:  -191.07356763124110      penalty:   4.9054097653331268E-004
 PAO|CG| trace_G_new   0.75707367988331231     
 PAO|CG| trace_G_prev    4.5378693079954768     
 PAO|CG| trace_G_mix   -4.4811560219749871E-002
 PAO|CG| trace_D    4.5378693079954768     
 PAO|CG| trace_D_Gnew   4.4811560219749871E-002
 PAO|CG| beta:   0.17670963742613396     
 PAO| norm of gradient:  0.87009981029954964     
 PAO| energy improvement: -0.46055753252184672     
 PAO| step      9                 -191.073567631  0.170E-02  0.206E+00     1.521
 PAO|LS| adapt:  T F F
 PAO|LS| adapt: scan_steps:    0.0000000000000000        0.0000000000000000        0.0000000000000000     
 PAO|LS| adapt: energies:   -191.07356763124110        0.0000000000000000        0.0000000000000000     
 PAO| ======================= Iteration:        10 =============================

     Lanczos converged:  T threshold:   0.100E-02
     Est. extremal eigenvalues:    0.489E+01   0.127E+00
     Est. condition number :    0.386E+02

 Order=           3
     NS sqrt iter    1 1.00000000   0.125E+01       0.022     2644.815
     NS sqrt iter    2 1.00000000   0.642E+00       0.034     3320.558
     NS sqrt iter    3 1.00000000   0.211E+00       0.034     3334.333
     NS sqrt iter    4 1.00000000   0.289E-01       0.034     3311.252
     NS sqrt iter    5 1.00000000   0.162E-03       0.034     3319.780
     NS sqrt iter    6 1.00000000   0.820E-10       0.025     2374.361
     Symmetrizing Results
     Final NS sqrt iter    6 1.00000000   0.188E-11

     Est. extremal eigenvalues     -0.83259     2.61801  converged:  T
     TRS4 it   1 1.00000000   0.285E+02       0.007     2088.835   0.100E-11
     TRS4 it   2 1.00000000   0.237E+02       0.013     2158.049   0.100E-11
     TRS4 it   3 1.00000000   0.155E+02       0.013     2150.436   0.100E-11
     TRS4 it   4 1.00000000   0.906E+01       0.013     2135.641   0.100E-11
     TRS4 it   5 1.00000000   0.380E+01       0.013     2158.237   0.100E-11
     TRS4 it   6 1.00000000   0.982E+00       0.013     2147.525   0.100E-11
     TRS4 it   7 1.00000000   0.120E+00       0.013     2169.021   0.100E-11
     TRS4 it   8 1.00000000   0.261E-02       0.013     2163.173   0.100E-11
     TRS4 it   9 1.00000000   0.162E-05       0.013     2160.413   0.100E-11
     TRS4 it  10 1.00000000   0.147E-11       0.013     2155.550   0.100E-11
     Final TRS4 iteration   10 1.00000000   0.147E-11
     Chemical potential (mu):       0.05182
 
 PAO| energy:  -191.17775140993385      penalty:   4.9364986892343069E-004
 PAO|LS| adapt:  T T F
 PAO|LS| adapt: scan_steps:    0.0000000000000000       0.20556651534903439        0.0000000000000000     
 PAO|LS| adapt: energies:   -191.07356763124110       -191.17775140993385        0.0000000000000000     
 PAO| ======================= Iteration:        11 =============================

     Lanczos converged:  T threshold:   0.100E-02
     Est. extremal eigenvalues:    0.484E+01   0.130E+00
     Est. condition number :    0.372E+02

 Order=           3
     NS sqrt iter    1 1.00000000   0.124E+01       0.022     2644.345
     NS sqrt iter    2 1.00000000   0.634E+00       0.034     3333.084
     NS sqrt iter    3 1.00000000   0.205E+00       0.034     3337.097
     NS sqrt iter    4 1.00000000   0.267E-01       0.034     3322.493
     NS sqrt iter    5 1.00000000   0.129E-03       0.034     3337.159
     NS sqrt iter    6 1.00000000   0.412E-10       0.021     2240.243
     Symmetrizing Results
     Final NS sqrt iter    6 1.00000000   0.221E-11

     Est. extremal eigenvalues     -0.83273     2.60590  converged:  T
     TRS4 it   1 1.00000000   0.285E+02       0.007     2121.766   0.100E-11
     TRS4 it   2 1.00000000   0.236E+02       0.013     2175.953   0.100E-11
     TRS4 it   3 1.00000000   0.155E+02       0.013     2153.003   0.100E-11
     TRS4 it   4 1.00000000   0.904E+01       0.013     2145.339   0.100E-11
     TRS4 it   5 1.00000000   0.378E+01       0.013     2172.888   0.100E-11
     TRS4 it   6 1.00000000   0.967E+00       0.013     2165.471   0.100E-11
     TRS4 it   7 1.00000000   0.116E+00       0.013     2179.992   0.100E-11
     TRS4 it   8 1.00000000   0.243E-02       0.013     2175.833   0.100E-11
     TRS4 it   9 1.00000000   0.142E-05       0.013     2179.359   0.100E-11
     TRS4 it  10 1.00000000   0.106E-11       0.013     2142.750   0.100E-11
     Final TRS4 iteration   10 1.00000000   0.106E-11
     Chemical potential (mu):       0.05284
 
 PAO| energy:  -191.18509911446912      penalty:   5.0710313166698695E-004
 PAO|LS| adapt:  T T F
 PAO|LS| adapt: scan_steps:    0.0000000000000000       0.41113303069806878        0.0000000000000000     
 PAO|LS| adapt: energies:   -191.07356763124110       -191.18509911446912        0.0000000000000000     
 PAO| ======================= Iteration:        12 =============================

     Lanczos converged:  T threshold:   0.100E-02
     Est. extremal eigenvalues:    0.474E+01   0.137E+00
     Est. condition number :    0.347E+02

 Order=           3
     NS sqrt iter    1 1.00000000   0.122E+01       0.022     2643.787
     NS sqrt iter    2 1.00000000   0.617E+00       0.034     3323.125
     NS sqrt iter    3 1.00000000   0.194E+00       0.034     3318.840
     NS sqrt iter    4 1.00000000   0.229E-01       0.034     3316.974
     NS sqrt iter    5 1.00000000   0.812E-04       0.034     3323.229
     NS sqrt iter    6 1.00000000   0.100E-10       0.015     2104.737
     Symmetrizing Results
     Final NS sqrt iter    6 1.00000000   0.158E-11

     Est. extremal eigenvalues     -0.83190     2.58269  converged:  T
     TRS4 it   1 1.00000000   0.285E+02       0.007     2096.236   0.100E-11
     TRS4 it   2 1.00000000   0.235E+02       0.013     2146.117   0.100E-11
     TRS4 it   3 1.00000000   0.155E+02       0.013     2149.086   0.100E-11
     TRS4 it   4 1.00000000   0.898E+01       0.013     2169.150   0.100E-11
     TRS4 it   5 1.00000000   0.372E+01       0.013     2178.003   0.100E-11
     TRS4 it   6 1.00000000   0.932E+00       0.013     2155.410   0.100E-11
     TRS4 it   7 1.00000000   0.107E+00       0.013     2159.072   0.100E-11
     TRS4 it   8 1.00000000   0.207E-02       0.013     2149.310   0.100E-11
     TRS4 it   9 1.00000000   0.104E-05       0.013     2184.841   0.100E-11
     TRS4 it  10 1.00000000   0.568E-12       0.013     2173.342   0.100E-11
     Final TRS4 iteration   10 1.00000000   0.568E-12
     Chemical potential (mu):       0.05507
 
 PAO| energy:  -190.92686702693621      penalty:   5.7273294430878053E-004
 PAO|LS| Need extra step
 PAO|LS| adapt:  T T T
 PAO|LS| adapt: scan_steps:    0.0000000000000000       0.41113303069806878       0.82226606139613756     
 PAO|LS| adapt: energies:   -191.07356763124110       -191.18509911446912       -190.92686702693621     
 PAO|LS| adapt: suggested step_size:   0.32957623492044374     
 PAO|LS| adapt: predicted energy  -191.19237439420365     
 PAO| ======================= Iteration:        13 =============================

     Lanczos converged:  T threshold:   0.100E-02
     Est. extremal eigenvalues:    0.486E+01   0.129E+00
     Est. condition number :    0.377E+02

 Order=           3
     NS sqrt iter    1 1.00000000   0.125E+01       0.021     2660.795
     NS sqrt iter    2 1.00000000   0.637E+00       0.034     3345.362
     NS sqrt iter    3 1.00000000   0.207E+00       0.034     3341.313
     NS sqrt iter    4 1.00000000   0.276E-01       0.034     3337.071
     NS sqrt iter    5 1.00000000   0.142E-03       0.034     3336.612
     NS sqrt iter    6 1.00000000   0.542E-10       0.022     2316.824
     Symmetrizing Results
     Final NS sqrt iter    6 1.00000000   0.216E-11

     Est. extremal eigenvalues     -0.83272     2.61068  converged:  T
     TRS4 it   1 1.00000000   0.285E+02       0.007     2138.667   0.100E-11
     TRS4 it   2 1.00000000   0.236E+02       0.013     2158.034   0.100E-11
     TRS4 it   3 1.00000000   0.155E+02       0.013     2178.511   0.100E-11
     TRS4 it   4 1.00000000   0.905E+01       0.013     2170.669   0.100E-11
     TRS4 it   5 1.00000000   0.379E+01       0.013     2167.518   0.100E-11
     TRS4 it   6 1.00000000   0.974E+00       0.013     2142.702   0.100E-11
     TRS4 it   7 1.00000000   0.117E+00       0.013     2153.332   0.100E-11
     TRS4 it   8 1.00000000   0.250E-02       0.013     2200.838   0.100E-11
     TRS4 it   9 1.00000000   0.150E-05       0.013     2141.191   0.100E-11
     TRS4 it  10 1.00000000   0.123E-11       0.013     2169.292   0.100E-11
     Final TRS4 iteration   10 1.00000000   0.123E-11
     Chemical potential (mu):       0.05242
 
 PAO| energy:  -191.19349745035018      penalty:   5.0043897210116949E-004
 PAO|CG| trace_G_new   0.29203952982311271     
 PAO|CG| trace_G_prev   0.75707367988331231     
 PAO|CG| trace_G_mix   -1.3126027123652654E-002
 PAO|CG| trace_D   0.88293726080143009     
 PAO|CG| trace_D_Gnew   1.2594947791859910E-002
 PAO|CG| beta:   0.40308567720093041     
 PAO| norm of gradient:  0.54040681881626240     
 PAO| energy improvement: -0.11992981910907474     
 PAO| step     13                 -191.193497450  0.106E-02  0.330E+00     1.916
 PAO|LS| adapt:  T F F
 PAO|LS| adapt: scan_steps:    0.0000000000000000        0.0000000000000000        0.0000000000000000     
 PAO|LS| adapt: energies:   -191.19349745035018        0.0000000000000000        0.0000000000000000     
 PAO| ======================= Iteration:        14 =============================

     Lanczos converged:  T threshold:   0.100E-02
     Est. extremal eigenvalues:    0.479E+01   0.132E+00
     Est. condition number :    0.364E+02

 Order=           3
     NS sqrt iter    1 1.00000000   0.123E+01       0.021     2661.329
     NS sqrt iter    2 1.00000000   0.626E+00       0.034     3307.792
     NS sqrt iter    3 1.00000000   0.201E+00       0.034     3332.611
     NS sqrt iter    4 1.00000000   0.254E-01       0.034     3332.832
     NS sqrt iter    5 1.00000000   0.112E-03       0.034     3323.204
     NS sqrt iter    6 1.00000000   0.272E-10       0.019     2181.160
     Symmetrizing Results
     Final NS sqrt iter    6 1.00000000   0.218E-11

     Est. extremal eigenvalues     -0.83315     2.60300  converged:  T
     TRS4 it   1 1.00000000   0.285E+02       0.007     2086.107   0.100E-11
     TRS4 it   2 1.00000000   0.236E+02       0.013     2163.065   0.100E-11
     TRS4 it   3 1.00000000   0.155E+02       0.013     2164.634   0.100E-11
     TRS4 it   4 1.00000000   0.899E+01       0.013     2159.192   0.100E-11
     TRS4 it   5 1.00000000   0.373E+01       0.013     2161.750   0.100E-11
     TRS4 it   6 1.00000000   0.942E+00       0.013     2155.050   0.100E-11
     TRS4 it   7 1.00000000   0.110E+00       0.013     2180.148   0.100E-11
     TRS4 it   8 1.00000000   0.219E-02       0.013     2127.100   0.100E-11
     TRS4 it   9 1.00000000   0.116E-05       0.013     2155.699   0.100E-11
     TRS4 it  10 1.00000000   0.735E-12       0.013     2152.568   0.100E-11
     Final TRS4 iteration   10 1.00000000   0.735E-12
     Chemical potential (mu):       0.05438
 
 PAO| energy:  -191.24812741861291      penalty:   5.0391124262224207E-004
 PAO|LS| adapt:  T T F
 PAO|LS| adapt: scan_steps:    0.0000000000000000       0.32957623492044374        0.0000000000000000     
 PAO|LS| adapt: energies:   -191.19349745035018       -191.24812741861291        0.0000000000000000     
 PAO| ======================= Iteration:        15 =============================

     Lanczos converged:  T threshold:   0.100E-02
     Est. extremal eigenvalues:    0.472E+01   0.134E+00
     Est. condition number :    0.351E+02

 Order=           3
     NS sqrt iter    1 1.00000000   0.122E+01       0.021     2669.034
     NS sqrt iter    2 1.00000000   0.616E+00       0.034     3353.846
     NS sqrt iter    3 1.00000000   0.195E+00       0.034     3336.568
     NS sqrt iter    4 1.00000000   0.234E-01       0.034     3354.912
     NS sqrt iter    5 1.00000000   0.893E-04       0.034     3340.299
     NS sqrt iter    6 1.00000000   0.137E-10       0.016     2122.155
     Symmetrizing Results
     Final NS sqrt iter    6 1.00000000   0.180E-11

     Est. extremal eigenvalues     -0.83321     2.59509  converged:  T
     TRS4 it   1 1.00000000   0.286E+02       0.007     2063.222   0.100E-11
     TRS4 it   2 1.00000000   0.235E+02       0.013     2163.482   0.100E-11
     TRS4 it   3 1.00000000   0.154E+02       0.013     2175.564   0.100E-11
     TRS4 it   4 1.00000000   0.893E+01       0.013     2174.075   0.100E-11
     TRS4 it   5 1.00000000   0.367E+01       0.013     2135.149   0.100E-11
     TRS4 it   6 1.00000000   0.912E+00       0.013     2189.007   0.100E-11
     TRS4 it   7 1.00000000   0.103E+00       0.013     2166.604   0.100E-11
     TRS4 it   8 1.00000000   0.192E-02       0.013     2164.728   0.100E-11
     TRS4 it   9 1.00000000   0.898E-06       0.013     2156.839   0.100E-11
     TRS4 it  10 1.00000000   0.446E-12       0.013     2177.318   0.100E-11
     Final TRS4 iteration   10 1.00000000   0.446E-12
     Chemical potential (mu):       0.05622
 
 PAO| energy:  -191.22405335672482      penalty:   5.2343215351190024E-004
 PAO|LS| adapt:  T T T
 PAO|LS| adapt: scan_steps:    0.0000000000000000       0.32957623492044374       0.65915246984088749     
 PAO|LS| adapt: energies:   -191.19349745035018       -191.24812741861291       -191.22405335672482     
 PAO|LS| adapt: suggested step_size:   0.39355326734330198     
 PAO|LS| adapt: predicted energy  -191.24961028964981     
 PAO| ======================= Iteration:        16 =============================

     Lanczos converged:  T threshold:   0.100E-02
     Est. extremal eigenvalues:    0.478E+01   0.132E+00
     Est. condition number :    0.361E+02

 Order=           3
     NS sqrt iter    1 1.00000000   0.123E+01       0.022     2646.600
     NS sqrt iter    2 1.00000000   0.624E+00       0.034     3326.650
     NS sqrt iter    3 1.00000000   0.200E+00       0.034     3335.664
     NS sqrt iter    4 1.00000000   0.250E-01       0.034     3332.425
     NS sqrt iter    5 1.00000000   0.107E-03       0.034     3331.286
     NS sqrt iter    6 1.00000000   0.238E-10       0.018     2161.108
     Symmetrizing Results
     Final NS sqrt iter    6 1.00000000   0.211E-11

     Est. extremal eigenvalues     -0.83319     2.60147  converged:  T
     TRS4 it   1 1.00000000   0.285E+02       0.007     2107.196   0.100E-11
     TRS4 it   2 1.00000000   0.236E+02       0.013     2173.630   0.100E-11
     TRS4 it   3 1.00000000   0.155E+02       0.013     2162.460   0.100E-11
     TRS4 it   4 1.00000000   0.898E+01       0.013     2151.448   0.100E-11
     TRS4 it   5 1.00000000   0.372E+01       0.013     2168.553   0.100E-11
     TRS4 it   6 1.00000000   0.936E+00       0.013     2176.124   0.100E-11
     TRS4 it   7 1.00000000   0.108E+00       0.013     2174.658   0.100E-11
     TRS4 it   8 1.00000000   0.214E-02       0.013     2172.011   0.100E-11
     TRS4 it   9 1.00000000   0.110E-05       0.013     2156.646   0.100E-11
     TRS4 it  10 1.00000000   0.664E-12       0.013     2174.482   0.100E-11
     Final TRS4 iteration   10 1.00000000   0.664E-12
     Chemical potential (mu):       0.05474
 
 PAO| energy:  -191.24955381209807      penalty:   5.0639172729226680E-004
 PAO|CG| trace_G_new   0.10956833267166818     
 PAO|CG| trace_G_prev   0.29203952982311271     
 PAO|CG| trace_G_mix    4.9361790635716052E-003
 PAO|CG| trace_D   0.42534377973394255     
 PAO|CG| trace_D_Gnew   8.1611932306617442E-004
 PAO|CG| beta:   0.35828079051994055     
 PAO| norm of gradient:  0.33101107635797955     
 PAO| energy improvement:  -5.6056361747891970E-002
 PAO| step     16                 -191.249553812  0.647E-03  0.394E+00     1.467
 PAO|LS| adapt:  T F F
 PAO|LS| adapt: scan_steps:    0.0000000000000000        0.0000000000000000        0.0000000000000000     
 PAO|LS| adapt: energies:   -191.24955381209807        0.0000000000000000        0.0000000000000000     
 PAO| ======================= Iteration:        17 =============================

     Lanczos converged:  T threshold:   0.100E-02
     Est. extremal eigenvalues:    0.474E+01   0.133E+00
     Est. condition number :    0.357E+02

 Order=           3
     NS sqrt iter    1 1.00000000   0.122E+01       0.021     2672.316
     NS sqrt iter    2 1.00000000   0.619E+00       0.034     3325.688
     NS sqrt iter    3 1.00000000   0.197E+00       0.034     3321.695
     NS sqrt iter    4 1.00000000   0.242E-01       0.034     3329.821
     NS sqrt iter    5 1.00000000   0.980E-04       0.034     3328.256
     NS sqrt iter    6 1.00000000   0.184E-10       0.017     2132.418
     Symmetrizing Results
     Final NS sqrt iter    6 1.00000000   0.204E-11

     Est. extremal eigenvalues     -0.83326     2.59962  converged:  T
     TRS4 it   1 1.00000000   0.286E+02       0.007     2136.217   0.100E-11
     TRS4 it   2 1.00000000   0.235E+02       0.013     2168.842   0.100E-11
     TRS4 it   3 1.00000000   0.154E+02       0.013     2146.543   0.100E-11
     TRS4 it   4 1.00000000   0.893E+01       0.013     2177.716   0.100E-11
     TRS4 it   5 1.00000000   0.367E+01       0.013     2161.095   0.100E-11
     TRS4 it   6 1.00000000   0.916E+00       0.013     2167.737   0.100E-11
     TRS4 it   7 1.00000000   0.104E+00       0.013     2164.147   0.100E-11
     TRS4 it   8 1.00000000   0.197E-02       0.013     2161.675   0.100E-11
     TRS4 it   9 1.00000000   0.935E-06       0.013     2167.303   0.100E-11
     TRS4 it  10 1.00000000   0.483E-12       0.013     2159.911   0.100E-11
     Final TRS4 iteration   10 1.00000000   0.483E-12
     Chemical potential (mu):       0.05590
 
 PAO| energy:  -191.25395010553899      penalty:   5.0009661826384182E-004
 PAO|LS| adapt:  T T F
 PAO|LS| adapt: scan_steps:    0.0000000000000000       0.39355326734330198        0.0000000000000000     
 PAO|LS| adapt: energies:   -191.24955381209807       -191.25395010553899        0.0000000000000000     
 PAO| ======================= Iteration:        18 =============================

     Lanczos converged:  T threshold:   0.100E-02
     Est. extremal eigenvalues:    0.471E+01   0.133E+00
     Est. condition number :    0.353E+02

 Order=           3
     NS sqrt iter    1 1.00000000   0.121E+01       0.021     2667.590
     NS sqrt iter    2 1.00000000   0.615E+00       0.034     3336.170
     NS sqrt iter    3 1.00000000   0.195E+00       0.034     3310.864
     NS sqrt iter    4 1.00000000   0.234E-01       0.034     3307.529
     NS sqrt iter    5 1.00000000   0.898E-04       0.034     3322.734
     NS sqrt iter    6 1.00000000   0.144E-10       0.016     2123.025
     Symmetrizing Results
     Final NS sqrt iter    6 1.00000000   0.184E-11

     Est. extremal eigenvalues     -0.83317     2.59777  converged:  T
     TRS4 it   1 1.00000000   0.286E+02       0.007     2094.668   0.100E-11
     TRS4 it   2 1.00000000   0.235E+02       0.013     2158.702   0.100E-11
     TRS4 it   3 1.00000000   0.154E+02       0.013     2161.215   0.100E-11
     TRS4 it   4 1.00000000   0.889E+01       0.013     2180.299   0.100E-11
     TRS4 it   5 1.00000000   0.363E+01       0.013     2150.224   0.100E-11
     TRS4 it   6 1.00000000   0.897E+00       0.013     2181.255   0.100E-11
     TRS4 it   7 1.00000000   0.100E+00       0.013     2160.197   0.100E-11
     TRS4 it   8 1.00000000   0.181E-02       0.013     2148.322   0.100E-11
     TRS4 it   9 1.00000000   0.798E-06       0.013     2160.682   0.100E-11
     TRS4 it  10 1.00000000   0.348E-12       0.013     2176.068   0.100E-11
     Final TRS4 iteration   10 1.00000000   0.348E-12
     Chemical potential (mu):       0.05711
 
 PAO| energy:  -191.18093778347875      penalty:   5.0167751772598585E-004
 PAO|LS| adapt:  T T T
 PAO|LS| adapt: scan_steps:    0.0000000000000000       0.39355326734330198       0.78710653468660396     
 PAO|LS| adapt: energies:   -191.24955381209807       -191.25395010553899       -191.18093778347875     
 PAO|LS| adapt: suggested step_size:   0.21912783626935051     
 PAO|LS| adapt: predicted energy  -191.26155287583950     
 PAO| ======================= Iteration:        19 =============================

     Lanczos converged:  T threshold:   0.100E-02
     Est. extremal eigenvalues:    0.476E+01   0.133E+00
     Est. condition number :    0.359E+02

 Order=           3
     NS sqrt iter    1 1.00000000   0.122E+01       0.022     2640.503
     NS sqrt iter    2 1.00000000   0.621E+00       0.034     3328.396
     NS sqrt iter    3 1.00000000   0.198E+00       0.034     3340.726
     NS sqrt iter    4 1.00000000   0.245E-01       0.034     3350.997
     NS sqrt iter    5 1.00000000   0.102E-03       0.034     3319.209
     NS sqrt iter    6 1.00000000   0.206E-10       0.018     2165.679
     Symmetrizing Results
     Final NS sqrt iter    6 1.00000000   0.210E-11

     Est. extremal eigenvalues     -0.83325     2.60044  converged:  T
     TRS4 it   1 1.00000000   0.286E+02       0.007     2104.768   0.100E-11
     TRS4 it   2 1.00000000   0.236E+02       0.013     2167.823   0.100E-11
     TRS4 it   3 1.00000000   0.155E+02       0.013     2177.781   0.100E-11
     TRS4 it   4 1.00000000   0.895E+01       0.013     2174.809   0.100E-11
     TRS4 it   5 1.00000000   0.369E+01       0.013     2185.216   0.100E-11
     TRS4 it   6 1.00000000   0.925E+00       0.013     2160.016   0.100E-11
     TRS4 it   7 1.00000000   0.106E+00       0.013     2170.689   0.100E-11
     TRS4 it   8 1.00000000   0.204E-02       0.013     2161.191   0.100E-11
     TRS4 it   9 1.00000000   0.100E-05       0.013     2153.920   0.100E-11
     TRS4 it  10 1.00000000   0.547E-12       0.013     2134.072   0.100E-11
     Final TRS4 iteration   10 1.00000000   0.547E-12
     Chemical potential (mu):       0.05538
 
 PAO| energy:  -191.26153758935487      penalty:   5.0193286454400265E-004
 PAO|CG| trace_G_new    2.1131708403641872E-002
 PAO|CG| trace_G_prev   0.10956833267166818     
 PAO|CG| trace_G_mix   -3.5823014103715392E-004
 PAO|CG| trace_D   0.16358284031131229     
 PAO|CG| trace_D_Gnew  -5.2008917303283632E-005
 PAO|CG| beta:   0.19613275132218769     
 PAO| norm of gradient:  0.14536749431575779     
 PAO| energy improvement:  -1.1983777256801886E-002
 PAO| step     19                 -191.261537589  0.284E-03  0.219E+00     1.465
 PAO|LS| adapt:  T F F
 PAO|LS| adapt: scan_steps:    0.0000000000000000        0.0000000000000000        0.0000000000000000     
 PAO|LS| adapt: energies:   -191.26153758935487        0.0000000000000000        0.0000000000000000     
 PAO| ======================= Iteration:        20 =============================

     Lanczos converged:  T threshold:   0.100E-02
     Est. extremal eigenvalues:    0.475E+01   0.132E+00
     Est. condition number :    0.359E+02

 Order=           3
     NS sqrt iter    1 1.00000000   0.122E+01       0.021     2680.470
     NS sqrt iter    2 1.00000000   0.621E+00       0.034     3302.545
     NS sqrt iter    3 1.00000000   0.198E+00       0.034     3348.163
     NS sqrt iter    4 1.00000000   0.245E-01       0.034     3329.799
     NS sqrt iter    5 1.00000000   0.102E-03       0.034     3339.080
     NS sqrt iter    6 1.00000000   0.206E-10       0.018     2145.560
     Symmetrizing Results
     Final NS sqrt iter    6 1.00000000   0.211E-11

     Est. extremal eigenvalues     -0.83325     2.59926  converged:  T
     TRS4 it   1 1.00000000   0.286E+02       0.007     2101.803   0.100E-11
     TRS4 it   2 1.00000000   0.235E+02       0.013     2162.969   0.100E-11
     TRS4 it   3 1.00000000   0.155E+02       0.013     2157.349   0.100E-11
     TRS4 it   4 1.00000000   0.894E+01       0.013     2171.417   0.100E-11
     TRS4 it   5 1.00000000   0.368E+01       0.013     2153.604   0.100E-11
     TRS4 it   6 1.00000000   0.921E+00       0.013     2163.282   0.100E-11
     TRS4 it   7 1.00000000   0.105E+00       0.013     2144.445   0.100E-11
     TRS4 it   8 1.00000000   0.201E-02       0.013     2168.970   0.100E-11
     TRS4 it   9 1.00000000   0.974E-06       0.013     2149.994   0.100E-11
     TRS4 it  10 1.00000000   0.506E-12       0.013     2143.521   0.100E-11
     Final TRS4 iteration   10 1.00000000   0.506E-12
     Chemical potential (mu):       0.05558
 
 PAO| energy:  -191.26526946470193      penalty:   4.9251082042479303E-004
 PAO|LS| adapt:  T T F
 PAO|LS| adapt: scan_steps:    0.0000000000000000       0.21912783626935051        0.0000000000000000     
 PAO|LS| adapt: energies:   -191.26153758935487       -191.26526946470193        0.0000000000000000     
 PAO| ======================= Iteration:        21 =============================

     Lanczos converged:  T threshold:   0.100E-02
     Est. extremal eigenvalues:    0.475E+01   0.132E+00
     Est. condition number :    0.359E+02

 Order=           3
     NS sqrt iter    1 1.00000000   0.122E+01       0.021     2657.055
     NS sqrt iter    2 1.00000000   0.621E+00       0.034     3329.724
     NS sqrt iter    3 1.00000000   0.198E+00       0.034     3310.447
     NS sqrt iter    4 1.00000000   0.245E-01       0.034     3317.208
     NS sqrt iter    5 1.00000000   0.102E-03       0.034     3313.834
     NS sqrt iter    6 1.00000000   0.205E-10       0.018     2151.609
     Symmetrizing Results
     Final NS sqrt iter    6 1.00000000   0.210E-11

     Est. extremal eigenvalues     -0.83325     2.59808  converged:  T
     TRS4 it   1 1.00000000   0.286E+02       0.007     2118.982   0.100E-11
     TRS4 it   2 1.00000000   0.235E+02       0.013     2181.306   0.100E-11
     TRS4 it   3 1.00000000   0.154E+02       0.013     2165.942   0.100E-11
     TRS4 it   4 1.00000000   0.893E+01       0.013     2168.560   0.100E-11
     TRS4 it   5 1.00000000   0.367E+01       0.013     2166.331   0.100E-11
     TRS4 it   6 1.00000000   0.917E+00       0.013     2143.439   0.100E-11
     TRS4 it   7 1.00000000   0.104E+00       0.013     2135.571   0.100E-11
     TRS4 it   8 1.00000000   0.198E-02       0.013     2166.600   0.100E-11
     TRS4 it   9 1.00000000   0.945E-06       0.013     2173.980   0.100E-11
     TRS4 it  10 1.00000000   0.519E-12       0.013     2174.633   0.100E-11
     Final TRS4 iteration   10 1.00000000   0.519E-12
     Chemical potential (mu):       0.05577
 
 PAO| energy:  -191.26718628438729      penalty:   4.8349157443817515E-004
 PAO|LS| adapt:  T T F
 PAO|LS| adapt: scan_steps:    0.0000000000000000       0.43825567253870101        0.0000000000000000     
 PAO|LS| adapt: energies:   -191.26153758935487       -191.26718628438729        0.0000000000000000     
 PAO| ======================= Iteration:        22 =============================

     Lanczos converged:  T threshold:   0.100E-02
     Est. extremal eigenvalues:    0.474E+01   0.132E+00
     Est. condition number :    0.359E+02

 Order=           3
     NS sqrt iter    1 1.00000000   0.122E+01       0.022     2638.848
     NS sqrt iter    2 1.00000000   0.620E+00       0.034     3335.472
     NS sqrt iter    3 1.00000000   0.198E+00       0.034     3330.717
     NS sqrt iter    4 1.00000000   0.245E-01       0.034     3307.488
     NS sqrt iter    5 1.00000000   0.102E-03       0.034     3340.897
     NS sqrt iter    6 1.00000000   0.205E-10       0.017     2153.617
     Symmetrizing Results
     Final NS sqrt iter    6 1.00000000   0.211E-11

     Est. extremal eigenvalues     -0.83324     2.59572  converged:  T
     TRS4 it   1 1.00000000   0.286E+02       0.007     2123.821   0.100E-11
     TRS4 it   2 1.00000000   0.235E+02       0.013     2167.008   0.100E-11
     TRS4 it   3 1.00000000   0.154E+02       0.013     2163.469   0.100E-11
     TRS4 it   4 1.00000000   0.891E+01       0.013     2147.079   0.100E-11
     TRS4 it   5 1.00000000   0.365E+01       0.013     2145.043   0.100E-11
     TRS4 it   6 1.00000000   0.909E+00       0.013     2161.614   0.100E-11
     TRS4 it   7 1.00000000   0.103E+00       0.013     2150.099   0.100E-11
     TRS4 it   8 1.00000000   0.192E-02       0.013     2176.101   0.100E-11
     TRS4 it   9 1.00000000   0.888E-06       0.013     2174.128   0.100E-11
     TRS4 it  10 1.00000000   0.416E-12       0.013     2172.034   0.100E-11
     Final TRS4 iteration   10 1.00000000   0.416E-12
     Chemical potential (mu):       0.05617
 
 PAO| energy:  -191.26549479819678      penalty:   4.6663676342740916E-004
 PAO|LS| Need extra step
 PAO|LS| adapt:  T T T
 PAO|LS| adapt: scan_steps:    0.0000000000000000       0.43825567253870101       0.87651134507740203     
 PAO|LS| adapt: energies:   -191.26153758935487       -191.26718628438729       -191.26549479819678     
 PAO|LS| adapt: suggested step_size:   0.55639098621257455     
 PAO|LS| adapt: predicted energy  -191.26745295869245     
 PAO| ======================= Iteration:        23 =============================

     Lanczos converged:  T threshold:   0.100E-02
     Est. extremal eigenvalues:    0.475E+01   0.132E+00
     Est. condition number :    0.359E+02

 Order=           3
     NS sqrt iter    1 1.00000000   0.122E+01       0.021     2665.502
     NS sqrt iter    2 1.00000000   0.621E+00       0.034     3372.834
     NS sqrt iter    3 1.00000000   0.198E+00       0.034     3331.516
     NS sqrt iter    4 1.00000000   0.245E-01       0.034     3339.236
     NS sqrt iter    5 1.00000000   0.102E-03       0.034     3345.026
     NS sqrt iter    6 1.00000000   0.205E-10       0.017     2160.327
     Symmetrizing Results
     Final NS sqrt iter    6 1.00000000   0.211E-11

     Est. extremal eigenvalues     -0.83325     2.59745  converged:  T
     TRS4 it   1 1.00000000   0.286E+02       0.007     2106.488   0.100E-11
     TRS4 it   2 1.00000000   0.235E+02       0.013     2144.958   0.100E-11
     TRS4 it   3 1.00000000   0.154E+02       0.013     2153.757   0.100E-11
     TRS4 it   4 1.00000000   0.892E+01       0.013     2166.613   0.100E-11
     TRS4 it   5 1.00000000   0.367E+01       0.013     2187.155   0.100E-11
     TRS4 it   6 1.00000000   0.915E+00       0.013     2167.731   0.100E-11
     TRS4 it   7 1.00000000   0.104E+00       0.013     2150.931   0.100E-11
     TRS4 it   8 1.00000000   0.196E-02       0.013     2147.342   0.100E-11
     TRS4 it   9 1.00000000   0.929E-06       0.013     2156.873   0.100E-11
     TRS4 it  10 1.00000000   0.465E-12       0.013     2153.513   0.100E-11
     Final TRS4 iteration   10 1.00000000   0.465E-12
     Chemical potential (mu):       0.05588
 
 PAO| energy:  -191.26745963640712      penalty:   4.7879391554063677E-004
 PAO|CG| trace_G_new    1.5381593477404913E-002
 PAO|CG| trace_G_prev    2.1131708403641872E-002
 PAO|CG| trace_G_mix    1.1321074781950178E-004
 PAO|CG| trace_D    2.7444823592564165E-002
 PAO|CG| trace_D_Gnew  -4.7712238043363863E-005
 PAO|CG| beta:   0.72253423329246935     
 PAO| norm of gradient:  0.12402255229354422     
 PAO| energy improvement:  -5.9220470522518553E-003
 PAO| step     23                 -191.267459636  0.242E-03  0.556E+00     1.903
 PAO|LS| adapt:  T F F
 PAO|LS| adapt: scan_steps:    0.0000000000000000        0.0000000000000000        0.0000000000000000     
 PAO|LS| adapt: energies:   -191.26745963640712        0.0000000000000000        0.0000000000000000     
 PAO| ======================= Iteration:        24 =============================

     Lanczos converged:  T threshold:   0.100E-02
     Est. extremal eigenvalues:    0.474E+01   0.132E+00
     Est. condition number :    0.359E+02

 Order=           3
     NS sqrt iter    1 1.00000000   0.122E+01       0.021     2652.949
     NS sqrt iter    2 1.00000000   0.619E+00       0.034     3347.721
     NS sqrt iter    3 1.00000000   0.198E+00       0.034     3326.147
     NS sqrt iter    4 1.00000000   0.245E-01       0.034     3328.447
     NS sqrt iter    5 1.00000000   0.102E-03       0.034     3324.559
     NS sqrt iter    6 1.00000000   0.207E-10       0.018     2138.706
     Symmetrizing Results
     Final NS sqrt iter    6 1.00000000   0.210E-11

     Est. extremal eigenvalues     -0.83324     2.59430  converged:  T
     TRS4 it   1 1.00000000   0.286E+02       0.007     2081.243   0.100E-11
     TRS4 it   2 1.00000000   0.235E+02       0.013     2177.550   0.100E-11
     TRS4 it   3 1.00000000   0.154E+02       0.013     2151.826   0.100E-11
     TRS4 it   4 1.00000000   0.890E+01       0.013     2145.920   0.100E-11
     TRS4 it   5 1.00000000   0.365E+01       0.013     2188.600   0.100E-11
     TRS4 it   6 1.00000000   0.906E+00       0.013     2182.243   0.100E-11
     TRS4 it   7 1.00000000   0.102E+00       0.013     2163.548   0.100E-11
     TRS4 it   8 1.00000000   0.190E-02       0.013     2165.754   0.100E-11
     TRS4 it   9 1.00000000   0.868E-06       0.013     2167.211   0.100E-11
     TRS4 it  10 1.00000000   0.419E-12       0.013     2172.840   0.100E-11
     Final TRS4 iteration   10 1.00000000   0.419E-12
     Chemical potential (mu):       0.05631
 
 PAO| energy:  -191.27012102019415      penalty:   4.4305264960130242E-004
 PAO|LS| adapt:  T T F
 PAO|LS| adapt: scan_steps:    0.0000000000000000       0.55639098621257455        0.0000000000000000     
 PAO|LS| adapt: energies:   -191.26745963640712       -191.27012102019415        0.0000000000000000     
 PAO| ======================= Iteration:        25 =============================

     Lanczos converged:  T threshold:   0.100E-02
     Est. extremal eigenvalues:    0.472E+01   0.131E+00
     Est. condition number :    0.360E+02

 Order=           3
     NS sqrt iter    1 1.00000000   0.121E+01       0.022     2639.094
     NS sqrt iter    2 1.00000000   0.618E+00       0.034     3320.920
     NS sqrt iter    3 1.00000000   0.198E+00       0.034     3317.886
     NS sqrt iter    4 1.00000000   0.245E-01       0.034     3310.742
     NS sqrt iter    5 1.00000000   0.102E-03       0.034     3312.680
     NS sqrt iter    6 1.00000000   0.209E-10       0.018     2157.449
     Symmetrizing Results
     Final NS sqrt iter    6 1.00000000   0.209E-11

     Est. extremal eigenvalues     -0.83322     2.59104  converged:  T
     TRS4 it   1 1.00000000   0.286E+02       0.007     2097.030   0.100E-11
     TRS4 it   2 1.00000000   0.235E+02       0.013     2159.624   0.100E-11
     TRS4 it   3 1.00000000   0.154E+02       0.013     2189.198   0.100E-11
     TRS4 it   4 1.00000000   0.888E+01       0.013     2166.427   0.100E-11
     TRS4 it   5 1.00000000   0.363E+01       0.013     2172.737   0.100E-11
     TRS4 it   6 1.00000000   0.898E+00       0.013     2190.488   0.100E-11
     TRS4 it   7 1.00000000   0.100E+00       0.013     2178.613   0.100E-11
     TRS4 it   8 1.00000000   0.183E-02       0.013     2160.905   0.100E-11
     TRS4 it   9 1.00000000   0.811E-06       0.013     2174.784   0.100E-11
     TRS4 it  10 1.00000000   0.343E-12       0.013     2177.536   0.100E-11
     Final TRS4 iteration   10 1.00000000   0.343E-12
     Chemical potential (mu):       0.05675
 
 PAO| energy:  -191.26076983722336      penalty:   4.1080298330880622E-004
 PAO|LS| adapt:  T T T
 PAO|LS| adapt: scan_steps:    0.0000000000000000       0.55639098621257455        1.1127819724251491     
 PAO|LS| adapt: energies:   -191.26745963640712       -191.27012102019415       -191.26076983722336     
 PAO|LS| adapt: suggested step_size:   0.40146389858601633     
 PAO|LS| adapt: predicted energy  -191.27058671389244     
 PAO| ======================= Iteration:        26 =============================

     Lanczos converged:  T threshold:   0.100E-02
     Est. extremal eigenvalues:    0.474E+01   0.132E+00
     Est. condition number :    0.359E+02

 Order=           3
     NS sqrt iter    1 1.00000000   0.122E+01       0.021     2672.221
     NS sqrt iter    2 1.00000000   0.620E+00       0.034     3331.462
     NS sqrt iter    3 1.00000000   0.198E+00       0.034     3310.516
     NS sqrt iter    4 1.00000000   0.245E-01       0.034     3335.249
     NS sqrt iter    5 1.00000000   0.102E-03       0.034     3306.293
     NS sqrt iter    6 1.00000000   0.206E-10       0.018     2136.492
     Symmetrizing Results
     Final NS sqrt iter    6 1.00000000   0.211E-11

     Est. extremal eigenvalues     -0.83324     2.59519  converged:  T
     TRS4 it   1 1.00000000   0.286E+02       0.007     2102.063   0.100E-11
     TRS4 it   2 1.00000000   0.235E+02       0.013     2157.202   0.100E-11
     TRS4 it   3 1.00000000   0.154E+02       0.013     2171.527   0.100E-11
     TRS4 it   4 1.00000000   0.891E+01       0.013     2161.012   0.100E-11
     TRS4 it   5 1.00000000   0.365E+01       0.013     2167.959   0.100E-11
     TRS4 it   6 1.00000000   0.908E+00       0.013     2149.778   0.100E-11
     TRS4 it   7 1.00000000   0.103E+00       0.013     2152.329   0.100E-11
     TRS4 it   8 1.00000000   0.191E-02       0.013     2171.656   0.100E-11
     TRS4 it   9 1.00000000   0.885E-06       0.013     2167.214   0.100E-11
     TRS4 it  10 1.00000000   0.412E-12       0.013     2150.083   0.100E-11
     Final TRS4 iteration   10 1.00000000   0.412E-12
     Chemical potential (mu):       0.05619
 
 PAO| energy:  -191.27057507939668      penalty:   4.5264741370367785E-004
 PAO|CG| trace_G_new    1.1381387282961260E-002
 PAO|CG| trace_G_prev    1.5381593477404913E-002
 PAO|CG| trace_G_mix    1.9915660134878942E-004
 PAO|CG| trace_D    2.9778268021742826E-002
 PAO|CG| trace_D_Gnew  -6.2383680508458858E-005
 PAO|CG| beta:   0.72698779213212361     
 PAO| norm of gradient:  0.10668358488053005     
 PAO| energy improvement:  -3.1154429895536850E-003
 PAO| step     26                 -191.270575079  0.208E-03  0.401E+00     1.469
 PAO|LS| adapt:  T F F
 PAO|LS| adapt: scan_steps:    0.0000000000000000        0.0000000000000000        0.0000000000000000     
 PAO|LS| adapt: energies:   -191.27057507939668        0.0000000000000000        0.0000000000000000     
 PAO| ======================= Iteration:        27 =============================

     Lanczos converged:  T threshold:   0.100E-02
     Est. extremal eigenvalues:    0.473E+01   0.132E+00
     Est. condition number :    0.359E+02

 Order=           3
     NS sqrt iter    1 1.00000000   0.121E+01       0.022     2644.992
     NS sqrt iter    2 1.00000000   0.618E+00       0.034     3324.334
     NS sqrt iter    3 1.00000000   0.197E+00       0.034     3324.422
     NS sqrt iter    4 1.00000000   0.244E-01       0.034     3323.476
     NS sqrt iter    5 1.00000000   0.102E-03       0.034     3323.097
     NS sqrt iter    6 1.00000000   0.208E-10       0.017     2165.463
     Symmetrizing Results
     Final NS sqrt iter    6 1.00000000   0.208E-11

     Est. extremal eigenvalues     -0.83325     2.59392  converged:  T
     TRS4 it   1 1.00000000   0.286E+02       0.007     2106.647   0.100E-11
     TRS4 it   2 1.00000000   0.235E+02       0.013     2155.929   0.100E-11
     TRS4 it   3 1.00000000   0.154E+02       0.013     2151.470   0.100E-11
     TRS4 it   4 1.00000000   0.889E+01       0.013     2147.632   0.100E-11
     TRS4 it   5 1.00000000   0.364E+01       0.013     2155.178   0.100E-11
     TRS4 it   6 1.00000000   0.902E+00       0.013     2160.085   0.100E-11
     TRS4 it   7 1.00000000   0.101E+00       0.013     2180.833   0.100E-11
     TRS4 it   8 1.00000000   0.186E-02       0.013     2161.778   0.100E-11
     TRS4 it   9 1.00000000   0.835E-06       0.013     2162.733   0.100E-11
     TRS4 it  10 1.00000000   0.391E-12       0.013     2174.983   0.100E-11
     Final TRS4 iteration   10 1.00000000   0.391E-12
     Chemical potential (mu):       0.05659
 
 PAO| energy:  -191.27288621135060      penalty:   4.2066626310059647E-004
 PAO|LS| adapt:  T T F
 PAO|LS| adapt: scan_steps:    0.0000000000000000       0.40146389858601633        0.0000000000000000     
 PAO|LS| adapt: energies:   -191.27057507939668       -191.27288621135060        0.0000000000000000     
 PAO| ======================= Iteration:        28 =============================

     Lanczos converged:  T threshold:   0.100E-02
     Est. extremal eigenvalues:    0.472E+01   0.131E+00
     Est. condition number :    0.360E+02

 Order=           3
     NS sqrt iter    1 1.00000000   0.121E+01       0.021     2652.242
     NS sqrt iter    2 1.00000000   0.617E+00       0.034     3336.881
     NS sqrt iter    3 1.00000000   0.197E+00       0.034     3326.505
     NS sqrt iter    4 1.00000000   0.244E-01       0.034     3329.774
     NS sqrt iter    5 1.00000000   0.102E-03       0.034     3316.076
     NS sqrt iter    6 1.00000000   0.210E-10       0.018     2154.096
     Symmetrizing Results
     Final NS sqrt iter    6 1.00000000   0.209E-11

     Est. extremal eigenvalues     -0.83325     2.59260  converged:  T
     TRS4 it   1 1.00000000   0.286E+02       0.007     2124.702   0.100E-11
     TRS4 it   2 1.00000000   0.235E+02       0.013     2175.057   0.100E-11
     TRS4 it   3 1.00000000   0.154E+02       0.013     2146.350   0.100E-11
     TRS4 it   4 1.00000000   0.887E+01       0.013     2200.250   0.100E-11
     TRS4 it   5 1.00000000   0.363E+01       0.013     2169.515   0.100E-11
     TRS4 it   6 1.00000000   0.895E+00       0.013     2179.876   0.100E-11
     TRS4 it   7 1.00000000   0.997E-01       0.013     2160.280   0.100E-11
     TRS4 it   8 1.00000000   0.180E-02       0.013     2120.302   0.100E-11
     TRS4 it   9 1.00000000   0.789E-06       0.013     2168.737   0.100E-11
     TRS4 it  10 1.00000000   0.352E-12       0.013     2157.436   0.100E-11
     Final TRS4 iteration   10 1.00000000   0.352E-12
     Chemical potential (mu):       0.05699
 
 PAO| energy:  -191.27060763682834      penalty:   3.9097205261778080E-004
 PAO|LS| adapt:  T T T
 PAO|LS| adapt: scan_steps:    0.0000000000000000       0.40146389858601633       0.80292779717203266     
 PAO|LS| adapt: energies:   -191.27057507939668       -191.27288621135060       -191.27060763682834     
 PAO|LS| adapt: suggested step_size:   0.40288780592219642     
 PAO|LS| adapt: predicted energy  -191.27288624021918     
 PAO| ======================= Iteration:        29 =============================

     Lanczos converged:  T threshold:   0.100E-02
     Est. extremal eigenvalues:    0.473E+01   0.132E+00
     Est. condition number :    0.359E+02

 Order=           3
     NS sqrt iter    1 1.00000000   0.121E+01       0.022     2640.883
     NS sqrt iter    2 1.00000000   0.618E+00       0.034     3354.854
     NS sqrt iter    3 1.00000000   0.197E+00       0.034     3329.805
     NS sqrt iter    4 1.00000000   0.244E-01       0.034     3320.845
     NS sqrt iter    5 1.00000000   0.102E-03       0.034     3341.628
     NS sqrt iter    6 1.00000000   0.208E-10       0.018     2152.769
     Symmetrizing Results
     Final NS sqrt iter    6 1.00000000   0.208E-11

     Est. extremal eigenvalues     -0.83325     2.59392  converged:  T
     TRS4 it   1 1.00000000   0.286E+02       0.007     2115.306   0.100E-11
     TRS4 it   2 1.00000000   0.235E+02       0.013     2149.315   0.100E-11
     TRS4 it   3 1.00000000   0.154E+02       0.013     2154.199   0.100E-11
     TRS4 it   4 1.00000000   0.889E+01       0.013     2176.517   0.100E-11
     TRS4 it   5 1.00000000   0.364E+01       0.013     2149.693   0.100E-11
     TRS4 it   6 1.00000000   0.902E+00       0.013     2150.075   0.100E-11
     TRS4 it   7 1.00000000   0.101E+00       0.013     2183.330   0.100E-11
     TRS4 it   8 1.00000000   0.186E-02       0.013     2171.086   0.100E-11
     TRS4 it   9 1.00000000   0.835E-06       0.013     2158.997   0.100E-11
[...]
     TRS4 it   5 1.00000000   0.413E+01       0.013     2185.454   0.100E-11
     TRS4 it   6 1.00000000   0.126E+01       0.013     2177.588   0.100E-11
     TRS4 it   7 1.00000000   0.216E+00       0.013     2171.442   0.100E-11
     TRS4 it   8 1.00000000   0.967E-02       0.013     2165.072   0.100E-11
     TRS4 it   9 1.00000000   0.264E-04       0.013     2159.685   0.100E-11
     TRS4 it  10 1.00000000   0.344E-09       0.013     2158.437   0.100E-11
     TRS4 it  11 1.00000000   0.107E-13       0.013     2159.112   0.100E-11
     Final TRS4 iteration   11 1.00000000   0.107E-13
     Chemical potential (mu):       0.02392
 
 PAO| energy:  -190.87911628253156      penalty:   2.4421128254770132E-008
 PAO| Writing restart file.
     Est. extremal eigenvalues     -0.83263     2.58800  converged:  T
     TRS4 it   1 1.00000000   0.288E+02       0.007     2100.097   0.100E-11
     TRS4 it   2 1.00000000   0.237E+02       0.013     2151.909   0.100E-11
     TRS4 it   3 1.00000000   0.156E+02       0.013     2159.389   0.100E-11
     TRS4 it   4 1.00000000   0.923E+01       0.013     2190.578   0.100E-11
     TRS4 it   5 1.00000000   0.413E+01       0.013     2145.200   0.100E-11
     TRS4 it   6 1.00000000   0.126E+01       0.013     2160.580   0.100E-11
     TRS4 it   7 1.00000000   0.216E+00       0.013     2151.854   0.100E-11
     TRS4 it   8 1.00000000   0.967E-02       0.013     2172.661   0.100E-11
     TRS4 it   9 1.00000000   0.264E-04       0.013     2158.005   0.100E-11
     TRS4 it  10 1.00000000   0.344E-09       0.013     2168.882   0.100E-11
     TRS4 it  11 1.00000000   0.107E-13       0.013     2146.452   0.100E-11
     Final TRS4 iteration   11 1.00000000   0.107E-13
     Chemical potential (mu):       0.02392

 SCF     1     -1103.052826125     -1103.052826125    1.770358

*********************************************************
 Using MIXING_FRACTION=0.450 to mix KS matrix:  iscf=  2
 KS_nw=0.450*KS + 0.550*KS_old
*********************************************************
     Est. extremal eigenvalues     -0.83263     2.58800  converged:  T
     TRS4 it   1 1.00000000   0.288E+02       0.007     2144.058   0.100E-11
     TRS4 it   2 1.00000000   0.237E+02       0.013     2160.633   0.100E-11
     TRS4 it   3 1.00000000   0.156E+02       0.013     2156.156   0.100E-11
     TRS4 it   4 1.00000000   0.923E+01       0.013     2168.925   0.100E-11
     TRS4 it   5 1.00000000   0.413E+01       0.013     2179.007   0.100E-11
     TRS4 it   6 1.00000000   0.126E+01       0.013     2171.199   0.100E-11
     TRS4 it   7 1.00000000   0.216E+00       0.013     2152.363   0.100E-11
     TRS4 it   8 1.00000000   0.967E-02       0.013     2151.405   0.100E-11
     TRS4 it   9 1.00000000   0.264E-04       0.013     2148.974   0.100E-11
     TRS4 it  10 1.00000000   0.344E-09       0.013     2156.167   0.100E-11
     TRS4 it  11 1.00000000   0.213E-13       0.013     2174.708   0.100E-11
     Final TRS4 iteration   11 1.00000000   0.213E-13
     Chemical potential (mu):       0.02392

 SCF     2     -1103.052826125        -0.000000000    1.764736


 SCF run converged in     2 steps.

 PAO| Storing density matrix for ASPC guess in slot:           1

 ENERGY| Total FORCE_EVAL ( QS ) energy [a.u.]:            -1103.052826124625426

 -------------------------------------------------------------------------------
 -                                                                             -
 -                                DBCSR STATISTICS                             -
 -                                                                             -
 -------------------------------------------------------------------------------
 COUNTER                                    TOTAL       BLAS       SMM       ACC
 flops     5 x     5 x     4             26419200       0.0%    100.0%      0.0%     
 flops    13 x     5 x     4             34078720       0.0%    100.0%      0.0%     
 flops     5 x    13 x     4             34078720       0.0%    100.0%      0.0%     
 flops    13 x    13 x     4             44994560       0.0%    100.0%      0.0%     
 flops     4 x     4 x     5           6550978560       0.0%    100.0%      0.0%     
 flops     5 x     4 x     5           8064204800       0.0%    100.0%      0.0%     
 flops     4 x     4 x    13           8516272128       0.0%    100.0%      0.0%     
 flops    13 x     4 x     5          10483466240       0.0%    100.0%      0.0%     
 flops     5 x     4 x    13          10483466240       0.0%    100.0%      0.0%     
 flops    13 x     4 x    13          13628506112       0.0%    100.0%      0.0%     
 flops     5 x     4 x     4         406171343360       0.0%    100.0%      0.0%     
 flops    13 x     4 x     4         539544520320       0.0%    100.0%      0.0%     
 flops     4 x     4 x     4       29919773133952       0.0%    100.0%      0.0%     
 flops inhomo. stacks                           0       0.0%      0.0%      0.0%
 flops total                        30.923355E+12       0.0%    100.0%      0.0%
 flops max/rank                    976.154597E+09       0.0%    100.0%      0.0%
 matmuls inhomo. stacks                         0       0.0%      0.0%      0.0%
 matmuls total                       237736214701       0.0%    100.0%      0.0%
 number of processed stacks             242864739       0.0%    100.0%      0.0%
 average stack size                                     0.0     978.9       0.0
 marketing flops                    53.636193E+12
 -------------------------------------------------------------------------------
 # multiplications                          50308
 max memory usage/rank             617.320448E+06
 # max total images/rank                        2
 # max 3D layers                                1
 # MPI messages exchanged                20928128
 MPI messages size (bytes):
  total size                         2.479333E+12
  min size                           0.000000E+00
  max size                         541.696000E+03
  average size                     118.468922E+03
 MPI breakdown and total messages size (bytes):
             size <=      128              898209                    11520
       128 < size <=     8192              334635               1313937920
      8192 < size <=    32768               49411               1206221184
     32768 < size <=   131072             8987281             665635316736
    131072 < size <=  4194304            10658592            1811585047552
   4194304 < size <= 16777216                   0                        0
  16777216 < size                               0                        0
 -------------------------------------------------------------------------------

 *** WARNING in dbcsr_mm.F:301 :: Using a non-square number of MPI ranks ***
 *** might lead to poor performance. Used ranks: 32 Suggested: 36 64     ***

 -------------------------------------------------------------------------------
 -                                                                             -
 -                      DBCSR MESSAGE PASSING PERFORMANCE                      -
 -                                                                             -
 -------------------------------------------------------------------------------
 ROUTINE             CALLS      AVE VOLUME [Bytes]
 MP_Bcast               14                     12.
 MP_Allreduce       302581                     37.
 MP_Alltoall        129979                  14627.
 MP_ISend          1683184                  55183.
 MP_IRecv          1646520                  56468.
 -------------------------------------------------------------------------------

 -------------------------------------------------------------------------------
 -                                                                             -
 -                                DBM STATISTICS                               -
 -                                                                             -
 -------------------------------------------------------------------------------
    M  x    N  x    K                                          COUNT     PERCENT
 -------------------------------------------------------------------------------

 -------------------------------------------------------------------------------
 -                                                                             -
 -                                GRID STATISTICS                              -
 -                                                                             -
 -------------------------------------------------------------------------------
 LP    KERNEL             BACKEND                              COUNT     PERCENT
 2     collocate ortho    CPU                               13117568      28.83%
 2     integrate ortho    CPU                               13117568      28.83%
 3     collocate ortho    CPU                                8428752      18.53%
 3     integrate ortho    CPU                                8428752      18.53%
 4     collocate ortho    CPU                                1198448       2.63%
 4     integrate ortho    CPU                                1198448       2.63%
 0     collocate general  CPU                                   6144       0.01%
 -------------------------------------------------------------------------------

 MEMORY| Estimated peak process memory [MiB]                                 590

 -------------------------------------------------------------------------------
 -                                                                             -
 -                         MESSAGE PASSING PERFORMANCE                         -
 -                                                                             -
 -------------------------------------------------------------------------------

 ROUTINE             CALLS      AVE VOLUME [Bytes]
 MP_Group                5
 MP_Bcast           303872                   2166.
 MP_Allreduce       755992                    514.
 MP_Sync                 5
 MP_Alltoall           419                5549711.
 MP_SendRecv          1488                  18832.
 MP_ISendRecv         1488                  18832.
 MP_Wait              4218
 MP_ISend             2470                 108139.
 MP_IRecv             2470                 108153.
 -------------------------------------------------------------------------------


 -------------------------------------------------------------------------------
 -                                                                             -
 -                           R E F E R E N C E S                               -
 -                                                                             -
 -------------------------------------------------------------------------------
 
 CP2K version 2024.3 (Development Version), the CP2K developers group (2024).
 CP2K is freely available from https://www.cp2k.org/ .
 
 T. D. Kuehne, M. Iannuzzi, M. Del Ben, V. V. Rybkin, P. Seewald, F. Stein, T. 
 Laino, R. Z. Khaliullin, O. Schuett, F. Schiffmann, D. Golze, J. Wilhelm, S. 
 Chulkov, M. H. Bani-Hashemian, V. Weber, U. Borstnik, M. Taillefumier, A. S. 
 Jakobovits, A. Lazzaro, H. Pabst, T. Mueller, R. Schade, M. Guidon, S. 
 Andermatt, N. Holmberg, G. K. Schenter, A. Hehn, A. Bussy, F. Belleflamme, G. 
 Tabacchi, A. Gloess, M. Lass, I. Bethune, C. J. Mundy, C. Plessl, M. Watkins, 
 J. VandeVondele, M. Krack, J. Hutter.
 J. Chem. Phys. 152, 194103 (2020).
 CP2K: An electronic structure and molecular dynamics software package - 
 Quickstep: Efficient and accurate electronic structure calculations.
 https://doi.org/10.1063/5.0007045

 O. Schuett, J. VandeVondele.
 J. Chem. Theory Comput. 14, 4168-4175 (2018).
 Machine Learning Adaptive Basis Sets for Efficient Large Scale Density 
 Functional Theory Simulation.
 https://doi.org/10.1021/acs.jctc.8b00378

 O. Schuett, P. Messmer, J. Hutter, J. VandeVondele.
 Electronic Structure Calculations on Graphics Processing Units, 173-190 (2016).
 GPU-Accelerated Sparse Matrix-Matrix Multiplication for Linear Scaling Density 
 Functional Theory.
 https://doi.org/10.1002/9781118670712.ch8

 A. Heinecke, G. Henry, M. Hutchinson, H. Pabst.
 Proceedings of Intl. Supercomputing Conference, 981-991 (2016).
 LIBXSMM: Accelerating Small Matrix Multiplications by Runtime Code Generation.
 https://doi.org/10.1109/SC.2016.83

 J. Hutter, M. Iannuzzi, F. Schiffmann, J. VandeVondele.
 WIREs Comput Mol Sci. 4, 15-25 (2014).
 CP2K: atomistic simulations of condensed matter systems.
 https://doi.org/10.1002/wcms.1159

 U. Borstnik, J. VandeVondele, V. Weber, J. Hutter.
 Parallel Comput. 40, 47-58 (2014).
 Sparse matrix multiplication: The distributed block-compressed sparse row 
 library.
 https://doi.org/10.1016/j.parco.2014.03.012

 A. Marek, V. Blum, R. Johanni, V. Havu, B. Lang, T. Auckenthaler, A. Heinecke, 
 H. Bungartz, H. Lederer.
 J. Phys. Condens. Matter 26, 213201 (2014).
 The ELPA library: scalable parallel eigenvalue solutions for electronic 
 structure theory and computational science.
 https://doi.org/10.1088/0953-8984/26/21/213201

 J. VandeVondele, U. Borstnik, J. Hutter.
 J. Chem. Theory Comput. 8, 3565-3573 (2012).
 Linear Scaling Self-Consistent Field Calculations with Millions of Atoms in the 
 Condensed Phase.
 https://doi.org/10.1021/ct200897x

 J. VandeVondele, J. Hutter.
 J. Chem. Phys. 127, 114105 (2007).
 Gaussian basis sets for accurate calculations on molecular systems in gas and 
 condensed phases.
 https://doi.org/10.1063/1.2770708

 J. VandeVondele, M. Krack, F. Mohamed, M. Parrinello, T. Chassaing, J. Hutter.
 Comput. Phys. Commun. 167, 103-128 (2005).
 QUICKSTEP: Fast and accurate density functional calculations using a mixed 
 Gaussian and plane waves approach.
 https://doi.org/10.1016/j.cpc.2004.12.014

 M. Krack.
 Theor. Chem. Acc. 114, 145-152 (2005).
 Pseudopotentials for H to Kr optimized for gradient-corrected 
 exchange-correlation functionals.
 https://doi.org/10.1007/s00214-005-0655-y

 M. Frigo, S. G. Johnson.
 Proc. IEEE 93, 216-231 (2005).
 The design and implementation of FFTW3.
 https://doi.org/10.1109/JPROC.2004.840301

 A. M. N. Niklasson, C. J. Tymczak, M. Challacombe.
 J. Chem. Phys. 118, 8611-8620 (2003).
 Trace resetting density matrix purification in O(N) self-consistent-field 
 theory.
 https://doi.org/10.1063/1.1559913

 C. Hartwigsen, S. Goedecker, J. Hutter.
 Phys. Rev. B 58, 3641-3662 (1998).
 Relativistic separable dual-space Gaussian pseudopotentials from H to Rn.
 https://doi.org/10.1103/PhysRevB.58.3641

 G. Lippert, J. Hutter, M. Parrinello.
 Mol. Phys. 92, 477-487 (1997).
 A hybrid Gaussian and plane wave density functional scheme.
 https://doi.org/10.1080/002689797170220

 S. Goedecker, M. Teter, J. Hutter.
 Phys. Rev. B 54, 1703-1710 (1996).
 Separable dual-space Gaussian pseudopotentials.
 https://doi.org/10.1103/PhysRevB.54.1703

 J. P. Perdew, K. Burke, M. Ernzerhof.
 Phys. Rev. Lett. 77, 3865-3868 (1996).
 Generalized gradient approximation made simple.
 https://doi.org/10.1103/PhysRevLett.77.3865


 -------------------------------------------------------------------------------
 -                                                                             -
 -                                T I M I N G                                  -
 -                                                                             -
 -------------------------------------------------------------------------------
 SUBROUTINE                       CALLS  ASD         SELF TIME        TOTAL TIME
                                MAXIMUM       AVERAGE  MAXIMUM  AVERAGE  MAXIMUM
 CP2K                                 1  1.0    0.013    0.015  442.090  442.091
 qs_energies                          1  2.0    0.000    0.000  441.934  441.935
 ls_scf                               1  3.0    0.000    0.000  440.848  440.850
 pao_update                           7  4.0    0.006    0.025  410.896  410.910
 pao_calc_energy                    822  5.0    0.003    0.017  367.244  367.257
 dbcsr_multiply_generic           50308  8.4    1.382    1.465  354.055  354.280
 multiply_cannon                  50308  9.4    2.608    3.140  287.103  292.014
 multiply_cannon_loop             50308 10.4    1.878    2.096  276.436  279.800
 ls_scf_init_matrix_S               829  7.0    0.008    0.009  206.781  206.838
 pao_rebuild_S                      822  6.0    0.003    0.003  205.004  205.060
 matrix_sqrt_Newton_Schulz          829  8.0    0.170    0.285  191.113  191.171
 multiply_cannon_multrec         402464 11.4  177.879  179.682  178.702  180.482
 pao_dm_trs4                        822  6.0    0.006    0.007  161.866  161.898
 density_matrix_trs4                837  7.0    0.213    0.359  155.845  155.896
 mp_waitall_1                   3221460 12.6   94.496  101.201   94.496  101.201
 multiply_cannon_metrocomm3      402464 11.4    0.700    0.737   76.397   80.926
 make_m2s                        100616  9.4    0.550    0.766   51.821   52.840
 make_images                     100616 10.4    7.382    7.528   50.447   51.561
 arnoldi_extremal                  1666  8.5    0.013    0.015   49.598   49.663
 arnoldi_normal_ev                 1666  9.5    0.033    0.054   49.582   49.646
 build_subspace                    4885 10.6    0.301    0.324   43.791   43.821
 pao_calc_AB                       1088  5.8    0.002    0.002   43.183   43.198
 pao_calc_AB_equi                  1088  6.8    0.040    0.100   43.181   43.196
 pao_calc_grad_lnv_wrt_AB           265  7.0    0.020    0.023   42.777   42.804
 dbcsr_matrix_vector_mult        149882 11.6    0.642    0.965   41.377   41.669
 dbcsr_matrix_vector_mult_local  149882 12.6   35.271   35.771   35.438   35.938
 ls_scf_main                          7  4.0    0.000    0.001   26.460   26.461
 make_images_data                100616 11.4    0.869    1.065   22.381   24.898
 ls_scf_dm_to_ks                     15  5.0    0.000    0.000   23.439   23.442
 hybrid_alltoall_any             102269 12.3    0.906    1.819   17.583   21.773
 matrix_qs_to_ls                   1666  7.5    0.017    0.022   17.692   17.758
 mp_sum_l                        205535  9.5    7.571   14.999    7.571   14.999
 qs_ks_update_qs_env                 16  6.0    0.000    0.000   13.946   13.950
 rebuild_ks_matrix                   16  7.0    0.000    0.000   13.934   13.939
 qs_ks_build_kohn_sham_matrix        16  8.0    0.003    0.003   13.934   13.939
 calculate_norms                 751104 11.4   11.615   12.585   11.615   12.585
 make_images_pack                100616 11.4   11.102   11.494   11.239   11.632
 qs_rho_update_rho_low               16  6.0    0.000    0.000   10.969   10.971
 calculate_rho_elec                  16  7.0    0.005    0.006   10.969   10.971
 sum_up_and_integrate                16  9.0    0.000    0.001   10.558   10.562
 integrate_v_rspace                  16 10.0    0.000    0.001   10.543   10.549
 dbcsr_multiply_generic_mpsum_f   36903  9.5    0.027    0.032    4.433   10.158
 grid_collocate_task_list            16  8.0    9.732    9.871    9.732    9.871
 grid_integrate_task_list            16 11.0    9.285    9.433    9.285    9.433
 -------------------------------------------------------------------------------

 The number of warnings for this run is : 1
 
 -------------------------------------------------------------------------------
  **** **** ******  **  PROGRAM ENDED AT                 2024-09-24 06:40:57.793
 ***** ** ***  *** **   PROGRAM RAN ON                                    moritz
 **    ****   ******    PROGRAM RAN BY                                       ole
 ***** **    ** ** **   PROGRAM PROCESS ID                                170382
  **** **  *******  **  PROGRAM STOPPED IN /home/ole/git/pao_ml_equivar/64H2O_MD
                                           /Frame6700
