 DBCSR| CPU Multiplication driver                                           XSMM (U)
 DBCSR| Multrec recursion limit                                              512 (U)
 DBCSR| Multiplication stack size                                           1000 (D)
 DBCSR| Maximum elements for images                                    UNLIMITED (U)
 DBCSR| Multiplicative factor virtual images                                   1 (U)
 DBCSR| Use multiplication densification                                       T (D)
 DBCSR| Multiplication size stacks                                             3 (U)
 DBCSR| Use memory pool for CPU allocation                                     F (U)
 DBCSR| Number of 3D layers                                               SINGLE (U)
 DBCSR| Use MPI memory allocation                                              F (U)
 DBCSR| Use RMA algorithm                                                      F (U)
 DBCSR| Use Communication thread                                               T (U)
 DBCSR| Communication thread load                                             87 (D)
 DBCSR| MPI: My process id                                                     0
 DBCSR| MPI: Number of processes                                              32
 DBCSR| OMP: Current number of threads                                         1
 DBCSR| OMP: Max number of threads                                             1
 DBCSR| Split modifier for TAS multiplication algorithm                  1.0E+00 (U)


  **** **** ******  **  PROGRAM STARTED AT               2024-09-23 17:53:24.804
 ***** ** ***  *** **   PROGRAM STARTED ON                                moritz
 **    ****   ******    PROGRAM STARTED BY                                   ole
 ***** **    ** ** **   PROGRAM PROCESS ID                                161292
  **** **  *******  **  PROGRAM STARTED IN /home/ole/git/pao_ml_equivar/64H2O_MD
                                           /Frame6700

 CP2K| version string:                 CP2K version 2024.3 (Development Version)
 CP2K| source code revision number:                                  git:3f890bb
 CP2K| cp2kflags: omp libint fftw3 libxc libgrpp pexsi elpa parallel scalapack c
 CP2K|            osma quip deepmd xsmm plumed2 spglib libdftd4 sirius libvori l
 CP2K|            libbqb libvdwxc hdf5
 CP2K| is freely available from                            https://www.cp2k.org/
 CP2K| Program compiled at                          Mo 23 Sep 2024 17:17:04 CEST
 CP2K| Program compiled on                                                moritz
 CP2K| Program compiled for                                                local
 CP2K| Data directory path                               /home/ole/git/cp2k/data
 CP2K| Input file name                                             64H2O_ref.inp

 GLOBAL| Force Environment number                                              1
 GLOBAL| Basis set file name                                        BASIS_MOLOPT
 GLOBAL| Potential file name                                      GTH_POTENTIALS
 GLOBAL| MM Potential file name                                     MM_POTENTIAL
 GLOBAL| Coordinate file name                                         coords.xyz
 GLOBAL| Method name                                                        CP2K
 GLOBAL| Project name                                                  64H2O_ref
 GLOBAL| Run type                                                         ENERGY
 GLOBAL| FFT library                                                       FFTW3
 GLOBAL| Diagonalization library                                            ELPA
 GLOBAL| DGEMM library                                                      BLAS
 GLOBAL| Minimum number of eigenvectors for ELPA usage                        16
 GLOBAL| Orthonormality check for eigenvectors                          DISABLED
 GLOBAL| Matrix multiplication library                                     COSMA
 GLOBAL| All-to-all communication in single precision                          F
 GLOBAL| FFTs using library dependent lengths                                  F
 GLOBAL| Grid backend                                                       AUTO
 GLOBAL| Global print level                                                  LOW
 GLOBAL| MPI I/O enabled                                                       T
 GLOBAL| Total number of message passing processes                            32
 GLOBAL| Number of threads for this process                                    1
 GLOBAL| This output is from process                                           0
 GLOBAL| Stack size for threads created by OpenMP (OMP_STACKSIZE)        default
 GLOBAL| CPU model name           AMD Ryzen Threadripper 3970X 32-Core Processor
 GLOBAL| CPUID                                                              1002

 MEMORY| system memory details [Kb]
 MEMORY|                        rank 0           min           max       average
 MEMORY| MemTotal            131752136     131752136     131752136     131752136
 MEMORY| MemFree             117671724     117671724     117671724     117671724
 MEMORY| Buffers                261140        261140        261140        261140
 MEMORY| Cached                7859692       7859692       7859692       7859692
 MEMORY| Slab                   734408        734408        734408        734408
 MEMORY| SReclaimable           292348        292348        292348        292348
 MEMORY| MemLikelyFree       126084904     126084904     126084904     126084904


 GENERATE|  Preliminary Number of Bonds generated:                             0
 GENERATE|  Achieved consistency in connectivity generation.

 *******************************************************************************
 *******************************************************************************
 **                                                                           **
 **     #####                         ##              ##                      **
 **    ##   ##            ##          ##              ##                      **
 **   ##     ##                       ##            ######                    **
 **   ##     ##  ##   ##  ##   #####  ##  ##   ####   ##    #####    #####    **
 **   ##     ##  ##   ##  ##  ##      ## ##   ##      ##   ##   ##  ##   ##   **
 **   ##  ## ##  ##   ##  ##  ##      ####     ###    ##   ######   ######    **
 **    ##  ###   ##   ##  ##  ##      ## ##      ##   ##   ##       ##        **
 **     #######   #####   ##   #####  ##  ##  ####    ##    #####   ##        **
 **           ##                                                    ##        **
 **                                                                           **
 **                                                ... make the atoms dance   **
 **                                                                           **
 **            Copyright (C) by CP2K developers group (2000-2024)             **
 **                      J. Chem. Phys. 152, 194103 (2020)                    **
 **                                                                           **
 *******************************************************************************


 TOTAL NUMBERS AND MAXIMUM NUMBERS

  Total number of            - Atomic kinds:                                   2
                             - Atoms:                                        192
                             - Shell sets:                                   192
                             - Shells:                                       704
                             - Primitive Cartesian functions:               1344
                             - Cartesian basis functions:                   1536
                             - Spherical basis functions:                   1472

  Maximum angular momentum of- Orbital basis functions:                        2
                             - Local part of the GTH pseudopotential:          2
                             - Non-local part of the GTH pseudopotential:      0

 ------------------------------ Linear scaling SCF -----------------------------
 eps_scf:                                                              0.100E-07
 eps_filter:                                                           0.100E-11
 mixing_fraction:                                                      0.450E+00
 max_scf:                                                                     25
 fixed chemical potential (mu)                                                 F
 has unit metric:                                                              F
 Computing inv(S):                                                             T
 Computing sqrt(S):                                                            T
 Computing S preconditioner                                                    F
 S sqrt method:                                                     NEWTONSCHULZ
 S sqrt order:                                                                 3
 Extrapolation order:                                                          1
 S preconditioner type                                                      NONE
 Polarized Atomic Orbitals (PAO)                                               F
 Purification method                                   Trace resetting 4th order
 Cluster type                                                             ATOMIC
 Computing Chebyshev                                                       FALSE
 Using PAO                                                                     F
 -------------------------------------------------------------------------------


     Lanczos converged:  F threshold:   0.100E-02
     Est. extremal eigenvalues:    0.860E+01   0.609E-02
     Est. condition number :    0.141E+04

 Order=           3
     NS sqrt iter    1 1.00000000   0.222E+01       0.065     6178.551
     NS sqrt iter    2 1.00000000   0.116E+01       0.099     8029.965
     NS sqrt iter    3 1.00000000   0.577E+00       0.099     8037.960
     NS sqrt iter    4 1.00000000   0.332E+00       0.098     8097.861
     NS sqrt iter    5 1.00000000   0.225E+00       0.098     8117.171
     NS sqrt iter    6 1.00000000   0.105E+00       0.098     8110.612
     NS sqrt iter    7 1.00000000   0.132E-01       0.100     7999.596
     NS sqrt iter    8 1.00000000   0.777E-04       0.099     8059.692
     NS sqrt iter    9 1.00000000   0.153E-09       0.064     5813.222
     Symmetrizing Results
     Final NS sqrt iter    9 1.00000000   0.701E-11



 Guess for atomic kind: O

 Electronic structure
    Total number of core electrons                                          2.00
    Total number of valence electrons                                       6.00
    Total number of electrons                                               8.00
    Multiplicity                                                   not specified
    S   [  2.00] 2.00
    P      4.00


 *******************************************************************************
                  Iteration          Convergence                     Energy [au]
 *******************************************************************************
                          1        0.708315                     -15.576645311500
                          2        0.608879                     -15.587933561584
                          3        0.102828E-01                 -15.656849565404
                          4        0.113889E-02                 -15.656866888140
                          5        0.434197E-03                 -15.656867072159
                          6        0.263771E-03                 -15.656867091904
                          7        0.478536E-06                 -15.656867103452

 Energy components [Hartree]           Total Energy ::          -15.656867103452
                                        Band Energy ::           -3.000198112285
                                     Kinetic Energy ::           11.759971203220
                                   Potential Energy ::          -27.416838306672
                                      Virial (-V/T) ::            2.331369510426
                                        Core Energy ::          -26.140716385623
                                          XC Energy ::           -3.154051012914
                                     Coulomb Energy ::           13.637900295084
                       Total Pseudopotential Energy ::          -37.935781716540
                       Local Pseudopotential Energy ::          -39.218907440693
                    Nonlocal Pseudopotential Energy ::            1.283125724153
                                        Confinement ::            0.350941276976

 Orbital energies  State     L     Occupation   Energy[a.u.]          Energy[eV]

                       1     0          2.000      -0.864471          -23.523463

                       1     1          4.000      -0.317814           -8.648154


 Total Electron Density at R=0:                                         0.000068

 Guess for atomic kind: H

 Electronic structure
    Total number of core electrons                                          0.00
    Total number of valence electrons                                       1.00
    Total number of electrons                                               1.00
    Multiplicity                                                   not specified
    S      1.00


 *******************************************************************************
                  Iteration          Convergence                     Energy [au]
 *******************************************************************************
                          1        0.437545E-02                  -0.424159432110
                          2        0.531356E-03                  -0.424178438213
                          3        0.259176E-06                  -0.424178722480

 Energy components [Hartree]           Total Energy ::           -0.424178722480
                                        Band Energy ::           -0.199015229016
                                     Kinetic Energy ::            0.464007633961
                                   Potential Energy ::           -0.888186356441
                                      Virial (-V/T) ::            1.914163240935
                                        Core Energy ::           -0.479160803564
                                          XC Energy ::           -0.244352904054
                                     Coulomb Energy ::            0.299334985138
                       Total Pseudopotential Energy ::           -0.962295316385
                       Local Pseudopotential Energy ::           -0.962295316385
                    Nonlocal Pseudopotential Energy ::            0.000000000000
                                        Confinement ::            0.191268788606

 Orbital energies  State     L     Occupation   Energy[a.u.]          Energy[eV]

                       1     0          1.000      -0.199015           -5.415480


 Total Electron Density at R=0:                                         0.242907
 Re-scaling the density matrix to get the right number of electrons
                  # Electrons              Trace(P)               Scaling factor
                          512               512.001                        1.000
 Energy with the initial guess:     -1095.614947449

     Est. extremal eigenvalues     -0.94984     5.22214  converged:  T
     TRS4 it   1 1.00000000   0.567E+02       0.019     5411.712   0.100E-11
     TRS4 it   2 1.00000000   0.540E+02       0.019     5361.884   0.100E-11
     TRS4 it   3 1.00000000   0.337E+02       0.037     5489.025   0.100E-11
     TRS4 it   4 1.00000000   0.178E+02       0.036     5593.361   0.100E-11
     TRS4 it   5 1.00000000   0.108E+02       0.036     5651.099   0.100E-11
     TRS4 it   6 1.00000000   0.493E+01       0.035     5697.896   0.100E-11
     TRS4 it   7 1.00000000   0.147E+01       0.036     5577.607   0.100E-11
     TRS4 it   8 1.00000000   0.225E+00       0.036     5534.416   0.100E-11
     TRS4 it   9 1.00000000   0.988E-02       0.035     5661.735   0.100E-11
     TRS4 it  10 1.00000000   0.295E-04       0.036     5576.928   0.100E-11
     TRS4 it  11 1.00000000   0.919E-10       0.036     5541.704   0.100E-11
     Final TRS4 iteration   11 1.00000000   0.919E-10
     Chemical potential (mu):      -0.10641

 SCF     1     -1097.920669081     -1097.920669081    2.048654

*********************************************************
 Using MIXING_FRACTION=0.450 to mix KS matrix:  iscf=  2
 KS_nw=0.450*KS + 0.550*KS_old
*********************************************************
     Est. extremal eigenvalues     -0.83130     5.30938  converged:  T
     TRS4 it   1 1.00000000   0.558E+02       0.019     5311.845   0.100E-11
     TRS4 it   2 1.00000000   0.541E+02       0.019     5356.690   0.100E-11
     TRS4 it   3 1.00000000   0.350E+02       0.035     5668.830   0.100E-11
     TRS4 it   4 1.00000000   0.184E+02       0.035     5779.555   0.100E-11
     TRS4 it   5 1.00000000   0.119E+02       0.036     5629.744   0.100E-11
     TRS4 it   6 1.00000000   0.620E+01       0.036     5597.780   0.100E-11
     TRS4 it   7 1.00000000   0.247E+01       0.036     5649.575   0.100E-11
     TRS4 it   8 1.00000000   0.674E+00       0.035     5702.536   0.100E-11
     TRS4 it   9 1.00000000   0.989E-01       0.035     5683.071   0.100E-11
     TRS4 it  10 1.00000000   0.509E-02       0.035     5662.475   0.100E-11
     TRS4 it  11 1.00000000   0.819E-05       0.036     5560.939   0.100E-11
     TRS4 it  12 1.00000000   0.162E-10       0.036     5594.821   0.100E-11
     Final TRS4 iteration   12 1.00000000   0.162E-10
     Chemical potential (mu):      -0.01748

 SCF     2     -1102.970793634        -5.050124554    2.078558

*********************************************************
 Using MIXING_FRACTION=0.450 to mix KS matrix:  iscf=  3
 KS_nw=0.450*KS + 0.550*KS_old
*********************************************************
     Est. extremal eigenvalues     -0.84117     5.30287  converged:  T
     TRS4 it   1 1.00000000   0.559E+02       0.019     5330.706   0.100E-11
     TRS4 it   2 1.00000000   0.541E+02       0.019     5323.444   0.100E-11
     TRS4 it   3 1.00000000   0.348E+02       0.036     5534.655   0.100E-11
     TRS4 it   4 1.00000000   0.183E+02       0.036     5621.886   0.100E-11
     TRS4 it   5 1.00000000   0.117E+02       0.036     5592.380   0.100E-11
     TRS4 it   6 1.00000000   0.599E+01       0.036     5532.424   0.100E-11
     TRS4 it   7 1.00000000   0.230E+01       0.035     5687.569   0.100E-11
     TRS4 it   8 1.00000000   0.589E+00       0.036     5513.007   0.100E-11
     TRS4 it   9 1.00000000   0.756E-01       0.036     5595.640   0.100E-11
     TRS4 it  10 1.00000000   0.279E-02       0.036     5611.751   0.100E-11
     TRS4 it  11 1.00000000   0.212E-05       0.036     5546.813   0.100E-11
     TRS4 it  12 1.00000000   0.965E-12       0.036     5567.278   0.100E-11
     Final TRS4 iteration   12 1.00000000   0.965E-12
     Chemical potential (mu):      -0.02675

 SCF     3     -1103.133211895        -0.162418261    2.082365

*********************************************************
 Using MIXING_FRACTION=0.450 to mix KS matrix:  iscf=  4
 KS_nw=0.450*KS + 0.550*KS_old
*********************************************************
     Est. extremal eigenvalues     -0.83621     5.30762  converged:  T
     TRS4 it   1 1.00000000   0.559E+02       0.018     5507.437   0.100E-11
     TRS4 it   2 1.00000000   0.541E+02       0.018     5424.919   0.100E-11
     TRS4 it   3 1.00000000   0.349E+02       0.037     5463.442   0.100E-11
     TRS4 it   4 1.00000000   0.183E+02       0.036     5569.503   0.100E-11
     TRS4 it   5 1.00000000   0.118E+02       0.036     5525.159   0.100E-11
     TRS4 it   6 1.00000000   0.607E+01       0.036     5527.621   0.100E-11
     TRS4 it   7 1.00000000   0.236E+01       0.037     5495.961   0.100E-11
     TRS4 it   8 1.00000000   0.623E+00       0.036     5609.482   0.100E-11
     TRS4 it   9 1.00000000   0.857E-01       0.036     5583.806   0.100E-11
     TRS4 it  10 1.00000000   0.377E-02       0.036     5594.524   0.100E-11
     TRS4 it  11 1.00000000   0.501E-05       0.036     5538.570   0.100E-11
     TRS4 it  12 1.00000000   0.822E-11       0.036     5548.522   0.100E-11
     Final TRS4 iteration   12 1.00000000   0.822E-11
     Chemical potential (mu):      -0.02011

 SCF     4     -1103.141341603        -0.008129708    2.085192

*********************************************************
 Using MIXING_FRACTION=0.450 to mix KS matrix:  iscf=  5
 KS_nw=0.450*KS + 0.550*KS_old
*********************************************************
     Est. extremal eigenvalues     -0.83509     5.30868  converged:  T
     TRS4 it   1 1.00000000   0.559E+02       0.019     5259.846   0.100E-11
     TRS4 it   2 1.00000000   0.541E+02       0.019     5336.045   0.100E-11
     TRS4 it   3 1.00000000   0.349E+02       0.036     5558.575   0.100E-11
     TRS4 it   4 1.00000000   0.183E+02       0.035     5662.208   0.100E-11
     TRS4 it   5 1.00000000   0.118E+02       0.036     5556.599   0.100E-11
     TRS4 it   6 1.00000000   0.606E+01       0.036     5598.882   0.100E-11
     TRS4 it   7 1.00000000   0.236E+01       0.036     5598.335   0.100E-11
     TRS4 it   8 1.00000000   0.622E+00       0.036     5641.219   0.100E-11
     TRS4 it   9 1.00000000   0.855E-01       0.035     5661.057   0.100E-11
     TRS4 it  10 1.00000000   0.375E-02       0.036     5646.323   0.100E-11
     TRS4 it  11 1.00000000   0.491E-05       0.036     5553.243   0.100E-11
     TRS4 it  12 1.00000000   0.769E-11       0.036     5636.144   0.100E-11
     Final TRS4 iteration   12 1.00000000   0.769E-11
     Chemical potential (mu):      -0.01936

 SCF     5     -1103.141966941        -0.000625338    2.081651

*********************************************************
 Using MIXING_FRACTION=0.450 to mix KS matrix:  iscf=  6
 KS_nw=0.450*KS + 0.550*KS_old
*********************************************************
     Est. extremal eigenvalues     -0.83432     5.30938  converged:  T
     TRS4 it   1 1.00000000   0.559E+02       0.019     5364.685   0.100E-11
     TRS4 it   2 1.00000000   0.541E+02       0.019     5326.291   0.100E-11
     TRS4 it   3 1.00000000   0.349E+02       0.036     5577.842   0.100E-11
     TRS4 it   4 1.00000000   0.184E+02       0.036     5571.815   0.100E-11
     TRS4 it   5 1.00000000   0.118E+02       0.036     5552.210   0.100E-11
     TRS4 it   6 1.00000000   0.607E+01       0.036     5644.513   0.100E-11
     TRS4 it   7 1.00000000   0.237E+01       0.036     5611.363   0.100E-11
     TRS4 it   8 1.00000000   0.626E+00       0.036     5602.581   0.100E-11
     TRS4 it   9 1.00000000   0.868E-01       0.036     5610.051   0.100E-11
     TRS4 it  10 1.00000000   0.390E-02       0.036     5623.442   0.100E-11
     TRS4 it  11 1.00000000   0.557E-05       0.036     5531.016   0.100E-11
     TRS4 it  12 1.00000000   0.109E-10       0.036     5650.502   0.100E-11
     Final TRS4 iteration   12 1.00000000   0.109E-10
     Chemical potential (mu):      -0.01828

 SCF     6     -1103.142058380        -0.000091439    2.083406

*********************************************************
 Using MIXING_FRACTION=0.450 to mix KS matrix:  iscf=  7
 KS_nw=0.450*KS + 0.550*KS_old
*********************************************************
     Est. extremal eigenvalues     -0.83389     5.30974  converged:  T
     TRS4 it   1 1.00000000   0.559E+02       0.019     5346.561   0.100E-11
     TRS4 it   2 1.00000000   0.541E+02       0.019     5275.621   0.100E-11
     TRS4 it   3 1.00000000   0.349E+02       0.036     5532.603   0.100E-11
     TRS4 it   4 1.00000000   0.184E+02       0.036     5545.723   0.100E-11
     TRS4 it   5 1.00000000   0.118E+02       0.036     5598.302   0.100E-11
     TRS4 it   6 1.00000000   0.607E+01       0.036     5580.557   0.100E-11
     TRS4 it   7 1.00000000   0.237E+01       0.036     5640.362   0.100E-11
     TRS4 it   8 1.00000000   0.627E+00       0.036     5624.982   0.100E-11
     TRS4 it   9 1.00000000   0.871E-01       0.036     5647.598   0.100E-11
     TRS4 it  10 1.00000000   0.392E-02       0.035     5676.112   0.100E-11
     TRS4 it  11 1.00000000   0.568E-05       0.036     5583.115   0.100E-11
     TRS4 it  12 1.00000000   0.114E-10       0.036     5624.323   0.100E-11
     Final TRS4 iteration   12 1.00000000   0.114E-10
     Chemical potential (mu):      -0.01791

 SCF     7     -1103.142077869        -0.000019489    2.081560

*********************************************************
 Using MIXING_FRACTION=0.450 to mix KS matrix:  iscf=  8
 KS_nw=0.450*KS + 0.550*KS_old
*********************************************************
     Est. extremal eigenvalues     -0.83368     5.30991  converged:  T
     TRS4 it   1 1.00000000   0.559E+02       0.019     5224.689   0.100E-11
     TRS4 it   2 1.00000000   0.541E+02       0.018     5490.963   0.100E-11
     TRS4 it   3 1.00000000   0.349E+02       0.036     5582.675   0.100E-11
     TRS4 it   4 1.00000000   0.184E+02       0.036     5643.854   0.100E-11
     TRS4 it   5 1.00000000   0.118E+02       0.036     5640.782   0.100E-11
     TRS4 it   6 1.00000000   0.607E+01       0.036     5553.936   0.100E-11
     TRS4 it   7 1.00000000   0.237E+01       0.036     5512.301   0.100E-11
     TRS4 it   8 1.00000000   0.628E+00       0.036     5616.978   0.100E-11
     TRS4 it   9 1.00000000   0.873E-01       0.036     5642.660   0.100E-11
     TRS4 it  10 1.00000000   0.395E-02       0.036     5520.394   0.100E-11
     TRS4 it  11 1.00000000   0.581E-05       0.036     5617.891   0.100E-11
     TRS4 it  12 1.00000000   0.121E-10       0.036     5559.647   0.100E-11
     Final TRS4 iteration   12 1.00000000   0.121E-10
     Chemical potential (mu):      -0.01766

 SCF     8     -1103.142082626        -0.000004757    2.087255


 SCF run converged in     8 steps.

 Writing restart DM 64H2O_ref_LS_DM_SPIN_1_RESTART.dm with checksum:       0.61075110E+04

 ENERGY| Total FORCE_EVAL ( QS ) energy [a.u.]:            -1103.142082625645116

 -------------------------------------------------------------------------------
 -                                                                             -
 -                                DBCSR STATISTICS                             -
 -                                                                             -
 -------------------------------------------------------------------------------
 COUNTER                                    TOTAL       BLAS       SMM       ACC
 flops     5 x     5 x     5          79370756250       0.0%    100.0%      0.0%     
 flops    13 x     5 x     5         102760669050       0.0%    100.0%      0.0%     
 flops     5 x    13 x     5         102775745800       0.0%    100.0%      0.0%     
 flops     5 x     5 x    13         103279201350       0.0%    100.0%      0.0%     
 flops    13 x     5 x    13         133731755040       0.0%    100.0%      0.0%     
 flops     5 x    13 x    13         133773160040       0.0%    100.0%      0.0%     
 flops    13 x    13 x     5         134919177770       0.0%    100.0%      0.0%     
 flops    13 x    13 x    13         175630820794       0.0%    100.0%      0.0%     
 flops inhomo. stacks                           0       0.0%      0.0%      0.0%
 flops total                       966.241286E+09       0.0%    100.0%      0.0%
 flops max/rank                     31.033160E+09       0.0%    100.0%      0.0%
 matmuls inhomo. stacks                         0       0.0%      0.0%      0.0%
 matmuls total                         1070675339       0.0%    100.0%      0.0%
 number of processed stacks               1515696       0.0%    100.0%      0.0%
 average stack size                                     0.0     706.4       0.0
 marketing flops                     1.569237E+12
 -------------------------------------------------------------------------------
 # multiplications                            246
 max memory usage/rank             619.483136E+06
 # max total images/rank                        2
 # max 3D layers                                1
 # MPI messages exchanged                  102336
 MPI messages size (bytes):
  total size                        42.344370E+09
  min size                           0.000000E+00
  max size                         541.696000E+03
  average size                     413.777844E+03
 MPI breakdown and total messages size (bytes):
             size <=      128                 312                        0
       128 < size <=     8192                  42                   279312
      8192 < size <=    32768                  62                   841968
     32768 < size <=   131072                   0                        0
    131072 < size <=  4194304              101920              42343248000
   4194304 < size <= 16777216                   0                        0
  16777216 < size                               0                        0
 -------------------------------------------------------------------------------

 *** WARNING in dbcsr_mm.F:301 :: Using a non-square number of MPI ranks ***
 *** might lead to poor performance. Used ranks: 32 Suggested: 36 64     ***

 -------------------------------------------------------------------------------
 -                                                                             -
 -                      DBCSR MESSAGE PASSING PERFORMANCE                      -
 -                                                                             -
 -------------------------------------------------------------------------------
 ROUTINE             CALLS      AVE VOLUME [Bytes]
 MP_Bcast                9                     12.
 MP_Allreduce         1762                     34.
 MP_Alltoall           546                  34827.
 MP_ISend             8604                 170724.
 MP_IRecv             8238                 178931.
 -------------------------------------------------------------------------------

 -------------------------------------------------------------------------------
 -                                                                             -
 -                                DBM STATISTICS                               -
 -                                                                             -
 -------------------------------------------------------------------------------
    M  x    N  x    K                                          COUNT     PERCENT
 -------------------------------------------------------------------------------

 -------------------------------------------------------------------------------
 -                                                                             -
 -                                GRID STATISTICS                              -
 -                                                                             -
 -------------------------------------------------------------------------------
 LP    KERNEL             BACKEND                              COUNT     PERCENT
 2     collocate ortho    CPU                                7378632      28.83%
 2     integrate ortho    CPU                                7378632      28.83%
 3     collocate ortho    CPU                                4741173      18.52%
 3     integrate ortho    CPU                                4741173      18.52%
 4     collocate ortho    CPU                                 674127       2.63%
 4     integrate ortho    CPU                                 674127       2.63%
 0     collocate general  CPU                                   6144       0.02%
 -------------------------------------------------------------------------------

 MEMORY| Estimated peak process memory [MiB]                                 592

 -------------------------------------------------------------------------------
 -                                                                             -
 -                         MESSAGE PASSING PERFORMANCE                         -
 -                                                                             -
 -------------------------------------------------------------------------------

 ROUTINE             CALLS      AVE VOLUME [Bytes]
 MP_Group                5
 MP_Bcast             2357                 165394.
 MP_Allreduce         6331                    940.
 MP_Sync                 5
 MP_Alltoall           244
 MP_SendRecv           837                  18832.
 MP_ISendRecv          837                  18832.
 MP_Wait              2391
 MP_ISend             1406                 108579.
 MP_IRecv             1406                 108603.
 -------------------------------------------------------------------------------


 -------------------------------------------------------------------------------
 -                                                                             -
 -                           R E F E R E N C E S                               -
 -                                                                             -
 -------------------------------------------------------------------------------
 
 CP2K version 2024.3 (Development Version), the CP2K developers group (2024).
 CP2K is freely available from https://www.cp2k.org/ .
 
 T. D. Kuehne, M. Iannuzzi, M. Del Ben, V. V. Rybkin, P. Seewald, F. Stein, T. 
 Laino, R. Z. Khaliullin, O. Schuett, F. Schiffmann, D. Golze, J. Wilhelm, S. 
 Chulkov, M. H. Bani-Hashemian, V. Weber, U. Borstnik, M. Taillefumier, A. S. 
 Jakobovits, A. Lazzaro, H. Pabst, T. Mueller, R. Schade, M. Guidon, S. 
 Andermatt, N. Holmberg, G. K. Schenter, A. Hehn, A. Bussy, F. Belleflamme, G. 
 Tabacchi, A. Gloess, M. Lass, I. Bethune, C. J. Mundy, C. Plessl, M. Watkins, 
 J. VandeVondele, M. Krack, J. Hutter.
 J. Chem. Phys. 152, 194103 (2020).
 CP2K: An electronic structure and molecular dynamics software package - 
 Quickstep: Efficient and accurate electronic structure calculations.
 https://doi.org/10.1063/5.0007045

 O. Schuett, P. Messmer, J. Hutter, J. VandeVondele.
 Electronic Structure Calculations on Graphics Processing Units, 173-190 (2016).
 GPU-Accelerated Sparse Matrix-Matrix Multiplication for Linear Scaling Density 
 Functional Theory.
 https://doi.org/10.1002/9781118670712.ch8

 A. Heinecke, G. Henry, M. Hutchinson, H. Pabst.
 Proceedings of Intl. Supercomputing Conference, 981-991 (2016).
 LIBXSMM: Accelerating Small Matrix Multiplications by Runtime Code Generation.
 https://doi.org/10.1109/SC.2016.83

 J. Hutter, M. Iannuzzi, F. Schiffmann, J. VandeVondele.
 WIREs Comput Mol Sci. 4, 15-25 (2014).
 CP2K: atomistic simulations of condensed matter systems.
 https://doi.org/10.1002/wcms.1159

 U. Borstnik, J. VandeVondele, V. Weber, J. Hutter.
 Parallel Comput. 40, 47-58 (2014).
 Sparse matrix multiplication: The distributed block-compressed sparse row 
 library.
 https://doi.org/10.1016/j.parco.2014.03.012

 A. Marek, V. Blum, R. Johanni, V. Havu, B. Lang, T. Auckenthaler, A. Heinecke, 
 H. Bungartz, H. Lederer.
 J. Phys. Condens. Matter 26, 213201 (2014).
 The ELPA library: scalable parallel eigenvalue solutions for electronic 
 structure theory and computational science.
 https://doi.org/10.1088/0953-8984/26/21/213201

 J. VandeVondele, U. Borstnik, J. Hutter.
 J. Chem. Theory Comput. 8, 3565-3573 (2012).
 Linear Scaling Self-Consistent Field Calculations with Millions of Atoms in the 
 Condensed Phase.
 https://doi.org/10.1021/ct200897x

 J. VandeVondele, J. Hutter.
 J. Chem. Phys. 127, 114105 (2007).
 Gaussian basis sets for accurate calculations on molecular systems in gas and 
 condensed phases.
 https://doi.org/10.1063/1.2770708

 J. VandeVondele, M. Krack, F. Mohamed, M. Parrinello, T. Chassaing, J. Hutter.
 Comput. Phys. Commun. 167, 103-128 (2005).
 QUICKSTEP: Fast and accurate density functional calculations using a mixed 
 Gaussian and plane waves approach.
 https://doi.org/10.1016/j.cpc.2004.12.014

 M. Krack.
 Theor. Chem. Acc. 114, 145-152 (2005).
 Pseudopotentials for H to Kr optimized for gradient-corrected 
 exchange-correlation functionals.
 https://doi.org/10.1007/s00214-005-0655-y

 M. Frigo, S. G. Johnson.
 Proc. IEEE 93, 216-231 (2005).
 The design and implementation of FFTW3.
 https://doi.org/10.1109/JPROC.2004.840301

 A. M. N. Niklasson, C. J. Tymczak, M. Challacombe.
 J. Chem. Phys. 118, 8611-8620 (2003).
 Trace resetting density matrix purification in O(N) self-consistent-field 
 theory.
 https://doi.org/10.1063/1.1559913

 C. Hartwigsen, S. Goedecker, J. Hutter.
 Phys. Rev. B 58, 3641-3662 (1998).
 Relativistic separable dual-space Gaussian pseudopotentials from H to Rn.
 https://doi.org/10.1103/PhysRevB.58.3641

 G. Lippert, J. Hutter, M. Parrinello.
 Mol. Phys. 92, 477-487 (1997).
 A hybrid Gaussian and plane wave density functional scheme.
 https://doi.org/10.1080/002689797170220

 S. Goedecker, M. Teter, J. Hutter.
 Phys. Rev. B 54, 1703-1710 (1996).
 Separable dual-space Gaussian pseudopotentials.
 https://doi.org/10.1103/PhysRevB.54.1703

 J. P. Perdew, K. Burke, M. Ernzerhof.
 Phys. Rev. Lett. 77, 3865-3868 (1996).
 Generalized gradient approximation made simple.
 https://doi.org/10.1103/PhysRevLett.77.3865


 -------------------------------------------------------------------------------
 -                                                                             -
 -                                T I M I N G                                  -
 -                                                                             -
 -------------------------------------------------------------------------------
 SUBROUTINE                       CALLS  ASD         SELF TIME        TOTAL TIME
                                MAXIMUM       AVERAGE  MAXIMUM  AVERAGE  MAXIMUM
 CP2K                                 1  1.0    0.013    0.017   20.542   20.542
 qs_energies                          1  2.0    0.000    0.000   20.376   20.377
 ls_scf                               1  3.0    0.000    0.000   19.172   19.173
 ls_scf_main                          1  4.0    0.000    0.000   16.629   16.629
 ls_scf_dm_to_ks                      8  5.0    0.000    0.000   12.396   12.399
 qs_ks_update_qs_env                  9  6.1    0.000    0.000    7.822    7.823
 rebuild_ks_matrix                    9  7.1    0.000    0.000    7.816    7.816
 qs_ks_build_kohn_sham_matrix         9  8.1    0.002    0.002    7.816    7.816
 qs_rho_update_rho_low                9  6.1    0.000    0.000    6.125    6.128
 calculate_rho_elec                   9  7.1    0.003    0.003    6.125    6.128
 sum_up_and_integrate                 9  9.1    0.000    0.000    5.905    5.906
 integrate_v_rspace                   9 10.1    0.000    0.000    5.897    5.898
 grid_collocate_task_list             9  8.1    5.442    5.528    5.442    5.528
 grid_integrate_task_list             9 11.1    5.209    5.285    5.209    5.285
 dbcsr_multiply_generic             246  6.2    0.012    0.013    4.624    4.629
 density_matrix_trs4                  8  5.0    0.004    0.006    4.228    4.231
 multiply_cannon                    246  7.2    0.018    0.026    3.758    3.876
 multiply_cannon_loop               246  8.2    0.019    0.021    3.683    3.747
 ls_scf_init_scf                      1  4.0    0.000    0.000    2.480    2.480
 multiply_cannon_multrec           1968  9.2    2.101    2.153    2.107    2.159
 mp_waitall_1                     16729 10.5    1.717    1.812    1.717    1.812
 fft_wrap_pw1pw2                    172 11.3    0.003    0.003    1.764    1.786
 fft_wrap_pw1pw2_200                100 12.8    0.102    0.112    1.691    1.730
 qs_vxc_create                        9  9.1    0.000    0.000    1.560    1.588
 xc_vxc_pw_create                     9 10.1    0.013    0.019    1.560    1.587
 ls_scf_initial_guess                 1  5.0    0.000    0.000    1.555    1.557
 ls_scf_qs_atomic_guess               1  6.0    0.000    0.000    1.555    1.557
 multiply_cannon_metrocomm3        1968  9.2    0.005    0.006    1.338    1.426
 fft3d_ps                           172 13.3    0.716    0.801    1.327    1.377
 qs_energies_init_hamiltonians        1  3.0    0.000    0.000    1.204    1.204
 xc_pw_derive                        54 12.1    0.001    0.001    1.106    1.186
 build_core_hamiltonian_matrix        1  4.0    0.000    0.000    0.748    1.016
 ls_scf_init_matrix_S                 1  5.0    0.000    0.000    0.924    0.926
 matrix_sqrt_Newton_Schulz            1  6.0    0.001    0.001    0.901    0.902
 xc_rho_set_and_dset_create           9 11.1    0.021    0.027    0.788    0.806
 mp_waitany                        1406 12.5    0.618    0.794    0.618    0.794
 xc_pw_divergence                     9 11.1    0.000    0.000    0.739    0.780
 build_core_ppl                       1  5.0    0.515    0.751    0.515    0.751
 density_rs2pw                        9  8.1    0.000    0.000    0.649    0.737
 transfer_rs2pw                      46  9.0    0.001    0.001    0.553    0.722
 make_m2s                           492  7.2    0.005    0.007    0.680    0.691
 make_images                        492  8.2    0.039    0.041    0.670    0.681
 mp_alltoall_z22v                   172 15.3    0.436    0.648    0.436    0.648
 transfer_rs2pw_200                  10  9.8    0.036    0.051    0.448    0.623
 potential_pw2rs                      9 11.1    0.001    0.001    0.598    0.600
 qs_env_update_s_mstruct              1  4.0    0.000    0.000    0.436    0.535
 yz_to_x                             64 14.2    0.059    0.082    0.283    0.422
 arnoldi_extremal                     9  6.1    0.000    0.000    0.418    0.418
 arnoldi_normal_ev                    9  7.1    0.000    0.001    0.417    0.418
 -------------------------------------------------------------------------------

 The number of warnings for this run is : 1
 
 -------------------------------------------------------------------------------
  **** **** ******  **  PROGRAM ENDED AT                 2024-09-23 17:53:45.918
 ***** ** ***  *** **   PROGRAM RAN ON                                    moritz
 **    ****   ******    PROGRAM RAN BY                                       ole
 ***** **    ** ** **   PROGRAM PROCESS ID                                161292
  **** **  *******  **  PROGRAM STOPPED IN /home/ole/git/pao_ml_equivar/64H2O_MD
                                           /Frame6700
