       6
 i =      325, time =       65.000, E =       -34.4479125380
  O         2.3915040688        4.2665201731        4.1051887306
  H         2.8014352967        4.9270404051        3.5061025849
  H         2.0981623285        3.5877932294        3.4479352134
  O         5.4183432351        4.2275088635        3.9310067060
  H         6.0496806870        3.8712218987        4.5930699730
  H         4.5495989846        3.8829187243        4.2012033705
