 DBCSR| CPU Multiplication driver                                           XSMM (U)
 DBCSR| Multrec recursion limit                                              512 (U)
 DBCSR| Multiplication stack size                                           1000 (D)
 DBCSR| Maximum elements for images                                    UNLIMITED (U)
 DBCSR| Multiplicative factor virtual images                                   1 (U)
 DBCSR| Use multiplication densification                                       T (D)
 DBCSR| Multiplication size stacks                                             3 (U)
 DBCSR| Use memory pool for CPU allocation                                     F (U)
 DBCSR| Number of 3D layers                                               SINGLE (U)
 DBCSR| Use MPI memory allocation                                              F (U)
 DBCSR| Use RMA algorithm                                                      F (U)
 DBCSR| Use Communication thread                                               T (U)
 DBCSR| Communication thread load                                             87 (D)
 DBCSR| MPI: My process id                                                     0
 DBCSR| MPI: Number of processes                                              32
 DBCSR| OMP: Current number of threads                                         1
 DBCSR| OMP: Max number of threads                                             1
 DBCSR| Split modifier for TAS multiplication algorithm                  1.0E+00 (U)


  **** **** ******  **  PROGRAM STARTED AT               2024-09-23 17:46:34.039
 ***** ** ***  *** **   PROGRAM STARTED ON                                moritz
 **    ****   ******    PROGRAM STARTED BY                                   ole
 ***** **    ** ** **   PROGRAM PROCESS ID                                159410
  **** **  *******  **  PROGRAM STARTED IN /home/ole/git/pao_ml_equivar/64H2O_MD
                                           /Frame4800

 CP2K| version string:                 CP2K version 2024.3 (Development Version)
 CP2K| source code revision number:                                  git:3f890bb
 CP2K| cp2kflags: omp libint fftw3 libxc libgrpp pexsi elpa parallel scalapack c
 CP2K|            osma quip deepmd xsmm plumed2 spglib libdftd4 sirius libvori l
 CP2K|            libbqb libvdwxc hdf5
 CP2K| is freely available from                            https://www.cp2k.org/
 CP2K| Program compiled at                          Mo 23 Sep 2024 17:17:04 CEST
 CP2K| Program compiled on                                                moritz
 CP2K| Program compiled for                                                local
 CP2K| Data directory path                               /home/ole/git/cp2k/data
 CP2K| Input file name                                             64H2O_ref.inp

 GLOBAL| Force Environment number                                              1
 GLOBAL| Basis set file name                                        BASIS_MOLOPT
 GLOBAL| Potential file name                                      GTH_POTENTIALS
 GLOBAL| MM Potential file name                                     MM_POTENTIAL
 GLOBAL| Coordinate file name                                         coords.xyz
 GLOBAL| Method name                                                        CP2K
 GLOBAL| Project name                                                  64H2O_ref
 GLOBAL| Run type                                                         ENERGY
 GLOBAL| FFT library                                                       FFTW3
 GLOBAL| Diagonalization library                                            ELPA
 GLOBAL| DGEMM library                                                      BLAS
 GLOBAL| Minimum number of eigenvectors for ELPA usage                        16
 GLOBAL| Orthonormality check for eigenvectors                          DISABLED
 GLOBAL| Matrix multiplication library                                     COSMA
 GLOBAL| All-to-all communication in single precision                          F
 GLOBAL| FFTs using library dependent lengths                                  F
 GLOBAL| Grid backend                                                       AUTO
 GLOBAL| Global print level                                                  LOW
 GLOBAL| MPI I/O enabled                                                       T
 GLOBAL| Total number of message passing processes                            32
 GLOBAL| Number of threads for this process                                    1
 GLOBAL| This output is from process                                           0
 GLOBAL| Stack size for threads created by OpenMP (OMP_STACKSIZE)        default
 GLOBAL| CPU model name           AMD Ryzen Threadripper 3970X 32-Core Processor
 GLOBAL| CPUID                                                              1002

 MEMORY| system memory details [Kb]
 MEMORY|                        rank 0           min           max       average
 MEMORY| MemTotal            131752136     131752136     131752136     131752136
 MEMORY| MemFree             118031128     118031128     118031128     118031128
 MEMORY| Buffers                260564        260564        260564        260564
 MEMORY| Cached                7529660       7529660       7529660       7529660
 MEMORY| Slab                   722048        722048        722048        722048
 MEMORY| SReclaimable           282960        282960        282960        282960
 MEMORY| MemLikelyFree       126104312     126104312     126104312     126104312


 GENERATE|  Preliminary Number of Bonds generated:                             0
 GENERATE|  Achieved consistency in connectivity generation.

 *******************************************************************************
 *******************************************************************************
 **                                                                           **
 **     #####                         ##              ##                      **
 **    ##   ##            ##          ##              ##                      **
 **   ##     ##                       ##            ######                    **
 **   ##     ##  ##   ##  ##   #####  ##  ##   ####   ##    #####    #####    **
 **   ##     ##  ##   ##  ##  ##      ## ##   ##      ##   ##   ##  ##   ##   **
 **   ##  ## ##  ##   ##  ##  ##      ####     ###    ##   ######   ######    **
 **    ##  ###   ##   ##  ##  ##      ## ##      ##   ##   ##       ##        **
 **     #######   #####   ##   #####  ##  ##  ####    ##    #####   ##        **
 **           ##                                                    ##        **
 **                                                                           **
 **                                                ... make the atoms dance   **
 **                                                                           **
 **            Copyright (C) by CP2K developers group (2000-2024)             **
 **                      J. Chem. Phys. 152, 194103 (2020)                    **
 **                                                                           **
 *******************************************************************************


 TOTAL NUMBERS AND MAXIMUM NUMBERS

  Total number of            - Atomic kinds:                                   2
                             - Atoms:                                        192
                             - Shell sets:                                   192
                             - Shells:                                       704
                             - Primitive Cartesian functions:               1344
                             - Cartesian basis functions:                   1536
                             - Spherical basis functions:                   1472

  Maximum angular momentum of- Orbital basis functions:                        2
                             - Local part of the GTH pseudopotential:          2
                             - Non-local part of the GTH pseudopotential:      0

 ------------------------------ Linear scaling SCF -----------------------------
 eps_scf:                                                              0.100E-07
 eps_filter:                                                           0.100E-11
 mixing_fraction:                                                      0.450E+00
 max_scf:                                                                     25
 fixed chemical potential (mu)                                                 F
 has unit metric:                                                              F
 Computing inv(S):                                                             T
 Computing sqrt(S):                                                            T
 Computing S preconditioner                                                    F
 S sqrt method:                                                     NEWTONSCHULZ
 S sqrt order:                                                                 3
 Extrapolation order:                                                          1
 S preconditioner type                                                      NONE
 Polarized Atomic Orbitals (PAO)                                               F
 Purification method                                   Trace resetting 4th order
 Cluster type                                                             ATOMIC
 Computing Chebyshev                                                       FALSE
 Using PAO                                                                     F
 -------------------------------------------------------------------------------


     Lanczos converged:  F threshold:   0.100E-02
     Est. extremal eigenvalues:    0.895E+01   0.577E-02
     Est. condition number :    0.155E+04

 Order=           3
     NS sqrt iter    1 1.00000000   0.231E+01       0.065     6200.178
     NS sqrt iter    2 1.00000000   0.120E+01       0.098     8097.939
     NS sqrt iter    3 1.00000000   0.594E+00       0.098     8110.314
     NS sqrt iter    4 1.00000000   0.341E+00       0.098     8118.882
     NS sqrt iter    5 1.00000000   0.230E+00       0.098     8105.042
     NS sqrt iter    6 1.00000000   0.111E+00       0.099     8087.052
     NS sqrt iter    7 1.00000000   0.150E-01       0.099     8088.450
     NS sqrt iter    8 1.00000000   0.887E-04       0.098     8115.000
     NS sqrt iter    9 1.00000000   0.557E-10       0.072     6103.261
     Symmetrizing Results
     Final NS sqrt iter    9 1.00000000   0.594E-11



 Guess for atomic kind: O

 Electronic structure
    Total number of core electrons                                          2.00
    Total number of valence electrons                                       6.00
    Total number of electrons                                               8.00
    Multiplicity                                                   not specified
    S   [  2.00] 2.00
    P      4.00


 *******************************************************************************
                  Iteration          Convergence                     Energy [au]
 *******************************************************************************
                          1        0.708315                     -15.576645311500
                          2        0.608879                     -15.587933561584
                          3        0.102828E-01                 -15.656849565404
                          4        0.113889E-02                 -15.656866888140
                          5        0.434197E-03                 -15.656867072159
                          6        0.263771E-03                 -15.656867091904
                          7        0.478536E-06                 -15.656867103452

 Energy components [Hartree]           Total Energy ::          -15.656867103452
                                        Band Energy ::           -3.000198112285
                                     Kinetic Energy ::           11.759971203220
                                   Potential Energy ::          -27.416838306672
                                      Virial (-V/T) ::            2.331369510426
                                        Core Energy ::          -26.140716385623
                                          XC Energy ::           -3.154051012914
                                     Coulomb Energy ::           13.637900295084
                       Total Pseudopotential Energy ::          -37.935781716540
                       Local Pseudopotential Energy ::          -39.218907440693
                    Nonlocal Pseudopotential Energy ::            1.283125724153
                                        Confinement ::            0.350941276976

 Orbital energies  State     L     Occupation   Energy[a.u.]          Energy[eV]

                       1     0          2.000      -0.864471          -23.523463

                       1     1          4.000      -0.317814           -8.648154


 Total Electron Density at R=0:                                         0.000068

 Guess for atomic kind: H

 Electronic structure
    Total number of core electrons                                          0.00
    Total number of valence electrons                                       1.00
    Total number of electrons                                               1.00
    Multiplicity                                                   not specified
    S      1.00


 *******************************************************************************
                  Iteration          Convergence                     Energy [au]
 *******************************************************************************
                          1        0.437545E-02                  -0.424159432110
                          2        0.531356E-03                  -0.424178438213
                          3        0.259176E-06                  -0.424178722480

 Energy components [Hartree]           Total Energy ::           -0.424178722480
                                        Band Energy ::           -0.199015229016
                                     Kinetic Energy ::            0.464007633961
                                   Potential Energy ::           -0.888186356441
                                      Virial (-V/T) ::            1.914163240935
                                        Core Energy ::           -0.479160803564
                                          XC Energy ::           -0.244352904054
                                     Coulomb Energy ::            0.299334985138
                       Total Pseudopotential Energy ::           -0.962295316385
                       Local Pseudopotential Energy ::           -0.962295316385
                    Nonlocal Pseudopotential Energy ::            0.000000000000
                                        Confinement ::            0.191268788606

 Orbital energies  State     L     Occupation   Energy[a.u.]          Energy[eV]

                       1     0          1.000      -0.199015           -5.415480


 Total Electron Density at R=0:                                         0.242907
 Re-scaling the density matrix to get the right number of electrons
                  # Electrons              Trace(P)               Scaling factor
                          512               512.001                        1.000
 Energy with the initial guess:     -1096.047268837

     Est. extremal eigenvalues     -0.94844     5.25669  converged:  F
     TRS4 it   1 1.00000000   0.566E+02       0.019     5314.683   0.100E-11
     TRS4 it   2 1.00000000   0.539E+02       0.019     5417.196   0.100E-11
     TRS4 it   3 1.00000000   0.338E+02       0.037     5357.900   0.100E-11
     TRS4 it   4 1.00000000   0.177E+02       0.036     5545.643   0.100E-11
     TRS4 it   5 1.00000000   0.107E+02       0.036     5618.167   0.100E-11
     TRS4 it   6 1.00000000   0.483E+01       0.037     5435.479   0.100E-11
     TRS4 it   7 1.00000000   0.142E+01       0.036     5603.902   0.100E-11
     TRS4 it   8 1.00000000   0.214E+00       0.036     5592.657   0.100E-11
     TRS4 it   9 1.00000000   0.902E-02       0.036     5516.870   0.100E-11
     TRS4 it  10 1.00000000   0.244E-04       0.036     5602.305   0.100E-11
     TRS4 it  11 1.00000000   0.646E-10       0.036     5632.095   0.100E-11
     Final TRS4 iteration   11 1.00000000   0.646E-10
     Chemical potential (mu):      -0.10586

 SCF     1     -1097.961306371     -1097.961306371    2.059300

*********************************************************
 Using MIXING_FRACTION=0.450 to mix KS matrix:  iscf=  2
 KS_nw=0.450*KS + 0.550*KS_old
*********************************************************
     Est. extremal eigenvalues     -0.83471     5.34146  converged:  F
     TRS4 it   1 1.00000000   0.557E+02       0.019     5259.736   0.100E-11
     TRS4 it   2 1.00000000   0.541E+02       0.019     5358.122   0.100E-11
     TRS4 it   3 1.00000000   0.351E+02       0.037     5467.912   0.100E-11
     TRS4 it   4 1.00000000   0.183E+02       0.036     5567.303   0.100E-11
     TRS4 it   5 1.00000000   0.118E+02       0.037     5468.349   0.100E-11
     TRS4 it   6 1.00000000   0.613E+01       0.036     5527.864   0.100E-11
     TRS4 it   7 1.00000000   0.242E+01       0.037     5494.719   0.100E-11
     TRS4 it   8 1.00000000   0.658E+00       0.037     5492.979   0.100E-11
     TRS4 it   9 1.00000000   0.965E-01       0.036     5565.627   0.100E-11
     TRS4 it  10 1.00000000   0.515E-02       0.037     5492.620   0.100E-11
     TRS4 it  11 1.00000000   0.105E-04       0.037     5420.426   0.100E-11
     TRS4 it  12 1.00000000   0.933E-10       0.036     5552.182   0.100E-11
     Final TRS4 iteration   12 1.00000000   0.933E-10
     Chemical potential (mu):      -0.01647

 SCF     2     -1102.964820778        -5.003514406    2.098033

*********************************************************
 Using MIXING_FRACTION=0.450 to mix KS matrix:  iscf=  3
 KS_nw=0.450*KS + 0.550*KS_old
*********************************************************
     Est. extremal eigenvalues     -0.84247     5.33829  converged:  T
     TRS4 it   1 1.00000000   0.558E+02       0.019     5243.149   0.100E-11
     TRS4 it   2 1.00000000   0.540E+02       0.019     5357.661   0.100E-11
     TRS4 it   3 1.00000000   0.350E+02       0.036     5524.261   0.100E-11
     TRS4 it   4 1.00000000   0.182E+02       0.036     5509.296   0.100E-11
     TRS4 it   5 1.00000000   0.116E+02       0.036     5627.736   0.100E-11
     TRS4 it   6 1.00000000   0.591E+01       0.037     5461.143   0.100E-11
     TRS4 it   7 1.00000000   0.225E+01       0.036     5559.469   0.100E-11
     TRS4 it   8 1.00000000   0.571E+00       0.036     5555.536   0.100E-11
     TRS4 it   9 1.00000000   0.727E-01       0.036     5620.154   0.100E-11
     TRS4 it  10 1.00000000   0.263E-02       0.036     5529.793   0.100E-11
     TRS4 it  11 1.00000000   0.168E-05       0.036     5546.524   0.100E-11
     TRS4 it  12 1.00000000   0.933E-12       0.036     5567.513   0.100E-11
     Final TRS4 iteration   12 1.00000000   0.933E-12
     Chemical potential (mu):      -0.02692

 SCF     3     -1103.117904518        -0.153083740    2.082231

*********************************************************
 Using MIXING_FRACTION=0.450 to mix KS matrix:  iscf=  4
 KS_nw=0.450*KS + 0.550*KS_old
*********************************************************
     Est. extremal eigenvalues     -0.83866     5.34031  converged:  T
     TRS4 it   1 1.00000000   0.558E+02       0.019     5253.998   0.100E-11
     TRS4 it   2 1.00000000   0.540E+02       0.019     5359.445   0.100E-11
     TRS4 it   3 1.00000000   0.350E+02       0.037     5474.756   0.100E-11
     TRS4 it   4 1.00000000   0.183E+02       0.037     5410.302   0.100E-11
     TRS4 it   5 1.00000000   0.117E+02       0.036     5500.546   0.100E-11
     TRS4 it   6 1.00000000   0.600E+01       0.036     5526.768   0.100E-11
     TRS4 it   7 1.00000000   0.232E+01       0.037     5418.360   0.100E-11
     TRS4 it   8 1.00000000   0.607E+00       0.036     5518.334   0.100E-11
     TRS4 it   9 1.00000000   0.832E-01       0.036     5546.144   0.100E-11
     TRS4 it  10 1.00000000   0.373E-02       0.036     5513.106   0.100E-11
     TRS4 it  11 1.00000000   0.545E-05       0.037     5449.613   0.100E-11
     TRS4 it  12 1.00000000   0.247E-10       0.036     5605.043   0.100E-11
     Final TRS4 iteration   12 1.00000000   0.247E-10
     Chemical potential (mu):      -0.01954

 SCF     4     -1103.125919275        -0.008014758    2.093038

*********************************************************
 Using MIXING_FRACTION=0.450 to mix KS matrix:  iscf=  5
 KS_nw=0.450*KS + 0.550*KS_old
*********************************************************
     Est. extremal eigenvalues     -0.83717     5.34207  converged:  T
     TRS4 it   1 1.00000000   0.558E+02       0.019     5334.914   0.100E-11
     TRS4 it   2 1.00000000   0.540E+02       0.019     5351.151   0.100E-11
     TRS4 it   3 1.00000000   0.350E+02       0.036     5517.802   0.100E-11
     TRS4 it   4 1.00000000   0.183E+02       0.037     5450.990   0.100E-11
     TRS4 it   5 1.00000000   0.117E+02       0.036     5542.717   0.100E-11
     TRS4 it   6 1.00000000   0.599E+01       0.037     5492.089   0.100E-11
     TRS4 it   7 1.00000000   0.231E+01       0.036     5533.564   0.100E-11
     TRS4 it   8 1.00000000   0.605E+00       0.037     5494.181   0.100E-11
     TRS4 it   9 1.00000000   0.827E-01       0.037     5476.126   0.100E-11
     TRS4 it  10 1.00000000   0.365E-02       0.036     5551.323   0.100E-11
     TRS4 it  11 1.00000000   0.483E-05       0.037     5491.409   0.100E-11
     TRS4 it  12 1.00000000   0.162E-10       0.037     5482.361   0.100E-11
     Final TRS4 iteration   12 1.00000000   0.162E-10
     Chemical potential (mu):      -0.01913

 SCF     5     -1103.126610973        -0.000691697    2.088788

*********************************************************
 Using MIXING_FRACTION=0.450 to mix KS matrix:  iscf=  6
 KS_nw=0.450*KS + 0.550*KS_old
*********************************************************
     Est. extremal eigenvalues     -0.83662     5.34227  converged:  T
     TRS4 it   1 1.00000000   0.558E+02       0.019     5358.792   0.100E-11
     TRS4 it   2 1.00000000   0.540E+02       0.019     5291.868   0.100E-11
     TRS4 it   3 1.00000000   0.350E+02       0.036     5529.971   0.100E-11
     TRS4 it   4 1.00000000   0.183E+02       0.037     5406.602   0.100E-11
     TRS4 it   5 1.00000000   0.117E+02       0.036     5612.745   0.100E-11
     TRS4 it   6 1.00000000   0.600E+01       0.036     5603.719   0.100E-11
     TRS4 it   7 1.00000000   0.232E+01       0.037     5458.877   0.100E-11
     TRS4 it   8 1.00000000   0.609E+00       0.037     5444.080   0.100E-11
     TRS4 it   9 1.00000000   0.842E-01       0.036     5503.582   0.100E-11
     TRS4 it  10 1.00000000   0.384E-02       0.037     5459.347   0.100E-11
     TRS4 it  11 1.00000000   0.587E-05       0.037     5436.563   0.100E-11
     TRS4 it  12 1.00000000   0.286E-10       0.036     5535.853   0.100E-11
     Final TRS4 iteration   12 1.00000000   0.286E-10
     Chemical potential (mu):      -0.01786

 SCF     6     -1103.126715610        -0.000104637    2.086066

*********************************************************
 Using MIXING_FRACTION=0.450 to mix KS matrix:  iscf=  7
 KS_nw=0.450*KS + 0.550*KS_old
*********************************************************
     Est. extremal eigenvalues     -0.83614     5.34271  converged:  T
     TRS4 it   1 1.00000000   0.558E+02       0.019     5407.872   0.100E-11
     TRS4 it   2 1.00000000   0.540E+02       0.018     5436.860   0.100E-11
     TRS4 it   3 1.00000000   0.350E+02       0.036     5577.344   0.100E-11
     TRS4 it   4 1.00000000   0.183E+02       0.036     5516.791   0.100E-11
     TRS4 it   5 1.00000000   0.117E+02       0.037     5460.946   0.100E-11
     TRS4 it   6 1.00000000   0.600E+01       0.037     5473.318   0.100E-11
     TRS4 it   7 1.00000000   0.232E+01       0.037     5444.398   0.100E-11
     TRS4 it   8 1.00000000   0.610E+00       0.036     5607.942   0.100E-11
     TRS4 it   9 1.00000000   0.843E-01       0.035     5656.216   0.100E-11
     TRS4 it  10 1.00000000   0.386E-02       0.036     5546.078   0.100E-11
     TRS4 it  11 1.00000000   0.592E-05       0.036     5511.607   0.100E-11
     TRS4 it  12 1.00000000   0.287E-10       0.036     5556.141   0.100E-11
     Final TRS4 iteration   12 1.00000000   0.287E-10
     Chemical potential (mu):      -0.01754

 SCF     7     -1103.126737078        -0.000021468    2.085194

*********************************************************
 Using MIXING_FRACTION=0.450 to mix KS matrix:  iscf=  8
 KS_nw=0.450*KS + 0.550*KS_old
*********************************************************
     Est. extremal eigenvalues     -0.83597     5.34278  converged:  T
     TRS4 it   1 1.00000000   0.558E+02       0.019     5202.094   0.100E-11
     TRS4 it   2 1.00000000   0.540E+02       0.019     5391.830   0.100E-11
     TRS4 it   3 1.00000000   0.350E+02       0.037     5463.625   0.100E-11
     TRS4 it   4 1.00000000   0.183E+02       0.036     5541.994   0.100E-11
     TRS4 it   5 1.00000000   0.117E+02       0.036     5516.996   0.100E-11
     TRS4 it   6 1.00000000   0.600E+01       0.035     5658.752   0.100E-11
     TRS4 it   7 1.00000000   0.232E+01       0.036     5544.253   0.100E-11
     TRS4 it   8 1.00000000   0.611E+00       0.036     5549.497   0.100E-11
     TRS4 it   9 1.00000000   0.846E-01       0.037     5433.577   0.100E-11
     TRS4 it  10 1.00000000   0.389E-02       0.037     5453.198   0.100E-11
     TRS4 it  11 1.00000000   0.614E-05       0.036     5648.803   0.100E-11
     TRS4 it  12 1.00000000   0.320E-10       0.036     5594.421   0.100E-11
     Final TRS4 iteration   12 1.00000000   0.320E-10
     Chemical potential (mu):      -0.01724

 SCF     8     -1103.126742117        -0.000005040    2.084265


 SCF run converged in     8 steps.

 Writing restart DM 64H2O_ref_LS_DM_SPIN_1_RESTART.dm with checksum:       0.61969611E+04

 ENERGY| Total FORCE_EVAL ( QS ) energy [a.u.]:            -1103.126742117442973

 -------------------------------------------------------------------------------
 -                                                                             -
 -                                DBCSR STATISTICS                             -
 -                                                                             -
 -------------------------------------------------------------------------------
 COUNTER                                    TOTAL       BLAS       SMM       ACC
 flops     5 x     5 x     5          79569991250       0.0%    100.0%      0.0%     
 flops    13 x     5 x     5         102995630400       0.0%    100.0%      0.0%     
 flops     5 x    13 x     5         103058287800       0.0%    100.0%      0.0%     
 flops     5 x     5 x    13         103543872900       0.0%    100.0%      0.0%     
 flops    13 x     5 x    13         133974036820       0.0%    100.0%      0.0%     
 flops     5 x    13 x    13         134125362800       0.0%    100.0%      0.0%     
 flops    13 x    13 x     5         135250531000       0.0%    100.0%      0.0%     
 flops    13 x    13 x    13         175948019260       0.0%    100.0%      0.0%     
 flops inhomo. stacks                           0       0.0%      0.0%      0.0%
 flops total                       968.465732E+09       0.0%    100.0%      0.0%
 flops max/rank                     31.072820E+09       0.0%    100.0%      0.0%
 matmuls inhomo. stacks                         0       0.0%      0.0%      0.0%
 matmuls total                         1073295647       0.0%    100.0%      0.0%
 number of processed stacks               1518481       0.0%    100.0%      0.0%
 average stack size                                     0.0     706.8       0.0
 marketing flops                     1.569237E+12
 -------------------------------------------------------------------------------
 # multiplications                            246
 max memory usage/rank             620.916736E+06
 # max total images/rank                        2
 # max 3D layers                                1
 # MPI messages exchanged                  102336
 MPI messages size (bytes):
  total size                        42.415333E+09
  min size                           0.000000E+00
  max size                         541.696000E+03
  average size                     414.471281E+03
 MPI breakdown and total messages size (bytes):
             size <=      128                 312                        0
       128 < size <=     8192                  42                   279312
      8192 < size <=    32768                  62                   841968
     32768 < size <=   131072                   0                        0
    131072 < size <=  4194304              101920              42414212640
   4194304 < size <= 16777216                   0                        0
  16777216 < size                               0                        0
 -------------------------------------------------------------------------------

 *** WARNING in dbcsr_mm.F:301 :: Using a non-square number of MPI ranks ***
 *** might lead to poor performance. Used ranks: 32 Suggested: 36 64     ***

 -------------------------------------------------------------------------------
 -                                                                             -
 -                      DBCSR MESSAGE PASSING PERFORMANCE                      -
 -                                                                             -
 -------------------------------------------------------------------------------
 ROUTINE             CALLS      AVE VOLUME [Bytes]
 MP_Bcast                9                     12.
 MP_Allreduce         1762                     34.
 MP_Alltoall           546                  34827.
 MP_ISend             8604                 170997.
 MP_IRecv             8238                 179212.
 -------------------------------------------------------------------------------

 -------------------------------------------------------------------------------
 -                                                                             -
 -                                DBM STATISTICS                               -
 -                                                                             -
 -------------------------------------------------------------------------------
    M  x    N  x    K                                          COUNT     PERCENT
 -------------------------------------------------------------------------------

 -------------------------------------------------------------------------------
 -                                                                             -
 -                                GRID STATISTICS                              -
 -                                                                             -
 -------------------------------------------------------------------------------
 LP    KERNEL             BACKEND                              COUNT     PERCENT
 2     collocate ortho    CPU                                7376535      28.83%
 2     integrate ortho    CPU                                7376535      28.83%
 3     collocate ortho    CPU                                4740201      18.53%
 3     integrate ortho    CPU                                4740201      18.53%
 4     collocate ortho    CPU                                 673191       2.63%
 4     integrate ortho    CPU                                 673191       2.63%
 0     collocate general  CPU                                   6144       0.02%
 -------------------------------------------------------------------------------

 MEMORY| Estimated peak process memory [MiB]                                 593

 -------------------------------------------------------------------------------
 -                                                                             -
 -                         MESSAGE PASSING PERFORMANCE                         -
 -                                                                             -
 -------------------------------------------------------------------------------

 ROUTINE             CALLS      AVE VOLUME [Bytes]
 MP_Group                5
 MP_Bcast             2479                 157332.
 MP_Allreduce         6633                    940.
 MP_Sync                 5
 MP_Alltoall           244                4834367.
 MP_SendRecv           837                  18832.
 MP_ISendRecv          837                  18832.
 MP_Wait              2391
 MP_ISend             1406                 108579.
 MP_IRecv             1406                 108603.
 -------------------------------------------------------------------------------


 -------------------------------------------------------------------------------
 -                                                                             -
 -                           R E F E R E N C E S                               -
 -                                                                             -
 -------------------------------------------------------------------------------
 
 CP2K version 2024.3 (Development Version), the CP2K developers group (2024).
 CP2K is freely available from https://www.cp2k.org/ .
 
 T. D. Kuehne, M. Iannuzzi, M. Del Ben, V. V. Rybkin, P. Seewald, F. Stein, T. 
 Laino, R. Z. Khaliullin, O. Schuett, F. Schiffmann, D. Golze, J. Wilhelm, S. 
 Chulkov, M. H. Bani-Hashemian, V. Weber, U. Borstnik, M. Taillefumier, A. S. 
 Jakobovits, A. Lazzaro, H. Pabst, T. Mueller, R. Schade, M. Guidon, S. 
 Andermatt, N. Holmberg, G. K. Schenter, A. Hehn, A. Bussy, F. Belleflamme, G. 
 Tabacchi, A. Gloess, M. Lass, I. Bethune, C. J. Mundy, C. Plessl, M. Watkins, 
 J. VandeVondele, M. Krack, J. Hutter.
 J. Chem. Phys. 152, 194103 (2020).
 CP2K: An electronic structure and molecular dynamics software package - 
 Quickstep: Efficient and accurate electronic structure calculations.
 https://doi.org/10.1063/5.0007045

 O. Schuett, P. Messmer, J. Hutter, J. VandeVondele.
 Electronic Structure Calculations on Graphics Processing Units, 173-190 (2016).
 GPU-Accelerated Sparse Matrix-Matrix Multiplication for Linear Scaling Density 
 Functional Theory.
 https://doi.org/10.1002/9781118670712.ch8

 A. Heinecke, G. Henry, M. Hutchinson, H. Pabst.
 Proceedings of Intl. Supercomputing Conference, 981-991 (2016).
 LIBXSMM: Accelerating Small Matrix Multiplications by Runtime Code Generation.
 https://doi.org/10.1109/SC.2016.83

 J. Hutter, M. Iannuzzi, F. Schiffmann, J. VandeVondele.
 WIREs Comput Mol Sci. 4, 15-25 (2014).
 CP2K: atomistic simulations of condensed matter systems.
 https://doi.org/10.1002/wcms.1159

 U. Borstnik, J. VandeVondele, V. Weber, J. Hutter.
 Parallel Comput. 40, 47-58 (2014).
 Sparse matrix multiplication: The distributed block-compressed sparse row 
 library.
 https://doi.org/10.1016/j.parco.2014.03.012

 A. Marek, V. Blum, R. Johanni, V. Havu, B. Lang, T. Auckenthaler, A. Heinecke, 
 H. Bungartz, H. Lederer.
 J. Phys. Condens. Matter 26, 213201 (2014).
 The ELPA library: scalable parallel eigenvalue solutions for electronic 
 structure theory and computational science.
 https://doi.org/10.1088/0953-8984/26/21/213201

 J. VandeVondele, U. Borstnik, J. Hutter.
 J. Chem. Theory Comput. 8, 3565-3573 (2012).
 Linear Scaling Self-Consistent Field Calculations with Millions of Atoms in the 
 Condensed Phase.
 https://doi.org/10.1021/ct200897x

 J. VandeVondele, J. Hutter.
 J. Chem. Phys. 127, 114105 (2007).
 Gaussian basis sets for accurate calculations on molecular systems in gas and 
 condensed phases.
 https://doi.org/10.1063/1.2770708

 J. VandeVondele, M. Krack, F. Mohamed, M. Parrinello, T. Chassaing, J. Hutter.
 Comput. Phys. Commun. 167, 103-128 (2005).
 QUICKSTEP: Fast and accurate density functional calculations using a mixed 
 Gaussian and plane waves approach.
 https://doi.org/10.1016/j.cpc.2004.12.014

 M. Krack.
 Theor. Chem. Acc. 114, 145-152 (2005).
 Pseudopotentials for H to Kr optimized for gradient-corrected 
 exchange-correlation functionals.
 https://doi.org/10.1007/s00214-005-0655-y

 M. Frigo, S. G. Johnson.
 Proc. IEEE 93, 216-231 (2005).
 The design and implementation of FFTW3.
 https://doi.org/10.1109/JPROC.2004.840301

 A. M. N. Niklasson, C. J. Tymczak, M. Challacombe.
 J. Chem. Phys. 118, 8611-8620 (2003).
 Trace resetting density matrix purification in O(N) self-consistent-field 
 theory.
 https://doi.org/10.1063/1.1559913

 C. Hartwigsen, S. Goedecker, J. Hutter.
 Phys. Rev. B 58, 3641-3662 (1998).
 Relativistic separable dual-space Gaussian pseudopotentials from H to Rn.
 https://doi.org/10.1103/PhysRevB.58.3641

 G. Lippert, J. Hutter, M. Parrinello.
 Mol. Phys. 92, 477-487 (1997).
 A hybrid Gaussian and plane wave density functional scheme.
 https://doi.org/10.1080/002689797170220

 S. Goedecker, M. Teter, J. Hutter.
 Phys. Rev. B 54, 1703-1710 (1996).
 Separable dual-space Gaussian pseudopotentials.
 https://doi.org/10.1103/PhysRevB.54.1703

 J. P. Perdew, K. Burke, M. Ernzerhof.
 Phys. Rev. Lett. 77, 3865-3868 (1996).
 Generalized gradient approximation made simple.
 https://doi.org/10.1103/PhysRevLett.77.3865


 -------------------------------------------------------------------------------
 -                                                                             -
 -                                T I M I N G                                  -
 -                                                                             -
 -------------------------------------------------------------------------------
 SUBROUTINE                       CALLS  ASD         SELF TIME        TOTAL TIME
                                MAXIMUM       AVERAGE  MAXIMUM  AVERAGE  MAXIMUM
 CP2K                                 1  1.0    0.012    0.015   20.406   20.406
 qs_energies                          1  2.0    0.000    0.000   20.257   20.258
 ls_scf                               1  3.0    0.000    0.000   19.224   19.225
 ls_scf_main                          1  4.0    0.000    0.000   16.677   16.680
 ls_scf_dm_to_ks                      8  5.0    0.000    0.000   12.378   12.382
 qs_ks_update_qs_env                  9  6.1    0.000    0.000    7.812    7.815
 rebuild_ks_matrix                    9  7.1    0.000    0.000    7.806    7.809
 qs_ks_build_kohn_sham_matrix         9  8.1    0.002    0.002    7.806    7.809
 qs_rho_update_rho_low                9  6.1    0.000    0.000    6.115    6.118
 calculate_rho_elec                   9  7.1    0.003    0.003    6.115    6.118
 sum_up_and_integrate                 9  9.1    0.000    0.000    5.908    5.911
 integrate_v_rspace                   9 10.1    0.000    0.000    5.899    5.903
 grid_collocate_task_list             9  8.1    5.435    5.506    5.435    5.506
 grid_integrate_task_list             9 11.1    5.199    5.287    5.199    5.287
 dbcsr_multiply_generic             246  6.2    0.012    0.013    4.669    4.676
 density_matrix_trs4                  8  5.0    0.004    0.006    4.293    4.295
 multiply_cannon                    246  7.2    0.018    0.024    3.759    3.876
 multiply_cannon_loop               246  8.2    0.019    0.021    3.686    3.815
 ls_scf_init_scf                      1  4.0    0.000    0.000    2.483    2.484
 multiply_cannon_multrec           1968  9.2    2.110    2.169    2.116    2.175
 mp_waitall_1                     16729 10.5    1.708    1.874    1.708    1.874
 fft_wrap_pw1pw2                    172 11.3    0.003    0.004    1.761    1.786
 fft_wrap_pw1pw2_200                100 12.8    0.102    0.110    1.690    1.728
 qs_vxc_create                        9  9.1    0.000    0.000    1.550    1.578
 xc_vxc_pw_create                     9 10.1    0.013    0.019    1.550    1.578
 ls_scf_initial_guess                 1  5.0    0.000    0.000    1.554    1.556
 ls_scf_qs_atomic_guess               1  6.0    0.000    0.000    1.554    1.556
 multiply_cannon_metrocomm3        1968  9.2    0.005    0.006    1.326    1.465
 fft3d_ps                           172 13.3    0.719    0.793    1.326    1.364
 xc_pw_derive                        54 12.1    0.001    0.001    1.100    1.185
 qs_energies_init_hamiltonians        1  3.0    0.000    0.000    1.033    1.033
 ls_scf_init_matrix_S                 1  5.0    0.000    0.000    0.929    0.931
 matrix_sqrt_Newton_Schulz            1  6.0    0.001    0.001    0.906    0.906
 build_core_hamiltonian_matrix        1  4.0    0.000    0.000    0.704    0.843
 xc_rho_set_and_dset_create           9 11.1    0.020    0.026    0.781    0.803
 xc_pw_divergence                     9 11.1    0.000    0.000    0.737    0.779
 density_rs2pw                        9  8.1    0.000    0.000    0.647    0.713
 make_m2s                           492  7.2    0.005    0.007    0.684    0.695
 make_images                        492  8.2    0.039    0.040    0.674    0.684
 mp_alltoall_z22v                   172 15.3    0.430    0.631    0.430    0.631
 potential_pw2rs                      9 11.1    0.001    0.001    0.596    0.598
 build_core_ppl                       1  5.0    0.483    0.590    0.483    0.590
 mp_waitany                        1406 12.5    0.490    0.575    0.490    0.575
 transfer_rs2pw                      46  9.0    0.001    0.001    0.423    0.515
 arnoldi_extremal                     9  6.1    0.000    0.000    0.441    0.443
 arnoldi_normal_ev                    9  7.1    0.000    0.001    0.440    0.441
 transfer_rs2pw_200                  10  9.8    0.032    0.041    0.320    0.410
 -------------------------------------------------------------------------------

 The number of warnings for this run is : 1
 
 -------------------------------------------------------------------------------
  **** **** ******  **  PROGRAM ENDED AT                 2024-09-23 17:46:55.155
 ***** ** ***  *** **   PROGRAM RAN ON                                    moritz
 **    ****   ******    PROGRAM RAN BY                                       ole
 ***** **    ** ** **   PROGRAM PROCESS ID                                159410
  **** **  *******  **  PROGRAM STOPPED IN /home/ole/git/pao_ml_equivar/64H2O_MD
                                           /Frame4800
