 DBCSR| CPU Multiplication driver                                           XSMM (U)
 DBCSR| Multrec recursion limit                                              512 (U)
 DBCSR| Multiplication stack size                                           1000 (D)
 DBCSR| Maximum elements for images                                    UNLIMITED (U)
 DBCSR| Multiplicative factor virtual images                                   1 (U)
 DBCSR| Use multiplication densification                                       T (D)
 DBCSR| Multiplication size stacks                                             3 (U)
 DBCSR| Use memory pool for CPU allocation                                     F (U)
 DBCSR| Number of 3D layers                                               SINGLE (U)
 DBCSR| Use MPI memory allocation                                              F (U)
 DBCSR| Use RMA algorithm                                                      F (U)
 DBCSR| Use Communication thread                                               T (U)
 DBCSR| Communication thread load                                             87 (D)
 DBCSR| MPI: My process id                                                     0
 DBCSR| MPI: Number of processes                                              32
 DBCSR| OMP: Current number of threads                                         1
 DBCSR| OMP: Max number of threads                                             1
 DBCSR| Split modifier for TAS multiplication algorithm                  1.0E+00 (U)


  **** **** ******  **  PROGRAM STARTED AT               2024-09-23 22:24:11.113
 ***** ** ***  *** **   PROGRAM STARTED ON                                moritz
 **    ****   ******    PROGRAM STARTED BY                                   ole
 ***** **    ** ** **   PROGRAM PROCESS ID                                163259
  **** **  *******  **  PROGRAM STARTED IN /home/ole/git/pao_ml_equivar/64H2O_MD
                                           /Frame0200

 CP2K| version string:                 CP2K version 2024.3 (Development Version)
 CP2K| source code revision number:                                  git:3f890bb
 CP2K| cp2kflags: omp libint fftw3 libxc libgrpp pexsi elpa parallel scalapack c
 CP2K|            osma quip deepmd xsmm plumed2 spglib libdftd4 sirius libvori l
 CP2K|            libbqb libvdwxc hdf5
 CP2K| is freely available from                            https://www.cp2k.org/
 CP2K| Program compiled at                          Mo 23 Sep 2024 17:17:04 CEST
 CP2K| Program compiled on                                                moritz
 CP2K| Program compiled for                                                local
 CP2K| Data directory path                               /home/ole/git/cp2k/data
 CP2K| Input file name                                           64H2O_pao44.inp

 GLOBAL| Force Environment number                                              1
 GLOBAL| Basis set file name                                        BASIS_MOLOPT
 GLOBAL| Potential file name                                      GTH_POTENTIALS
 GLOBAL| MM Potential file name                                     MM_POTENTIAL
 GLOBAL| Coordinate file name                                         coords.xyz
 GLOBAL| Method name                                                        CP2K
 GLOBAL| Project name                                                64H2O_pao44
 GLOBAL| Run type                                                         ENERGY
 GLOBAL| FFT library                                                       FFTW3
 GLOBAL| Diagonalization library                                            ELPA
 GLOBAL| DGEMM library                                                      BLAS
 GLOBAL| Minimum number of eigenvectors for ELPA usage                        16
 GLOBAL| Orthonormality check for eigenvectors                          DISABLED
 GLOBAL| Matrix multiplication library                                     COSMA
 GLOBAL| All-to-all communication in single precision                          F
 GLOBAL| FFTs using library dependent lengths                                  F
 GLOBAL| Grid backend                                                       AUTO
 GLOBAL| Global print level                                                  LOW
 GLOBAL| MPI I/O enabled                                                       T
 GLOBAL| Total number of message passing processes                            32
 GLOBAL| Number of threads for this process                                    1
 GLOBAL| This output is from process                                           0
 GLOBAL| Stack size for threads created by OpenMP (OMP_STACKSIZE)        default
 GLOBAL| CPU model name           AMD Ryzen Threadripper 3970X 32-Core Processor
 GLOBAL| CPUID                                                              1002

 MEMORY| system memory details [Kb]
 MEMORY|                        rank 0           min           max       average
 MEMORY| MemTotal            131752136     131752136     131752136     131752136
 MEMORY| MemFree             117086084     117086084     117086084     117086084
 MEMORY| Buffers                275088        275088        275088        275088
 MEMORY| Cached                8490160       8490160       8490164       8490160
 MEMORY| Slab                   768372        768372        768372        768372
 MEMORY| SReclaimable           319428        319428        319428        319428
 MEMORY| MemLikelyFree       126170760     126170760     126170764     126170760


 GENERATE|  Preliminary Number of Bonds generated:                             0
 GENERATE|  Achieved consistency in connectivity generation.

 *******************************************************************************
 *******************************************************************************
 **                                                                           **
 **     #####                         ##              ##                      **
 **    ##   ##            ##          ##              ##                      **
 **   ##     ##                       ##            ######                    **
 **   ##     ##  ##   ##  ##   #####  ##  ##   ####   ##    #####    #####    **
 **   ##     ##  ##   ##  ##  ##      ## ##   ##      ##   ##   ##  ##   ##   **
 **   ##  ## ##  ##   ##  ##  ##      ####     ###    ##   ######   ######    **
 **    ##  ###   ##   ##  ##  ##      ## ##      ##   ##   ##       ##        **
 **     #######   #####   ##   #####  ##  ##  ####    ##    #####   ##        **
 **           ##                                                    ##        **
 **                                                                           **
 **                                                ... make the atoms dance   **
 **                                                                           **
 **            Copyright (C) by CP2K developers group (2000-2024)             **
 **                      J. Chem. Phys. 152, 194103 (2020)                    **
 **                                                                           **
 *******************************************************************************


 TOTAL NUMBERS AND MAXIMUM NUMBERS

  Total number of            - Atomic kinds:                                   2
                             - Atoms:                                        192
                             - Shell sets:                                   192
                             - Shells:                                       704
                             - Primitive Cartesian functions:               1344
                             - Cartesian basis functions:                   1536
                             - Spherical basis functions:                   1472

  Maximum angular momentum of- Orbital basis functions:                        2
                             - Local part of the GTH pseudopotential:          2
                             - Non-local part of the GTH pseudopotential:      0

 ------------------------------ Linear scaling SCF -----------------------------
 eps_scf:                                                              0.100E-07
 eps_filter:                                                           0.100E-11
 mixing_fraction:                                                      0.450E+00
 max_scf:                                                                     25
 fixed chemical potential (mu)                                                 F
 has unit metric:                                                              F
 Computing inv(S):                                                             T
 Computing sqrt(S):                                                            T
 Computing S preconditioner                                                    F
 S sqrt method:                                                     NEWTONSCHULZ
 S sqrt order:                                                                 3
 Extrapolation order:                                                          1
 S preconditioner type                                                      NONE
 Polarized Atomic Orbitals (PAO)                                               T
 Purification method                                   Trace resetting 4th order
 Cluster type                                                             ATOMIC
 Computing Chebyshev                                                       FALSE
 Using PAO                                                                     T
 -------------------------------------------------------------------------------

 
 PAO|                                  EPS_PAO                           0.5E-06
 PAO|                                  MIXING                            0.5E+00
 PAO|                                  MAX_PAO                              1500
 PAO|                                  MAX_CYCLES                           1000
 PAO|                                  PARAMETERIZATION              EQUIVARIANT
 PAO|                                  PRECONDITION                            F
 PAO|                                  REGULARIZATION                    0.0E+00
 PAO|                                  EPS_PGF                           0.1E-09
 PAO|                                  PENALTY_DISTANCE                  0.1E+00
 PAO|                                  PENALTY_STRENGTH                  0.5E-02
 PAO|                                  LINPOT_PRECONDITION_DELTA         0.0E+00
 PAO|                                  LINPOT_INITGUESS_DELT             0.0E+00
 PAO|                                  LINPOT_REGULARIZATION_DELTA       0.0E+00
 PAO|                                  LINPOT_REGULARIZATION_STRENGTH    0.0E+00
 PAO|                                  OPTIMIZER                              CG
 PAO|                                  CG_INIT_STEPS                           2
 PAO|                                  CG_RESET_LIMIT                    0.1E+00
 PAO|                                  CHECK_UNITARY_TOL                -0.1E+01
 PAO|                                  CHECK_GRADIENT_TOL               -0.1E+01
 PAO|                                  NUM_GRADIENT_ORDER                      2
 PAO|                                  NUM_GRADIENT_EPS                  0.1E-07
 PAO|                                  PRINT%RESTART%WRITE_CYCLES            100
 PAO|                                  RESTART_FILE 
 PAO|                                  PREOPT_DM_FILE 64H2O_ref_LS_DM_SPIN_1_RESTART.dm
 PAO|                                  MACHINE_LEARNING%METHOD       GAUSSIAN_PR
 PAO|                                  MACHINE_LEARNING%PRIOR               ZERO
 PAO|                                  MACHINE_LEARNING%DESCRIPTOR     POTENTIAL
 PAO|                                  MACHINE_LEARNING%TOLERANCE        0.1E-01
 PAO|                                  MACHINE_LEARNING%GP_NOISE_VAR     0.1E+00
 PAO|                                  MACHINE_LEARNING%GP_SCALE         0.5E-01
 

 Calculating atomic Fock matrix for atomic kind: O

 Electronic structure
    Total number of core electrons                                          2.00
    Total number of valence electrons                                       6.00
    Total number of electrons                                               8.00
    Multiplicity                                                   not specified
    S   [  2.00] 2.00
    P      4.00


 *******************************************************************************
                  Iteration          Convergence                     Energy [au]
 *******************************************************************************
                          1        0.708315                     -15.576645311500
                          2        0.608879                     -15.587933561584
                          3        0.102828E-01                 -15.656849565404
                          4        0.113889E-02                 -15.656866888140
                          5        0.434197E-03                 -15.656867072159
                          6        0.263771E-03                 -15.656867091904
                          7        0.478536E-06                 -15.656867103452

 Energy components [Hartree]           Total Energy ::          -15.656867103452
                                        Band Energy ::           -3.000198112285
                                     Kinetic Energy ::           11.759971203220
                                   Potential Energy ::          -27.416838306672
                                      Virial (-V/T) ::            2.331369510426
                                        Core Energy ::          -26.140716385623
                                          XC Energy ::           -3.154051012914
                                     Coulomb Energy ::           13.637900295084
                       Total Pseudopotential Energy ::          -37.935781716540
                       Local Pseudopotential Energy ::          -39.218907440693
                    Nonlocal Pseudopotential Energy ::            1.283125724153
                                        Confinement ::            0.350941276976

 Orbital energies  State     L     Occupation   Energy[a.u.]          Energy[eV]

                       1     0          2.000      -0.864471          -23.523463

                       1     1          4.000      -0.317814           -8.648154


 Total Electron Density at R=0:                                         0.000068

 Calculating atomic Fock matrix for atomic kind: H

 Electronic structure
    Total number of core electrons                                          0.00
    Total number of valence electrons                                       1.00
    Total number of electrons                                               1.00
    Multiplicity                                                   not specified
    S      1.00


 *******************************************************************************
                  Iteration          Convergence                     Energy [au]
 *******************************************************************************
                          1        0.437545E-02                  -0.424159432110
                          2        0.531356E-03                  -0.424178438213
                          3        0.259176E-06                  -0.424178722480

 Energy components [Hartree]           Total Energy ::           -0.424178722480
                                        Band Energy ::           -0.199015229016
                                     Kinetic Energy ::            0.464007633961
                                   Potential Energy ::           -0.888186356441
                                      Virial (-V/T) ::            1.914163240935
                                        Core Energy ::           -0.479160803564
                                          XC Energy ::           -0.244352904054
                                     Coulomb Energy ::            0.299334985138
                       Total Pseudopotential Energy ::           -0.962295316385
                       Local Pseudopotential Energy ::           -0.962295316385
                    Nonlocal Pseudopotential Energy ::            0.000000000000
                                        Confinement ::            0.191268788606

 Orbital energies  State     L     Occupation   Energy[a.u.]          Energy[eV]

                       1     0          1.000      -0.199015           -5.415480


 Total Electron Density at R=0:                                         0.242907
 PAO| Made initial guess for matrix_X with norm:   27.712812921102035     

     Lanczos converged:  T threshold:   0.100E-02
     Est. extremal eigenvalues:    0.599E+01   0.923E-01
     Est. condition number :    0.649E+02

 Order=           3
     NS sqrt iter    1 1.00000000   0.146E+01       0.022     2614.550
     NS sqrt iter    2 1.00000000   0.797E+00       0.034     3307.026
     NS sqrt iter    3 1.00000000   0.319E+00       0.034     3289.168
     NS sqrt iter    4 1.00000000   0.861E-01       0.034     3321.009
     NS sqrt iter    5 1.00000000   0.275E-02       0.034     3308.844
     NS sqrt iter    6 1.00000000   0.181E-06       0.029     2883.861
     Symmetrizing Results
     Final NS sqrt iter    6 1.00000000   0.655E-13

 PAO| Read restart DM 64H2O_ref_LS_DM_SPIN_1_RESTART.dm with checksum:    6085.8484697456452     
 PAO| Quickstep energy from restart density:  -1103.1390939413659     
 PAO| ======================= Iteration:         1 =============================

     Lanczos converged:  T threshold:   0.100E-02
     Est. extremal eigenvalues:    0.599E+01   0.923E-01
     Est. condition number :    0.649E+02

 Order=           3
     NS sqrt iter    1 1.00000000   0.146E+01       0.021     2651.156
     NS sqrt iter    2 1.00000000   0.797E+00       0.034     3304.334
     NS sqrt iter    3 1.00000000   0.319E+00       0.034     3329.650
     NS sqrt iter    4 1.00000000   0.861E-01       0.034     3305.761
     NS sqrt iter    5 1.00000000   0.275E-02       0.034     3311.566
     NS sqrt iter    6 1.00000000   0.181E-06       0.029     2887.217
     Symmetrizing Results
     Final NS sqrt iter    6 1.00000000   0.655E-13

     Est. extremal eigenvalues     -0.81076     2.59469  converged:  T
     TRS4 it   1 1.00000000   0.272E+02       0.007     2072.187   0.100E-11
     TRS4 it   2 1.00000000   0.235E+02       0.013     2128.595   0.100E-11
     TRS4 it   3 1.00000000   0.159E+02       0.013     2133.571   0.100E-11
     TRS4 it   4 1.00000000   0.997E+01       0.013     2131.428   0.100E-11
     TRS4 it   5 1.00000000   0.482E+01       0.013     2147.326   0.100E-11
     TRS4 it   6 1.00000000   0.161E+01       0.013     2164.667   0.100E-11
     TRS4 it   7 1.00000000   0.318E+00       0.013     2134.920   0.100E-11
     TRS4 it   8 1.00000000   0.226E-01       0.013     2145.227   0.100E-11
     TRS4 it   9 1.00000000   0.214E-03       0.013     2115.782   0.100E-11
     TRS4 it  10 1.00000000   0.363E-07       0.013     2135.873   0.100E-11
     TRS4 it  11 1.00000000   0.888E-14       0.013     2137.627   0.100E-11
     Final TRS4 iteration   11 1.00000000   0.888E-14
     Chemical potential (mu):       0.01252
 
 PAO| energy:  -185.62546961732423      penalty:   1.4236474148910448E-031
 PAO|CG| warming up with steepest descent
 PAO|CG| beta:    0.0000000000000000     
 PAO| norm of gradient:   3.9871292817527064     
 PAO|LS| adapt:  T F F
 PAO|LS| adapt: scan_steps:    0.0000000000000000        0.0000000000000000        0.0000000000000000     
 PAO|LS| adapt: energies:   -185.62546961732423        0.0000000000000000        0.0000000000000000     
 PAO| ======================= Iteration:         2 =============================

     Lanczos converged:  T threshold:   0.100E-02
     Est. extremal eigenvalues:    0.577E+01   0.992E-01
     Est. condition number :    0.582E+02

 Order=           3
     NS sqrt iter    1 1.00000000   0.142E+01       0.022     2639.096
     NS sqrt iter    2 1.00000000   0.767E+00       0.034     3312.831
     NS sqrt iter    3 1.00000000   0.299E+00       0.034     3312.142
     NS sqrt iter    4 1.00000000   0.718E-01       0.034     3328.950
     NS sqrt iter    5 1.00000000   0.168E-02       0.034     3329.088
     NS sqrt iter    6 1.00000000   0.484E-07       0.030     2867.466
     Symmetrizing Results
     Final NS sqrt iter    6 1.00000000   0.753E-14

     Est. extremal eigenvalues     -0.81403     2.58929  converged:  T
     TRS4 it   1 1.00000000   0.274E+02       0.007     2088.065   0.100E-11
     TRS4 it   2 1.00000000   0.235E+02       0.013     2127.877   0.100E-11
     TRS4 it   3 1.00000000   0.158E+02       0.013     2133.323   0.100E-11
     TRS4 it   4 1.00000000   0.976E+01       0.013     2150.107   0.100E-11
     TRS4 it   5 1.00000000   0.460E+01       0.013     2168.655   0.100E-11
     TRS4 it   6 1.00000000   0.148E+01       0.013     2150.221   0.100E-11
     TRS4 it   7 1.00000000   0.272E+00       0.013     2146.811   0.100E-11
     TRS4 it   8 1.00000000   0.160E-01       0.013     2135.325   0.100E-11
     TRS4 it   9 1.00000000   0.983E-04       0.013     2148.610   0.100E-11
     TRS4 it  10 1.00000000   0.883E-08       0.013     2141.843   0.100E-11
     TRS4 it  11 1.00000000   0.178E-13       0.013     2147.417   0.100E-11
     Final TRS4 iteration   11 1.00000000   0.178E-13
     Chemical potential (mu):       0.01881
 
 PAO| energy:  -187.08437840001486      penalty:   4.7439909585276118E-007
 PAO|LS| adapt:  T T F
 PAO|LS| adapt: scan_steps:    0.0000000000000000       0.10000000000000001        0.0000000000000000     
 PAO|LS| adapt: energies:   -185.62546961732423       -187.08437840001486        0.0000000000000000     
 PAO| ======================= Iteration:         3 =============================

     Lanczos converged:  T threshold:   0.100E-02
     Est. extremal eigenvalues:    0.555E+01   0.106E+00
     Est. condition number :    0.526E+02

 Order=           3
     NS sqrt iter    1 1.00000000   0.137E+01       0.022     2635.115
     NS sqrt iter    2 1.00000000   0.737E+00       0.034     3324.112
     NS sqrt iter    3 1.00000000   0.278E+00       0.034     3311.857
     NS sqrt iter    4 1.00000000   0.596E-01       0.034     3296.509
     NS sqrt iter    5 1.00000000   0.103E-02       0.034     3295.147
     NS sqrt iter    6 1.00000000   0.133E-07       0.030     2865.840
     Symmetrizing Results
     Final NS sqrt iter    6 1.00000000   0.443E-14

     Est. extremal eigenvalues     -0.81719     2.58676  converged:  T
     TRS4 it   1 1.00000000   0.276E+02       0.007     2100.211   0.100E-11
     TRS4 it   2 1.00000000   0.235E+02       0.013     2156.686   0.100E-11
     TRS4 it   3 1.00000000   0.157E+02       0.013     2150.360   0.100E-11
     TRS4 it   4 1.00000000   0.957E+01       0.013     2131.722   0.100E-11
     TRS4 it   5 1.00000000   0.440E+01       0.013     2133.942   0.100E-11
     TRS4 it   6 1.00000000   0.135E+01       0.013     2144.496   0.100E-11
     TRS4 it   7 1.00000000   0.229E+00       0.013     2151.946   0.100E-11
     TRS4 it   8 1.00000000   0.110E-01       0.013     2142.132   0.100E-11
     TRS4 it   9 1.00000000   0.420E-04       0.013     2145.503   0.100E-11
     TRS4 it  10 1.00000000   0.184E-08       0.013     2139.076   0.100E-11
     TRS4 it  11 1.00000000   0.355E-13       0.013     2164.510   0.100E-11
     Final TRS4 iteration   11 1.00000000   0.355E-13
     Chemical potential (mu):       0.02619
 
 PAO| energy:  -188.26523106725682      penalty:   7.5903855336725451E-006
 PAO|LS| adapt:  T T F
 PAO|LS| adapt: scan_steps:    0.0000000000000000       0.20000000000000001        0.0000000000000000     
 PAO|LS| adapt: energies:   -185.62546961732423       -188.26523106725682        0.0000000000000000     
 PAO| ======================= Iteration:         4 =============================

     Lanczos converged:  F threshold:   0.100E-02
     Est. extremal eigenvalues:    0.515E+01   0.117E+00
     Est. condition number :    0.439E+02

 Order=           3
     NS sqrt iter    1 1.00000000   0.129E+01       0.021     2656.947
     NS sqrt iter    2 1.00000000   0.682E+00       0.034     3309.137
     NS sqrt iter    3 1.00000000   0.241E+00       0.034     3295.991
     NS sqrt iter    4 1.00000000   0.411E-01       0.034     3314.918
     NS sqrt iter    5 1.00000000   0.405E-03       0.034     3341.399
     NS sqrt iter    6 1.00000000   0.104E-08       0.030     2752.889
     Symmetrizing Results
     Final NS sqrt iter    6 1.00000000   0.223E-13

     Est. extremal eigenvalues     -0.82253     2.59128  converged:  T
     TRS4 it   1 1.00000000   0.281E+02       0.007     2097.786   0.100E-11
     TRS4 it   2 1.00000000   0.235E+02       0.013     2142.582   0.100E-11
     TRS4 it   3 1.00000000   0.156E+02       0.013     2149.361   0.100E-11
     TRS4 it   4 1.00000000   0.924E+01       0.013     2143.861   0.100E-11
     TRS4 it   5 1.00000000   0.404E+01       0.013     2136.978   0.100E-11
     TRS4 it   6 1.00000000   0.113E+01       0.013     2152.631   0.100E-11
     TRS4 it   7 1.00000000   0.162E+00       0.013     2164.095   0.100E-11
     TRS4 it   8 1.00000000   0.506E-02       0.013     2152.465   0.100E-11
     TRS4 it   9 1.00000000   0.735E-05       0.013     2149.866   0.100E-11
     TRS4 it  10 1.00000000   0.615E-10       0.013     2147.526   0.100E-11
     Final TRS4 iteration   10 1.00000000   0.615E-10
     Chemical potential (mu):       0.04350
 
 PAO| energy:  -189.75075670349264      penalty:   1.2144616853898874E-004
 PAO|LS| Need extra step
 PAO|LS| adapt:  T T F
 PAO|LS| adapt: scan_steps:    0.0000000000000000       0.40000000000000002        0.0000000000000000     
 PAO|LS| adapt: energies:   -185.62546961732423       -189.75075670349264        0.0000000000000000     
 PAO| ======================= Iteration:         5 =============================

     Lanczos converged:  F threshold:   0.100E-02
     Est. extremal eigenvalues:    0.454E+01   0.134E+00
     Est. condition number :    0.340E+02

 Order=           3
     NS sqrt iter    1 1.00000000   0.118E+01       0.021     2659.738
     NS sqrt iter    2 1.00000000   0.598E+00       0.034     3316.106
     NS sqrt iter    3 1.00000000   0.186E+00       0.034     3318.965
     NS sqrt iter    4 1.00000000   0.214E-01       0.034     3334.079
     NS sqrt iter    5 1.00000000   0.755E-04       0.034     3323.199
     NS sqrt iter    6 1.00000000   0.935E-11       0.016     2087.234
     Symmetrizing Results
     Final NS sqrt iter    6 1.00000000   0.169E-11

     Est. extremal eigenvalues     -0.82643     2.59235  converged:  T
     TRS4 it   1 1.00000000   0.287E+02       0.007     2064.035   0.100E-11
     TRS4 it   2 1.00000000   0.235E+02       0.013     2148.964   0.100E-11
     TRS4 it   3 1.00000000   0.153E+02       0.013     2146.584   0.100E-11
     TRS4 it   4 1.00000000   0.875E+01       0.013     2162.328   0.100E-11
     TRS4 it   5 1.00000000   0.352E+01       0.013     2153.908   0.100E-11
     TRS4 it   6 1.00000000   0.840E+00       0.013     2131.750   0.100E-11
     TRS4 it   7 1.00000000   0.874E-01       0.013     2144.265   0.100E-11
     TRS4 it   8 1.00000000   0.137E-02       0.013     2137.273   0.100E-11
     TRS4 it   9 1.00000000   0.556E-06       0.013     2170.620   0.100E-11
     TRS4 it  10 1.00000000   0.405E-12       0.013     2146.136   0.100E-11
     Final TRS4 iteration   10 1.00000000   0.405E-12
     Chemical potential (mu):       0.06618
 
 PAO| energy:  -189.34837479011807      penalty:   1.9431386966256331E-003
 PAO|LS| Need extra step
 PAO|LS| adapt:  T T T
 PAO|LS| adapt: scan_steps:    0.0000000000000000       0.40000000000000002       0.80000000000000004     
 PAO|LS| adapt: energies:   -185.62546961732423       -189.75075670349264       -189.34837479011807     
 PAO|LS| adapt: suggested step_size:   0.56445129593924082     
 PAO|LS| adapt: predicted energy  -190.13340456619568     
 PAO| ======================= Iteration:         6 =============================

     Lanczos converged:  F threshold:   0.100E-02
     Est. extremal eigenvalues:    0.486E+01   0.124E+00
     Est. condition number :    0.393E+02

 Order=           3
     NS sqrt iter    1 1.00000000   0.124E+01       0.022     2633.091
     NS sqrt iter    2 1.00000000   0.642E+00       0.034     3325.079
     NS sqrt iter    3 1.00000000   0.215E+00       0.034     3309.070
     NS sqrt iter    4 1.00000000   0.309E-01       0.034     3299.319
     NS sqrt iter    5 1.00000000   0.196E-03       0.034     3309.979
     NS sqrt iter    6 1.00000000   0.140E-09       0.027     2484.400
     Symmetrizing Results
     Final NS sqrt iter    6 1.00000000   0.132E-11

     Est. extremal eigenvalues     -0.82542     2.59400  converged:  T
     TRS4 it   1 1.00000000   0.284E+02       0.007     2108.619   0.100E-11
     TRS4 it   2 1.00000000   0.235E+02       0.013     2171.571   0.100E-11
     TRS4 it   3 1.00000000   0.154E+02       0.013     2150.349   0.100E-11
     TRS4 it   4 1.00000000   0.902E+01       0.013     2142.016   0.100E-11
     TRS4 it   5 1.00000000   0.380E+01       0.013     2171.508   0.100E-11
     TRS4 it   6 1.00000000   0.991E+00       0.013     2136.805   0.100E-11
     TRS4 it   7 1.00000000   0.123E+00       0.013     2142.230   0.100E-11
     TRS4 it   8 1.00000000   0.278E-02       0.013     2146.575   0.100E-11
     TRS4 it   9 1.00000000   0.217E-05       0.013     2155.541   0.100E-11
     TRS4 it  10 1.00000000   0.571E-11       0.013     2152.253   0.100E-11
     Final TRS4 iteration   10 1.00000000   0.571E-11
     Chemical potential (mu):       0.05424
 
 PAO| energy:  -190.10651819633415      penalty:   4.8155927350079320E-004
 PAO|CG| warming up with steepest descent
 PAO|CG| beta:    0.0000000000000000     
 PAO| norm of gradient:   2.0927120150401253     
 PAO| energy improvement:  -4.4810485790099222     
 PAO| step      6                 -190.106518196  0.409E-02  0.564E+00     2.571
 PAO|LS| adapt:  T F F
 PAO|LS| adapt: scan_steps:    0.0000000000000000        0.0000000000000000        0.0000000000000000     
 PAO|LS| adapt: energies:   -190.10651819633415        0.0000000000000000        0.0000000000000000     
 PAO| ======================= Iteration:         7 =============================

     Lanczos converged:  F threshold:   0.100E-02
     Est. extremal eigenvalues:    0.473E+01   0.131E+00
     Est. condition number :    0.361E+02

 Order=           3
     NS sqrt iter    1 1.00000000   0.121E+01       0.022     2640.466
     NS sqrt iter    2 1.00000000   0.619E+00       0.034     3319.722
     NS sqrt iter    3 1.00000000   0.199E+00       0.034     3330.785
     NS sqrt iter    4 1.00000000   0.249E-01       0.034     3318.734
     NS sqrt iter    5 1.00000000   0.109E-03       0.034     3320.960
     NS sqrt iter    6 1.00000000   0.261E-10       0.019     2164.645
     Symmetrizing Results
     Final NS sqrt iter    6 1.00000000   0.214E-11

     Est. extremal eigenvalues     -0.82607     2.59275  converged:  T
     TRS4 it   1 1.00000000   0.285E+02       0.007     2083.470   0.100E-11
     TRS4 it   2 1.00000000   0.236E+02       0.013     2152.518   0.100E-11
     TRS4 it   3 1.00000000   0.156E+02       0.013     2153.118   0.100E-11
     TRS4 it   4 1.00000000   0.915E+01       0.013     2122.509   0.100E-11
     TRS4 it   5 1.00000000   0.390E+01       0.013     2145.944   0.100E-11
     TRS4 it   6 1.00000000   0.102E+01       0.013     2163.888   0.100E-11
     TRS4 it   7 1.00000000   0.125E+00       0.013     2127.484   0.100E-11
     TRS4 it   8 1.00000000   0.283E-02       0.013     2139.360   0.100E-11
     TRS4 it   9 1.00000000   0.244E-05       0.013     2140.770   0.100E-11
     TRS4 it  10 1.00000000   0.807E-11       0.013     2169.802   0.100E-11
     Final TRS4 iteration   10 1.00000000   0.807E-11
     Chemical potential (mu):       0.05641
 
 PAO| energy:  -189.21917793164647      penalty:   6.7787774122653188E-004
 PAO|LS| adapt:  T F T
 PAO|LS| adapt: scan_steps:    0.0000000000000000        0.0000000000000000       0.56445129593924082     
 PAO|LS| adapt: energies:   -190.10651819633415        0.0000000000000000       -189.21917793164647     
 PAO| ======================= Iteration:         8 =============================

     Lanczos converged:  F threshold:   0.100E-02
     Est. extremal eigenvalues:    0.479E+01   0.127E+00
     Est. condition number :    0.377E+02

 Order=           3
     NS sqrt iter    1 1.00000000   0.122E+01       0.021     2652.208
     NS sqrt iter    2 1.00000000   0.631E+00       0.034     3313.549
     NS sqrt iter    3 1.00000000   0.207E+00       0.034     3323.346
     NS sqrt iter    4 1.00000000   0.278E-01       0.034     3341.856
     NS sqrt iter    5 1.00000000   0.146E-03       0.034     3307.897
     NS sqrt iter    6 1.00000000   0.612E-10       0.023     2345.806
     Symmetrizing Results
     Final NS sqrt iter    6 1.00000000   0.211E-11

     Est. extremal eigenvalues     -0.82673     2.59377  converged:  T
     TRS4 it   1 1.00000000   0.284E+02       0.007     2089.414   0.100E-11
     TRS4 it   2 1.00000000   0.235E+02       0.013     2150.066   0.100E-11
     TRS4 it   3 1.00000000   0.155E+02       0.013     2154.679   0.100E-11
     TRS4 it   4 1.00000000   0.905E+01       0.013     2147.730   0.100E-11
     TRS4 it   5 1.00000000   0.382E+01       0.013     2155.348   0.100E-11
     TRS4 it   6 1.00000000   0.996E+00       0.013     2153.111   0.100E-11
     TRS4 it   7 1.00000000   0.123E+00       0.013     2155.166   0.100E-11
     TRS4 it   8 1.00000000   0.278E-02       0.013     2145.918   0.100E-11
     TRS4 it   9 1.00000000   0.228E-05       0.013     2156.513   0.100E-11
     TRS4 it  10 1.00000000   0.659E-11       0.013     2169.576   0.100E-11
     Final TRS4 iteration   10 1.00000000   0.659E-11
     Chemical potential (mu):       0.05418
 
 PAO| energy:  -190.48943556416245      penalty:   5.1077688831635581E-004
 PAO|LS| adapt:  T T T
 PAO|LS| adapt: scan_steps:    0.0000000000000000       0.28222564796962041       0.56445129593924082     
 PAO|LS| adapt: energies:   -190.10651819633415       -190.48943556416245       -189.21917793164647     
 PAO|LS| adapt: suggested step_size:   0.20648346062742665     
 PAO|LS| adapt: predicted energy  -190.54897045499158     
 PAO| ======================= Iteration:         9 =============================

     Lanczos converged:  F threshold:   0.100E-02
     Est. extremal eigenvalues:    0.481E+01   0.126E+00
     Est. condition number :    0.381E+02

 Order=           3
     NS sqrt iter    1 1.00000000   0.123E+01       0.021     2656.675
     NS sqrt iter    2 1.00000000   0.634E+00       0.034     3325.824
     NS sqrt iter    3 1.00000000   0.209E+00       0.034     3316.044
     NS sqrt iter    4 1.00000000   0.286E-01       0.034     3309.804
     NS sqrt iter    5 1.00000000   0.158E-03       0.034     3325.270
     NS sqrt iter    6 1.00000000   0.766E-10       0.024     2394.093
     Symmetrizing Results
     Final NS sqrt iter    6 1.00000000   0.199E-11

     Est. extremal eigenvalues     -0.82657     2.59392  converged:  T
     TRS4 it   1 1.00000000   0.284E+02       0.007     2061.332   0.100E-11
     TRS4 it   2 1.00000000   0.235E+02       0.013     2145.876   0.100E-11
     TRS4 it   3 1.00000000   0.155E+02       0.013     2165.220   0.100E-11
     TRS4 it   4 1.00000000   0.903E+01       0.013     2138.655   0.100E-11
     TRS4 it   5 1.00000000   0.381E+01       0.013     2127.187   0.100E-11
     TRS4 it   6 1.00000000   0.993E+00       0.013     2154.216   0.100E-11
     TRS4 it   7 1.00000000   0.123E+00       0.013     2141.888   0.100E-11
     TRS4 it   8 1.00000000   0.278E-02       0.013     2167.012   0.100E-11
     TRS4 it   9 1.00000000   0.224E-05       0.013     2165.113   0.100E-11
     TRS4 it  10 1.00000000   0.633E-11       0.013     2122.116   0.100E-11
     Final TRS4 iteration   10 1.00000000   0.633E-11
     Chemical potential (mu):       0.05398
 
 PAO| energy:  -190.55315769580395      penalty:   4.9385488079469733E-004
 PAO|CG| trace_G_new   0.73597194005339639     
 PAO|CG| trace_G_prev    4.3794435778933023     
 PAO|CG| trace_G_mix   -4.2563498953597768E-002
 PAO|CG| trace_D    4.3794435778933023     
 PAO|CG| trace_D_Gnew   4.2563498953597768E-002
 PAO|CG| beta:   0.17777040054515389     
 PAO| norm of gradient:  0.85788806965325981     
 PAO| energy improvement: -0.44663949946979642     
 PAO| step      9                 -190.553157696  0.168E-02  0.206E+00     1.579
 PAO|LS| adapt:  T F F
 PAO|LS| adapt: scan_steps:    0.0000000000000000        0.0000000000000000        0.0000000000000000     
 PAO|LS| adapt: energies:   -190.55315769580395        0.0000000000000000        0.0000000000000000     
 PAO| ======================= Iteration:        10 =============================

     Lanczos converged:  F threshold:   0.100E-02
     Est. extremal eigenvalues:    0.477E+01   0.130E+00
     Est. condition number :    0.368E+02

 Order=           3
     NS sqrt iter    1 1.00000000   0.122E+01       0.022     2647.170
     NS sqrt iter    2 1.00000000   0.626E+00       0.034     3308.516
     NS sqrt iter    3 1.00000000   0.203E+00       0.034     3315.959
     NS sqrt iter    4 1.00000000   0.265E-01       0.034     3315.253
     NS sqrt iter    5 1.00000000   0.127E-03       0.034     3314.984
     NS sqrt iter    6 1.00000000   0.389E-10       0.021     2246.108
     Symmetrizing Results
     Final NS sqrt iter    6 1.00000000   0.224E-11

     Est. extremal eigenvalues     -0.82715     2.58123  converged:  T
     TRS4 it   1 1.00000000   0.284E+02       0.007     2091.828   0.100E-11
     TRS4 it   2 1.00000000   0.235E+02       0.013     2146.686   0.100E-11
     TRS4 it   3 1.00000000   0.155E+02       0.013     2177.279   0.100E-11
     TRS4 it   4 1.00000000   0.902E+01       0.013     2124.015   0.100E-11
     TRS4 it   5 1.00000000   0.379E+01       0.013     2132.587   0.100E-11
     TRS4 it   6 1.00000000   0.981E+00       0.013     2140.471   0.100E-11
     TRS4 it   7 1.00000000   0.119E+00       0.013     2151.297   0.100E-11
     TRS4 it   8 1.00000000   0.262E-02       0.013     2157.088   0.100E-11
     TRS4 it   9 1.00000000   0.202E-05       0.013     2148.270   0.100E-11
     TRS4 it  10 1.00000000   0.522E-11       0.013     2152.131   0.100E-11
     Final TRS4 iteration   10 1.00000000   0.522E-11
     Chemical potential (mu):       0.05481
 
 PAO| energy:  -190.65378569511753      penalty:   4.9645207988542682E-004
 PAO|LS| adapt:  T T F
 PAO|LS| adapt: scan_steps:    0.0000000000000000       0.20648346062742665        0.0000000000000000     
 PAO|LS| adapt: energies:   -190.55315769580395       -190.65378569511753        0.0000000000000000     
 PAO| ======================= Iteration:        11 =============================

     Lanczos converged:  F threshold:   0.100E-02
     Est. extremal eigenvalues:    0.472E+01   0.133E+00
     Est. condition number :    0.355E+02

 Order=           3
     NS sqrt iter    1 1.00000000   0.121E+01       0.022     2644.666
     NS sqrt iter    2 1.00000000   0.618E+00       0.034     3307.896
     NS sqrt iter    3 1.00000000   0.198E+00       0.034     3303.259
     NS sqrt iter    4 1.00000000   0.246E-01       0.034     3320.381
     NS sqrt iter    5 1.00000000   0.101E-03       0.034     3317.626
     NS sqrt iter    6 1.00000000   0.195E-10       0.018     2125.403
     Symmetrizing Results
     Final NS sqrt iter    6 1.00000000   0.204E-11

     Est. extremal eigenvalues     -0.82725     2.56875  converged:  T
     TRS4 it   1 1.00000000   0.284E+02       0.007     2074.918   0.100E-11
     TRS4 it   2 1.00000000   0.234E+02       0.013     2154.387   0.100E-11
     TRS4 it   3 1.00000000   0.154E+02       0.013     2159.219   0.100E-11
     TRS4 it   4 1.00000000   0.899E+01       0.013     2154.507   0.100E-11
     TRS4 it   5 1.00000000   0.376E+01       0.013     2146.633   0.100E-11
     TRS4 it   6 1.00000000   0.966E+00       0.013     2145.908   0.100E-11
     TRS4 it   7 1.00000000   0.115E+00       0.013     2165.401   0.100E-11
     TRS4 it   8 1.00000000   0.245E-02       0.013     2147.577   0.100E-11
     TRS4 it   9 1.00000000   0.179E-05       0.013     2155.314   0.100E-11
     TRS4 it  10 1.00000000   0.416E-11       0.013     2183.823   0.100E-11
     Final TRS4 iteration   10 1.00000000   0.416E-11
     Chemical potential (mu):       0.05573
 
 PAO| energy:  -190.65763470307309      penalty:   5.0899146815599626E-004
 PAO|LS| adapt:  T T F
 PAO|LS| adapt: scan_steps:    0.0000000000000000       0.41296692125485329        0.0000000000000000     
 PAO|LS| adapt: energies:   -190.55315769580395       -190.65763470307309        0.0000000000000000     
 PAO| ======================= Iteration:        12 =============================

     Lanczos converged:  F threshold:   0.100E-02
     Est. extremal eigenvalues:    0.463E+01   0.140E+00
     Est. condition number :    0.332E+02

 Order=           3
     NS sqrt iter    1 1.00000000   0.119E+01       0.021     2663.944
     NS sqrt iter    2 1.00000000   0.603E+00       0.034     3321.884
     NS sqrt iter    3 1.00000000   0.188E+00       0.034     3326.896
     NS sqrt iter    4 1.00000000   0.211E-01       0.034     3309.052
     NS sqrt iter    5 1.00000000   0.639E-04       0.034     3319.402
     NS sqrt iter    6 1.00000000   0.451E-11       0.014     2083.546
     Symmetrizing Results
     Final NS sqrt iter    6 1.00000000   0.115E-11

     Est. extremal eigenvalues     -0.82615     2.54633  converged:  T
     TRS4 it   1 1.00000000   0.283E+02       0.007     2120.137   0.100E-11
     TRS4 it   2 1.00000000   0.233E+02       0.013     2152.911   0.100E-11
     TRS4 it   3 1.00000000   0.154E+02       0.013     2146.656   0.100E-11
     TRS4 it   4 1.00000000   0.893E+01       0.013     2169.389   0.100E-11
     TRS4 it   5 1.00000000   0.370E+01       0.013     2141.625   0.100E-11
     TRS4 it   6 1.00000000   0.931E+00       0.013     2122.509   0.100E-11
     TRS4 it   7 1.00000000   0.106E+00       0.013     2109.889   0.100E-11
     TRS4 it   8 1.00000000   0.210E-02       0.013     2150.232   0.100E-11
     TRS4 it   9 1.00000000   0.135E-05       0.013     2161.674   0.100E-11
     TRS4 it  10 1.00000000   0.237E-11       0.013     2158.322   0.100E-11
     Final TRS4 iteration   10 1.00000000   0.237E-11
     Chemical potential (mu):       0.05779
 
 PAO| energy:  -190.39257459274586      penalty:   5.7125325340567576E-004
 PAO|LS| Need extra step
 PAO|LS| adapt:  T T T
 PAO|LS| adapt: scan_steps:    0.0000000000000000       0.41296692125485329       0.82593384250970658     
 PAO|LS| adapt: energies:   -190.55315769580395       -190.65763470307309       -190.39257459274586     
 PAO|LS| adapt: suggested step_size:   0.32323911514596387     
 PAO|LS| adapt: predicted energy  -190.66635741716590     
 PAO| ======================= Iteration:        13 =============================

     Lanczos converged:  F threshold:   0.100E-02
     Est. extremal eigenvalues:    0.474E+01   0.132E+00
     Est. condition number :    0.360E+02

 Order=           3
     NS sqrt iter    1 1.00000000   0.121E+01       0.022     2637.827
     NS sqrt iter    2 1.00000000   0.622E+00       0.034     3329.795
     NS sqrt iter    3 1.00000000   0.200E+00       0.034     3306.930
     NS sqrt iter    4 1.00000000   0.254E-01       0.034     3303.539
     NS sqrt iter    5 1.00000000   0.111E-03       0.034     3314.749
     NS sqrt iter    6 1.00000000   0.264E-10       0.019     2149.603
     Symmetrizing Results
     Final NS sqrt iter    6 1.00000000   0.215E-11

     Est. extremal eigenvalues     -0.82727     2.57411  converged:  T
     TRS4 it   1 1.00000000   0.284E+02       0.007     2100.025   0.100E-11
     TRS4 it   2 1.00000000   0.234E+02       0.013     2165.253   0.100E-11
     TRS4 it   3 1.00000000   0.154E+02       0.013     2152.707   0.100E-11
     TRS4 it   4 1.00000000   0.900E+01       0.013     2169.652   0.100E-11
     TRS4 it   5 1.00000000   0.377E+01       0.013     2133.038   0.100E-11
     TRS4 it   6 1.00000000   0.972E+00       0.013     2135.338   0.100E-11
     TRS4 it   7 1.00000000   0.117E+00       0.013     2147.754   0.100E-11
     TRS4 it   8 1.00000000   0.253E-02       0.013     2141.105   0.100E-11
     TRS4 it   9 1.00000000   0.189E-05       0.013     2148.797   0.100E-11
     TRS4 it  10 1.00000000   0.457E-11       0.013     2133.958   0.100E-11
     Final TRS4 iteration   10 1.00000000   0.457E-11
     Chemical potential (mu):       0.05532
 
 PAO| energy:  -190.66757834637204      penalty:   5.0223686455585213E-004
 PAO|CG| trace_G_new   0.27764234971117169     
 PAO|CG| trace_G_prev   0.73597194005339639     
 PAO|CG| trace_G_mix   -1.2232623288242475E-002
 PAO|CG| trace_D   0.85923943636909861     
 PAO|CG| trace_D_Gnew   1.2195159024689241E-002
 PAO|CG| beta:   0.39386688163462197     
 PAO| norm of gradient:  0.52691778268641842     
 PAO| energy improvement: -0.11442065056809270     
 PAO| step     13                 -190.667578346  0.103E-02  0.323E+00     2.034
 PAO|LS| adapt:  T F F
 PAO|LS| adapt: scan_steps:    0.0000000000000000        0.0000000000000000        0.0000000000000000     
 PAO|LS| adapt: energies:   -190.66757834637204        0.0000000000000000        0.0000000000000000     
 PAO| ======================= Iteration:        14 =============================

     Lanczos converged:  F threshold:   0.100E-02
     Est. extremal eigenvalues:    0.468E+01   0.134E+00
     Est. condition number :    0.349E+02

 Order=           3
     NS sqrt iter    1 1.00000000   0.120E+01       0.021     2658.435
     NS sqrt iter    2 1.00000000   0.612E+00       0.034     3320.482
     NS sqrt iter    3 1.00000000   0.195E+00       0.034     3317.123
     NS sqrt iter    4 1.00000000   0.235E-01       0.034     3324.213
     NS sqrt iter    5 1.00000000   0.895E-04       0.034     3298.657
     NS sqrt iter    6 1.00000000   0.137E-10       0.016     2102.910
     Symmetrizing Results
     Final NS sqrt iter    6 1.00000000   0.187E-11

     Est. extremal eigenvalues     -0.82774     2.56796  converged:  T
     TRS4 it   1 1.00000000   0.284E+02       0.007     2070.869   0.100E-11
     TRS4 it   2 1.00000000   0.234E+02       0.013     2135.477   0.100E-11
     TRS4 it   3 1.00000000   0.154E+02       0.013     2140.004   0.100E-11
     TRS4 it   4 1.00000000   0.895E+01       0.013     2145.817   0.100E-11
     TRS4 it   5 1.00000000   0.372E+01       0.013     2162.445   0.100E-11
     TRS4 it   6 1.00000000   0.943E+00       0.013     2151.323   0.100E-11
     TRS4 it   7 1.00000000   0.110E+00       0.013     2134.295   0.100E-11
     TRS4 it   8 1.00000000   0.223E-02       0.013     2157.438   0.100E-11
     TRS4 it   9 1.00000000   0.150E-05       0.013     2148.794   0.100E-11
     TRS4 it  10 1.00000000   0.297E-11       0.013     2161.075   0.100E-11
     Final TRS4 iteration   10 1.00000000   0.297E-11
     Chemical potential (mu):       0.05712
 
 PAO| energy:  -190.71932207255099      penalty:   5.0388757973564595E-004
 PAO|LS| adapt:  T T F
 PAO|LS| adapt: scan_steps:    0.0000000000000000       0.32323911514596387        0.0000000000000000     
 PAO|LS| adapt: energies:   -190.66757834637204       -190.71932207255099        0.0000000000000000     
 PAO| ======================= Iteration:        15 =============================

     Lanczos converged:  F threshold:   0.100E-02
     Est. extremal eigenvalues:    0.462E+01   0.137E+00
     Est. condition number :    0.337E+02

 Order=           3
     NS sqrt iter    1 1.00000000   0.119E+01       0.021     2662.563
     NS sqrt iter    2 1.00000000   0.603E+00       0.034     3302.873
     NS sqrt iter    3 1.00000000   0.189E+00       0.034     3319.239
     NS sqrt iter    4 1.00000000   0.218E-01       0.034     3331.447
     NS sqrt iter    5 1.00000000   0.723E-04       0.034     3297.555
     NS sqrt iter    6 1.00000000   0.708E-11       0.015     2104.418
     Symmetrizing Results
     Final NS sqrt iter    6 1.00000000   0.145E-11

     Est. extremal eigenvalues     -0.82781     2.56145  converged:  T
     TRS4 it   1 1.00000000   0.285E+02       0.007     2104.761   0.100E-11
     TRS4 it   2 1.00000000   0.233E+02       0.013     2170.810   0.100E-11
     TRS4 it   3 1.00000000   0.154E+02       0.013     2142.743   0.100E-11
     TRS4 it   4 1.00000000   0.889E+01       0.013     2136.431   0.100E-11
     TRS4 it   5 1.00000000   0.366E+01       0.013     2136.162   0.100E-11
     TRS4 it   6 1.00000000   0.914E+00       0.013     2161.067   0.100E-11
     TRS4 it   7 1.00000000   0.103E+00       0.013     2162.939   0.100E-11
     TRS4 it   8 1.00000000   0.197E-02       0.013     2145.625   0.100E-11
     TRS4 it   9 1.00000000   0.119E-05       0.013     2163.283   0.100E-11
     TRS4 it  10 1.00000000   0.189E-11       0.013     2134.190   0.100E-11
     Final TRS4 iteration   10 1.00000000   0.189E-11
     Chemical potential (mu):       0.05883
 
 PAO| energy:  -190.69927482912547      penalty:   5.1987081589713097E-004
 PAO|LS| adapt:  T T T
 PAO|LS| adapt: scan_steps:    0.0000000000000000       0.32323911514596387       0.64647823029192775     
 PAO|LS| adapt: energies:   -190.66757834637204       -190.71932207255099       -190.69927482912547     
 PAO|LS| adapt: suggested step_size:   0.39459588254237155     
 PAO|LS| adapt: predicted energy  -190.72107136467031     
 PAO| ======================= Iteration:        16 =============================

     Lanczos converged:  F threshold:   0.100E-02
     Est. extremal eigenvalues:    0.467E+01   0.135E+00
     Est. condition number :    0.346E+02

 Order=           3
     NS sqrt iter    1 1.00000000   0.120E+01       0.021     2671.345
     NS sqrt iter    2 1.00000000   0.610E+00       0.034     3300.446
     NS sqrt iter    3 1.00000000   0.193E+00       0.034     3331.196
     NS sqrt iter    4 1.00000000   0.231E-01       0.034     3319.032
     NS sqrt iter    5 1.00000000   0.854E-04       0.034     3309.019
     NS sqrt iter    6 1.00000000   0.119E-10       0.016     2096.107
     Symmetrizing Results
     Final NS sqrt iter    6 1.00000000   0.178E-11

     Est. extremal eigenvalues     -0.82780     2.56655  converged:  T
     TRS4 it   1 1.00000000   0.284E+02       0.007     2126.353   0.100E-11
     TRS4 it   2 1.00000000   0.234E+02       0.013     2145.059   0.100E-11
     TRS4 it   3 1.00000000   0.154E+02       0.013     2161.633   0.100E-11
     TRS4 it   4 1.00000000   0.893E+01       0.013     2154.490   0.100E-11
     TRS4 it   5 1.00000000   0.371E+01       0.013     2166.819   0.100E-11
     TRS4 it   6 1.00000000   0.937E+00       0.013     2140.681   0.100E-11
     TRS4 it   7 1.00000000   0.109E+00       0.013     2164.948   0.100E-11
     TRS4 it   8 1.00000000   0.217E-02       0.013     2153.093   0.100E-11
     TRS4 it   9 1.00000000   0.143E-05       0.013     2174.137   0.100E-11
     TRS4 it  10 1.00000000   0.266E-11       0.013     2146.618   0.100E-11
     Final TRS4 iteration   10 1.00000000   0.266E-11
     Chemical potential (mu):       0.05750
 
 PAO| energy:  -190.72101237626100      penalty:   5.0613506397682894E-004
 PAO|CG| trace_G_new   0.10525528110210240     
 PAO|CG| trace_G_prev   0.27764234971117169     
 PAO|CG| trace_G_mix    4.6147573610227539E-003
 PAO|CG| trace_D   0.40133058769653207     
 PAO|CG| trace_D_Gnew   7.4425579810711434E-004
 PAO|CG| beta:   0.36248261061676973     
 PAO| norm of gradient:  0.32443070308172500     
 PAO| energy improvement:  -5.3434029888961732E-002
 PAO| step     16                 -190.721012376  0.634E-03  0.395E+00     1.589
 PAO|LS| adapt:  T F F
 PAO|LS| adapt: scan_steps:    0.0000000000000000        0.0000000000000000        0.0000000000000000     
 PAO|LS| adapt: energies:   -190.72101237626100        0.0000000000000000        0.0000000000000000     
 PAO| ======================= Iteration:        17 =============================

     Lanczos converged:  F threshold:   0.100E-02
     Est. extremal eigenvalues:    0.464E+01   0.136E+00
     Est. condition number :    0.341E+02

 Order=           3
     NS sqrt iter    1 1.00000000   0.119E+01       0.027     2097.208
     NS sqrt iter    2 1.00000000   0.606E+00       0.041     2775.608
     NS sqrt iter    3 1.00000000   0.191E+00       0.034     3332.674
     NS sqrt iter    4 1.00000000   0.224E-01       0.034     3314.256
     NS sqrt iter    5 1.00000000   0.783E-04       0.034     3324.059
     NS sqrt iter    6 1.00000000   0.911E-11       0.015     2115.194
     Symmetrizing Results
     Final NS sqrt iter    6 1.00000000   0.164E-11

     Est. extremal eigenvalues     -0.82786     2.56409  converged:  T
     TRS4 it   1 1.00000000   0.285E+02       0.007     2110.380   0.100E-11
     TRS4 it   2 1.00000000   0.233E+02       0.013     2153.494   0.100E-11
     TRS4 it   3 1.00000000   0.154E+02       0.013     2153.926   0.100E-11
     TRS4 it   4 1.00000000   0.889E+01       0.013     2138.855   0.100E-11
     TRS4 it   5 1.00000000   0.366E+01       0.013     2140.435   0.100E-11
     TRS4 it   6 1.00000000   0.916E+00       0.013     2170.054   0.100E-11
     TRS4 it   7 1.00000000   0.104E+00       0.013     2164.790   0.100E-11
     TRS4 it   8 1.00000000   0.200E-02       0.013     2163.819   0.100E-11
     TRS4 it   9 1.00000000   0.123E-05       0.013     2178.437   0.100E-11
     TRS4 it  10 1.00000000   0.199E-11       0.013     2136.216   0.100E-11
     Final TRS4 iteration   10 1.00000000   0.199E-11
     Chemical potential (mu):       0.05859
 
 PAO| energy:  -190.72544345938454      penalty:   4.9874479037391580E-004
 PAO|LS| adapt:  T T F
 PAO|LS| adapt: scan_steps:    0.0000000000000000       0.39459588254237155        0.0000000000000000     
 PAO|LS| adapt: energies:   -190.72101237626100       -190.72544345938454        0.0000000000000000     
 PAO| ======================= Iteration:        18 =============================

     Lanczos converged:  F threshold:   0.100E-02
     Est. extremal eigenvalues:    0.461E+01   0.138E+00
     Est. condition number :    0.335E+02

 Order=           3
     NS sqrt iter    1 1.00000000   0.119E+01       0.022     2646.464
     NS sqrt iter    2 1.00000000   0.602E+00       0.034     3351.467
     NS sqrt iter    3 1.00000000   0.189E+00       0.034     3297.260
     NS sqrt iter    4 1.00000000   0.218E-01       0.034     3307.475
     NS sqrt iter    5 1.00000000   0.721E-04       0.034     3298.720
     NS sqrt iter    6 1.00000000   0.701E-11       0.015     2092.995
     Symmetrizing Results
     Final NS sqrt iter    6 1.00000000   0.141E-11

     Est. extremal eigenvalues     -0.82775     2.56146  converged:  T
     TRS4 it   1 1.00000000   0.285E+02       0.007     2102.482   0.100E-11
     TRS4 it   2 1.00000000   0.233E+02       0.013     2159.860   0.100E-11
     TRS4 it   3 1.00000000   0.153E+02       0.013     2150.022   0.100E-11
     TRS4 it   4 1.00000000   0.884E+01       0.013     2165.233   0.100E-11
     TRS4 it   5 1.00000000   0.362E+01       0.013     2145.712   0.100E-11
     TRS4 it   6 1.00000000   0.897E+00       0.013     2160.442   0.100E-11
     TRS4 it   7 1.00000000   0.100E+00       0.013     2135.722   0.100E-11
     TRS4 it   8 1.00000000   0.185E-02       0.013     2140.483   0.100E-11
     TRS4 it   9 1.00000000   0.106E-05       0.013     2160.252   0.100E-11
     TRS4 it  10 1.00000000   0.154E-11       0.013     2145.125   0.100E-11
     Final TRS4 iteration   10 1.00000000   0.154E-11
     Chemical potential (mu):       0.05973
 
 PAO| energy:  -190.65570945820906      penalty:   4.9893423238705679E-004
 PAO|LS| adapt:  T T T
 PAO|LS| adapt: scan_steps:    0.0000000000000000       0.39459588254237155       0.78919176508474309     
 PAO|LS| adapt: energies:   -190.72101237626100       -190.72544345938454       -190.65570945820906     
 PAO|LS| adapt: suggested step_size:   0.22087355198175326     
 PAO|LS| adapt: predicted energy  -190.73263092358417     
 PAO| ======================= Iteration:        19 =============================

     Lanczos converged:  F threshold:   0.100E-02
     Est. extremal eigenvalues:    0.465E+01   0.136E+00
     Est. condition number :    0.343E+02

 Order=           3
     NS sqrt iter    1 1.00000000   0.119E+01       0.022     2634.790
     NS sqrt iter    2 1.00000000   0.608E+00       0.034     3343.041
     NS sqrt iter    3 1.00000000   0.192E+00       0.034     3305.704
     NS sqrt iter    4 1.00000000   0.227E-01       0.034     3316.566
     NS sqrt iter    5 1.00000000   0.813E-04       0.034     3307.211
     NS sqrt iter    6 1.00000000   0.102E-10       0.015     2096.260
     Symmetrizing Results
     Final NS sqrt iter    6 1.00000000   0.171E-11

     Est. extremal eigenvalues     -0.82786     2.56519  converged:  T
     TRS4 it   1 1.00000000   0.284E+02       0.007     2095.204   0.100E-11
     TRS4 it   2 1.00000000   0.234E+02       0.013     2153.962   0.100E-11
     TRS4 it   3 1.00000000   0.154E+02       0.013     2151.807   0.100E-11
     TRS4 it   4 1.00000000   0.891E+01       0.013     2146.372   0.100E-11
     TRS4 it   5 1.00000000   0.368E+01       0.013     2145.639   0.100E-11
     TRS4 it   6 1.00000000   0.925E+00       0.013     2171.051   0.100E-11
     TRS4 it   7 1.00000000   0.106E+00       0.013     2152.466   0.100E-11
     TRS4 it   8 1.00000000   0.208E-02       0.013     2169.695   0.100E-11
     TRS4 it   9 1.00000000   0.131E-05       0.013     2172.545   0.100E-11
     TRS4 it  10 1.00000000   0.231E-11       0.013     2163.260   0.100E-11
     Final TRS4 iteration   10 1.00000000   0.231E-11
     Chemical potential (mu):       0.05811
 
 PAO| energy:  -190.73261707021564      penalty:   5.0107922013583174E-004
 PAO|CG| trace_G_new    2.1563205458262711E-002
 PAO|CG| trace_G_prev   0.10525528110210240     
 PAO|CG| trace_G_mix   -3.7346464903672367E-004
 PAO|CG| trace_D   0.15744800949737053     
 PAO|CG| trace_D_Gnew  -4.8419192007126194E-005
 PAO|CG| beta:   0.20841396153813763     
 PAO| norm of gradient:  0.14684415364005035     
 PAO| energy improvement:  -1.1604693954637924E-002
 PAO| step     19                 -190.732617070  0.287E-03  0.221E+00     1.594
 PAO|LS| adapt:  T F F
 PAO|LS| adapt: scan_steps:    0.0000000000000000        0.0000000000000000        0.0000000000000000     
 PAO|LS| adapt: energies:   -190.73261707021564        0.0000000000000000        0.0000000000000000     
 PAO| ======================= Iteration:        20 =============================

     Lanczos converged:  F threshold:   0.100E-02
     Est. extremal eigenvalues:    0.465E+01   0.136E+00
     Est. condition number :    0.343E+02

 Order=           3
     NS sqrt iter    1 1.00000000   0.119E+01       0.021     2651.261
     NS sqrt iter    2 1.00000000   0.608E+00       0.034     3319.685
     NS sqrt iter    3 1.00000000   0.192E+00       0.034     3312.572
     NS sqrt iter    4 1.00000000   0.227E-01       0.034     3297.282
     NS sqrt iter    5 1.00000000   0.813E-04       0.034     3321.276
     NS sqrt iter    6 1.00000000   0.102E-10       0.015     2111.513
     Symmetrizing Results
     Final NS sqrt iter    6 1.00000000   0.170E-11

     Est. extremal eigenvalues     -0.82787     2.56396  converged:  T
     TRS4 it   1 1.00000000   0.284E+02       0.007     2089.924   0.100E-11
     TRS4 it   2 1.00000000   0.233E+02       0.013     2161.308   0.100E-11
     TRS4 it   3 1.00000000   0.154E+02       0.013     2153.387   0.100E-11
     TRS4 it   4 1.00000000   0.890E+01       0.013     2138.720   0.100E-11
     TRS4 it   5 1.00000000   0.367E+01       0.013     2160.084   0.100E-11
     TRS4 it   6 1.00000000   0.921E+00       0.013     2160.009   0.100E-11
     TRS4 it   7 1.00000000   0.105E+00       0.013     2167.672   0.100E-11
     TRS4 it   8 1.00000000   0.204E-02       0.013     2130.526   0.100E-11
     TRS4 it   9 1.00000000   0.127E-05       0.013     2150.321   0.100E-11
     TRS4 it  10 1.00000000   0.214E-11       0.013     2159.627   0.100E-11
     Final TRS4 iteration   10 1.00000000   0.214E-11
     Chemical potential (mu):       0.05829
 
 PAO| energy:  -190.73646474143567      penalty:   4.9144470648137802E-004
 PAO|LS| adapt:  T T F
 PAO|LS| adapt: scan_steps:    0.0000000000000000       0.22087355198175326        0.0000000000000000     
 PAO|LS| adapt: energies:   -190.73261707021564       -190.73646474143567        0.0000000000000000     
 PAO| ======================= Iteration:        21 =============================

     Lanczos converged:  F threshold:   0.100E-02
     Est. extremal eigenvalues:    0.464E+01   0.136E+00
     Est. condition number :    0.342E+02

 Order=           3
     NS sqrt iter    1 1.00000000   0.119E+01       0.021     2666.403
     NS sqrt iter    2 1.00000000   0.607E+00       0.034     3295.463
     NS sqrt iter    3 1.00000000   0.192E+00       0.034     3309.865
     NS sqrt iter    4 1.00000000   0.228E-01       0.034     3324.773
     NS sqrt iter    5 1.00000000   0.812E-04       0.034     3292.473
     NS sqrt iter    6 1.00000000   0.101E-10       0.015     2086.456
     Symmetrizing Results
     Final NS sqrt iter    6 1.00000000   0.171E-11

     Est. extremal eigenvalues     -0.82787     2.56273  converged:  T
     TRS4 it   1 1.00000000   0.284E+02       0.007     2126.464   0.100E-11
     TRS4 it   2 1.00000000   0.233E+02       0.013     2160.394   0.100E-11
     TRS4 it   3 1.00000000   0.154E+02       0.013     2141.144   0.100E-11
     TRS4 it   4 1.00000000   0.888E+01       0.013     2154.311   0.100E-11
     TRS4 it   5 1.00000000   0.366E+01       0.013     2165.851   0.100E-11
     TRS4 it   6 1.00000000   0.917E+00       0.013     2146.659   0.100E-11
     TRS4 it   7 1.00000000   0.104E+00       0.013     2138.232   0.100E-11
     TRS4 it   8 1.00000000   0.201E-02       0.013     2166.400   0.100E-11
     TRS4 it   9 1.00000000   0.124E-05       0.013     2153.546   0.100E-11
     TRS4 it  10 1.00000000   0.204E-11       0.013     2140.221   0.100E-11
     Final TRS4 iteration   10 1.00000000   0.204E-11
     Chemical potential (mu):       0.05848
 
 PAO| energy:  -190.73846421436252      penalty:   4.8224260513278960E-004
 PAO|LS| adapt:  T T F
 PAO|LS| adapt: scan_steps:    0.0000000000000000       0.44174710396350653        0.0000000000000000     
 PAO|LS| adapt: energies:   -190.73261707021564       -190.73846421436252        0.0000000000000000     
 PAO| ======================= Iteration:        22 =============================

     Lanczos converged:  F threshold:   0.100E-02
     Est. extremal eigenvalues:    0.464E+01   0.136E+00
     Est. condition number :    0.341E+02

 Order=           3
     NS sqrt iter    1 1.00000000   0.119E+01       0.022     2633.424
     NS sqrt iter    2 1.00000000   0.607E+00       0.034     3325.896
     NS sqrt iter    3 1.00000000   0.192E+00       0.034     3310.479
     NS sqrt iter    4 1.00000000   0.228E-01       0.034     3314.409
     NS sqrt iter    5 1.00000000   0.812E-04       0.034     3300.910
     NS sqrt iter    6 1.00000000   0.100E-10       0.015     2088.596
     Symmetrizing Results
     Final NS sqrt iter    6 1.00000000   0.169E-11

     Est. extremal eigenvalues     -0.82787     2.56023  converged:  T
     TRS4 it   1 1.00000000   0.284E+02       0.007     2093.096   0.100E-11
     TRS4 it   2 1.00000000   0.233E+02       0.013     2199.015   0.100E-11
     TRS4 it   3 1.00000000   0.154E+02       0.013     2135.198   0.100E-11
     TRS4 it   4 1.00000000   0.886E+01       0.013     2145.939   0.100E-11
     TRS4 it   5 1.00000000   0.364E+01       0.013     2141.853   0.100E-11
     TRS4 it   6 1.00000000   0.908E+00       0.013     2163.875   0.100E-11
     TRS4 it   7 1.00000000   0.103E+00       0.013     2150.926   0.100E-11
     TRS4 it   8 1.00000000   0.195E-02       0.013     2166.083   0.100E-11
     TRS4 it   9 1.00000000   0.117E-05       0.013     2188.066   0.100E-11
     TRS4 it  10 1.00000000   0.182E-11       0.013     2170.979   0.100E-11
     Final TRS4 iteration   10 1.00000000   0.182E-11
     Chemical potential (mu):       0.05886
 
 PAO| energy:  -190.73683626373222      penalty:   4.6510797736507318E-004
 PAO|LS| Need extra step
 PAO|LS| adapt:  T T T
 PAO|LS| adapt: scan_steps:    0.0000000000000000       0.44174710396350653       0.88349420792701305     
 PAO|LS| adapt: energies:   -190.73261707021564       -190.73846421436252       -190.73683626373222     
 PAO|LS| adapt: suggested step_size:   0.56641552440253651     
 PAO|LS| adapt: predicted energy  -190.73876189610536     
 PAO| ======================= Iteration:        23 =============================

     Lanczos converged:  F threshold:   0.100E-02
     Est. extremal eigenvalues:    0.464E+01   0.136E+00
     Est. condition number :    0.342E+02

 Order=           3
     NS sqrt iter    1 1.00000000   0.119E+01       0.021     2650.612
     NS sqrt iter    2 1.00000000   0.607E+00       0.034     3314.797
     NS sqrt iter    3 1.00000000   0.192E+00       0.034     3313.880
     NS sqrt iter    4 1.00000000   0.228E-01       0.034     3328.180
     NS sqrt iter    5 1.00000000   0.812E-04       0.034     3341.209
     NS sqrt iter    6 1.00000000   0.101E-10       0.015     2105.466
     Symmetrizing Results
     Final NS sqrt iter    6 1.00000000   0.171E-11

     Est. extremal eigenvalues     -0.82787     2.56203  converged:  T
     TRS4 it   1 1.00000000   0.284E+02       0.007     2082.766   0.100E-11
     TRS4 it   2 1.00000000   0.233E+02       0.013     2170.973   0.100E-11
     TRS4 it   3 1.00000000   0.154E+02       0.013     2179.725   0.100E-11
     TRS4 it   4 1.00000000   0.888E+01       0.013     2163.291   0.100E-11
     TRS4 it   5 1.00000000   0.366E+01       0.013     2141.055   0.100E-11
     TRS4 it   6 1.00000000   0.914E+00       0.013     2136.604   0.100E-11
     TRS4 it   7 1.00000000   0.104E+00       0.013     2183.299   0.100E-11
     TRS4 it   8 1.00000000   0.199E-02       0.013     2144.789   0.100E-11
     TRS4 it   9 1.00000000   0.122E-05       0.013     2149.685   0.100E-11
     TRS4 it  10 1.00000000   0.199E-11       0.013     2159.663   0.100E-11
     Final TRS4 iteration   10 1.00000000   0.199E-11
     Chemical potential (mu):       0.05859
 
 PAO| energy:  -190.73876904499593      penalty:   4.7723672217957110E-004
 PAO|CG| trace_G_new    1.6444476116694823E-002
 PAO|CG| trace_G_prev    2.1563205458262711E-002
 PAO|CG| trace_G_mix    1.1383707914095170E-004
 PAO|CG| trace_D    2.8422359400141733E-002
 PAO|CG| trace_D_Gnew  -4.7484517530410001E-005
 PAO|CG| beta:   0.75733819209593456     
 PAO| norm of gradient:  0.12823601723655809     
 PAO| energy improvement:  -6.1519747802947222E-003
 PAO| step     23                 -190.738769045  0.250E-03  0.566E+00     2.020
 PAO|LS| adapt:  T F F
 PAO|LS| adapt: scan_steps:    0.0000000000000000        0.0000000000000000        0.0000000000000000     
 PAO|LS| adapt: energies:   -190.73876904499593        0.0000000000000000        0.0000000000000000     
 PAO| ======================= Iteration:        24 =============================

     Lanczos converged:  F threshold:   0.100E-02
     Est. extremal eigenvalues:    0.463E+01   0.135E+00
     Est. condition number :    0.342E+02

 Order=           3
     NS sqrt iter    1 1.00000000   0.119E+01       0.022     2646.539
     NS sqrt iter    2 1.00000000   0.606E+00       0.034     3324.330
     NS sqrt iter    3 1.00000000   0.192E+00       0.034     3330.065
     NS sqrt iter    4 1.00000000   0.228E-01       0.034     3299.772
     NS sqrt iter    5 1.00000000   0.816E-04       0.034     3344.397
     NS sqrt iter    6 1.00000000   0.102E-10       0.016     2077.593
     Symmetrizing Results
     Final NS sqrt iter    6 1.00000000   0.172E-11

     Est. extremal eigenvalues     -0.82789     2.55996  converged:  T
     TRS4 it   1 1.00000000   0.285E+02       0.007     2101.234   0.100E-11
     TRS4 it   2 1.00000000   0.233E+02       0.013     2199.185   0.100E-11
     TRS4 it   3 1.00000000   0.153E+02       0.013     2159.517   0.100E-11
     TRS4 it   4 1.00000000   0.885E+01       0.013     2161.998   0.100E-11
     TRS4 it   5 1.00000000   0.364E+01       0.013     2168.890   0.100E-11
     TRS4 it   6 1.00000000   0.906E+00       0.013     2165.039   0.100E-11
     TRS4 it   7 1.00000000   0.102E+00       0.013     2163.457   0.100E-11
     TRS4 it   8 1.00000000   0.192E-02       0.013     2160.665   0.100E-11
     TRS4 it   9 1.00000000   0.114E-05       0.013     2144.811   0.100E-11
     TRS4 it  10 1.00000000   0.175E-11       0.013     2166.471   0.100E-11
     Final TRS4 iteration   10 1.00000000   0.175E-11
     Chemical potential (mu):       0.05901
 
 PAO| energy:  -190.74211368639990      penalty:   4.4023404888872067E-004
 PAO|LS| adapt:  T T F
 PAO|LS| adapt: scan_steps:    0.0000000000000000       0.56641552440253651        0.0000000000000000     
 PAO|LS| adapt: energies:   -190.73876904499593       -190.74211368639990        0.0000000000000000     
 PAO| ======================= Iteration:        25 =============================

     Lanczos converged:  F threshold:   0.100E-02
     Est. extremal eigenvalues:    0.462E+01   0.135E+00
     Est. condition number :    0.342E+02

 Order=           3
     NS sqrt iter    1 1.00000000   0.119E+01       0.022     2618.358
     NS sqrt iter    2 1.00000000   0.606E+00       0.034     3312.576
     NS sqrt iter    3 1.00000000   0.192E+00       0.034     3301.761
     NS sqrt iter    4 1.00000000   0.228E-01       0.034     3321.121
     NS sqrt iter    5 1.00000000   0.822E-04       0.034     3322.112
     NS sqrt iter    6 1.00000000   0.105E-10       0.016     2095.035
     Symmetrizing Results
     Final NS sqrt iter    6 1.00000000   0.169E-11

     Est. extremal eigenvalues     -0.82788     2.55790  converged:  T
     TRS4 it   1 1.00000000   0.285E+02       0.007     2083.351   0.100E-11
     TRS4 it   2 1.00000000   0.233E+02       0.013     2163.710   0.100E-11
     TRS4 it   3 1.00000000   0.153E+02       0.013     2131.458   0.100E-11
     TRS4 it   4 1.00000000   0.883E+01       0.013     2129.445   0.100E-11
     TRS4 it   5 1.00000000   0.362E+01       0.013     2137.296   0.100E-11
     TRS4 it   6 1.00000000   0.897E+00       0.013     2144.921   0.100E-11
     TRS4 it   7 1.00000000   0.100E+00       0.013     2161.453   0.100E-11
     TRS4 it   8 1.00000000   0.186E-02       0.013     2141.356   0.100E-11
     TRS4 it   9 1.00000000   0.107E-05       0.013     2168.620   0.100E-11
     TRS4 it  10 1.00000000   0.154E-11       0.013     2144.052   0.100E-11
     Final TRS4 iteration   10 1.00000000   0.154E-11
     Chemical potential (mu):       0.05942
 
 PAO| energy:  -190.73327187620689      penalty:   4.0722453041682350E-004
 PAO|LS| adapt:  T T T
 PAO|LS| adapt: scan_steps:    0.0000000000000000       0.56641552440253651        1.1328310488050730     
 PAO|LS| adapt: energies:   -190.73876904499593       -190.74211368639990       -190.73327187620689     
 PAO|LS| adapt: suggested step_size:   0.43866374540447467     
 PAO|LS| adapt: predicted energy  -190.74242365013765     
 PAO| ======================= Iteration:        26 =============================

     Lanczos converged:  F threshold:   0.100E-02
     Est. extremal eigenvalues:    0.464E+01   0.136E+00
     Est. condition number :    0.342E+02

 Order=           3
     NS sqrt iter    1 1.00000000   0.119E+01       0.021     2661.359
     NS sqrt iter    2 1.00000000   0.607E+00       0.034     3297.918
     NS sqrt iter    3 1.00000000   0.192E+00       0.034     3291.032
     NS sqrt iter    4 1.00000000   0.228E-01       0.034     3324.183
     NS sqrt iter    5 1.00000000   0.815E-04       0.034     3297.246
     NS sqrt iter    6 1.00000000   0.102E-10       0.015     2102.154
     Symmetrizing Results
     Final NS sqrt iter    6 1.00000000   0.171E-11

     Est. extremal eigenvalues     -0.82789     2.56043  converged:  T
     TRS4 it   1 1.00000000   0.285E+02       0.007     2073.271   0.100E-11
     TRS4 it   2 1.00000000   0.233E+02       0.013     2156.206   0.100E-11
     TRS4 it   3 1.00000000   0.154E+02       0.013     2178.983   0.100E-11
     TRS4 it   4 1.00000000   0.886E+01       0.013     2149.048   0.100E-11
     TRS4 it   5 1.00000000   0.364E+01       0.013     2165.998   0.100E-11
     TRS4 it   6 1.00000000   0.908E+00       0.013     2171.499   0.100E-11
     TRS4 it   7 1.00000000   0.102E+00       0.013     2164.513   0.100E-11
     TRS4 it   8 1.00000000   0.194E-02       0.013     2158.433   0.100E-11
     TRS4 it   9 1.00000000   0.116E-05       0.013     2148.427   0.100E-11
     TRS4 it  10 1.00000000   0.181E-11       0.013     2160.857   0.100E-11
     Final TRS4 iteration   10 1.00000000   0.181E-11
     Chemical potential (mu):       0.05891
 
 PAO| energy:  -190.74241252159143      penalty:   4.4822448371668313E-004
 PAO|CG| trace_G_new    1.3548424435452865E-002
 PAO|CG| trace_G_prev    1.6444476116694823E-002
 PAO|CG| trace_G_mix    2.5096738856628098E-004
 PAO|CG| trace_D    3.2818360573668180E-002
 PAO|CG| trace_D_Gnew  -7.7561830651135086E-005
 PAO|CG| beta:   0.80862758731405793     
 PAO| norm of gradient:  0.11639769944226933     
 PAO| energy improvement:  -3.6434765954993509E-003
 PAO| step     26                 -190.742412522  0.227E-03  0.439E+00     1.557
 PAO|LS| adapt:  T F F
 PAO|LS| adapt: scan_steps:    0.0000000000000000        0.0000000000000000        0.0000000000000000     
 PAO|LS| adapt: energies:   -190.74241252159143        0.0000000000000000        0.0000000000000000     
 PAO| ======================= Iteration:        27 =============================

     Lanczos converged:  F threshold:   0.100E-02
     Est. extremal eigenvalues:    0.462E+01   0.135E+00
     Est. condition number :    0.343E+02

 Order=           3
     NS sqrt iter    1 1.00000000   0.119E+01       0.021     2652.772
     NS sqrt iter    2 1.00000000   0.605E+00       0.034     3299.129
     NS sqrt iter    3 1.00000000   0.191E+00       0.034     3311.119
     NS sqrt iter    4 1.00000000   0.227E-01       0.034     3349.447
     NS sqrt iter    5 1.00000000   0.817E-04       0.034     3327.253
     NS sqrt iter    6 1.00000000   0.104E-10       0.016     2092.888
     Symmetrizing Results
     Final NS sqrt iter    6 1.00000000   0.170E-11

     Est. extremal eigenvalues     -0.82790     2.55870  converged:  T
     TRS4 it   1 1.00000000   0.285E+02       0.007     2102.967   0.100E-11
     TRS4 it   2 1.00000000   0.233E+02       0.013     2160.757   0.100E-11
     TRS4 it   3 1.00000000   0.153E+02       0.013     2161.909   0.100E-11
     TRS4 it   4 1.00000000   0.884E+01       0.013     2151.275   0.100E-11
     TRS4 it   5 1.00000000   0.362E+01       0.013     2165.067   0.100E-11
     TRS4 it   6 1.00000000   0.899E+00       0.013     2145.178   0.100E-11
     TRS4 it   7 1.00000000   0.101E+00       0.013     2146.312   0.100E-11
     TRS4 it   8 1.00000000   0.187E-02       0.013     2167.560   0.100E-11
     TRS4 it   9 1.00000000   0.109E-05       0.013     2154.069   0.100E-11
     TRS4 it  10 1.00000000   0.159E-11       0.013     2177.397   0.100E-11
     Final TRS4 iteration   10 1.00000000   0.159E-11
     Chemical potential (mu):       0.05933
 
 PAO| energy:  -190.74504145964673      penalty:   4.1144054651477371E-004
 PAO|LS| adapt:  T T F
 PAO|LS| adapt: scan_steps:    0.0000000000000000       0.43866374540447467        0.0000000000000000     
 PAO|LS| adapt: energies:   -190.74241252159143       -190.74504145964673        0.0000000000000000     
 PAO| ======================= Iteration:        28 =============================

     Lanczos converged:  F threshold:   0.100E-02
     Est. extremal eigenvalues:    0.461E+01   0.134E+00
     Est. condition number :    0.343E+02

 Order=           3
     NS sqrt iter    1 1.00000000   0.118E+01       0.022     2637.584
     NS sqrt iter    2 1.00000000   0.604E+00       0.034     3337.235
     NS sqrt iter    3 1.00000000   0.191E+00       0.034     3315.732
     NS sqrt iter    4 1.00000000   0.226E-01       0.034     3311.028
     NS sqrt iter    5 1.00000000   0.820E-04       0.034     3298.878
     NS sqrt iter    6 1.00000000   0.106E-10       0.015     2107.552
     Symmetrizing Results
     Final NS sqrt iter    6 1.00000000   0.174E-11

     Est. extremal eigenvalues     -0.82790     2.55694  converged:  T
     TRS4 it   1 1.00000000   0.285E+02       0.007     2109.223   0.100E-11
     TRS4 it   2 1.00000000   0.233E+02       0.013     2167.144   0.100E-11
     TRS4 it   3 1.00000000   0.153E+02       0.013     2134.332   0.100E-11
     TRS4 it   4 1.00000000   0.882E+01       0.013     2149.240   0.100E-11
     TRS4 it   5 1.00000000   0.361E+01       0.013     2140.962   0.100E-11
     TRS4 it   6 1.00000000   0.891E+00       0.013     2152.279   0.100E-11
     TRS4 it   7 1.00000000   0.989E-01       0.013     2178.884   0.100E-11
     TRS4 it   8 1.00000000   0.181E-02       0.013     2173.035   0.100E-11
     TRS4 it   9 1.00000000   0.102E-05       0.013     2172.749   0.100E-11
     TRS4 it  10 1.00000000   0.145E-11       0.013     2168.718   0.100E-11
     Final TRS4 iteration   10 1.00000000   0.145E-11
     Chemical potential (mu):       0.05975
 
 PAO| energy:  -190.74092613435812      penalty:   3.7799179889945244E-004
 PAO|LS| adapt:  T T T
 PAO|LS| adapt: scan_steps:    0.0000000000000000       0.43866374540447467       0.87732749080894934     
 PAO|LS| adapt: energies:   -190.74241252159143       -190.74504145964673       -190.74092613435812     
 PAO|LS| adapt: suggested step_size:   0.39032457493924388     
 PAO|LS| adapt: predicted energy  -190.74508240828141     
 PAO| ======================= Iteration:        29 =============================

     Lanczos converged:  F threshold:   0.100E-02
     Est. extremal eigenvalues:    0.463E+01   0.135E+00
     Est. condition number :    0.342E+02

 Order=           3
     NS sqrt iter    1 1.00000000   0.119E+01       0.021     2665.073
     NS sqrt iter    2 1.00000000   0.605E+00       0.034     3311.547
     NS sqrt iter    3 1.00000000   0.192E+00       0.034     3294.140
     NS sqrt iter    4 1.00000000   0.227E-01       0.034     3320.062
     NS sqrt iter    5 1.00000000   0.817E-04       0.034     3322.348
     NS sqrt iter    6 1.00000000   0.104E-10       0.016     2089.159
     Symmetrizing Results
     Final NS sqrt iter    6 1.00000000   0.170E-11

     Est. extremal eigenvalues     -0.82790     2.55889  converged:  T
     TRS4 it   1 1.00000000   0.285E+02       0.007     2087.220   0.100E-11
     TRS4 it   2 1.00000000   0.233E+02       0.013     2165.330   0.100E-11
     TRS4 it   3 1.00000000   0.153E+02       0.013     2149.089   0.100E-11
     TRS4 it   4 1.00000000   0.884E+01       0.013     2163.870   0.100E-11
     TRS4 it   5 1.00000000   0.363E+01       0.013     2167.504   0.100E-11
     TRS4 it   6 1.00000000   0.900E+00       0.013     2146.826   0.100E-11
     TRS4 it   7 1.00000000   0.101E+00       0.013     2154.722   0.100E-11
     TRS4 it   8 1.00000000   0.188E-02       0.013     2157.222   0.100E-11
     TRS4 it   9 1.00000000   0.110E-05       0.013     2169.450   0.100E-11
[...]
     TRS4 it   3 1.00000000   0.155E+02       0.014     1971.313   0.100E-11
     TRS4 it   4 1.00000000   0.918E+01       0.014     1975.050   0.100E-11
     TRS4 it   5 1.00000000   0.414E+01       0.013     2134.551   0.100E-11
     TRS4 it   6 1.00000000   0.130E+01       0.014     2101.467   0.100E-11
     TRS4 it   7 1.00000000   0.224E+00       0.014     2104.802   0.100E-11
     TRS4 it   8 1.00000000   0.102E-01       0.013     2126.073   0.100E-11
     TRS4 it   9 1.00000000   0.365E-04       0.013     2110.598   0.100E-11
     TRS4 it  10 1.00000000   0.155E-08       0.013     2125.957   0.100E-11
     TRS4 it  11 1.00000000   0.533E-14       0.013     2155.531   0.100E-11
     Final TRS4 iteration   11 1.00000000   0.533E-14
     Chemical potential (mu):       0.02893
 
 PAO| energy:  -190.35267211303989      penalty:   1.8880570834895598E-008
 PAO| Writing restart file.
     Est. extremal eigenvalues     -0.82762     2.52190  converged:  T
     TRS4 it   1 1.00000000   0.286E+02       0.007     2068.136   0.100E-11
     TRS4 it   2 1.00000000   0.233E+02       0.013     2148.670   0.100E-11
     TRS4 it   3 1.00000000   0.155E+02       0.013     2124.405   0.100E-11
     TRS4 it   4 1.00000000   0.918E+01       0.013     2130.447   0.100E-11
     TRS4 it   5 1.00000000   0.414E+01       0.013     2108.593   0.100E-11
     TRS4 it   6 1.00000000   0.130E+01       0.013     2122.360   0.100E-11
     TRS4 it   7 1.00000000   0.224E+00       0.013     2129.606   0.100E-11
     TRS4 it   8 1.00000000   0.102E-01       0.014     2103.253   0.100E-11
     TRS4 it   9 1.00000000   0.365E-04       0.013     2129.109   0.100E-11
     TRS4 it  10 1.00000000   0.155E-08       0.013     2124.078   0.100E-11
     TRS4 it  11 1.00000000   0.533E-14       0.013     2114.672   0.100E-11
     Final TRS4 iteration   11 1.00000000   0.533E-14
     Chemical potential (mu):       0.02893

 SCF     1     -1103.048605744     -1103.048605744    2.036207

*********************************************************
 Using MIXING_FRACTION=0.450 to mix KS matrix:  iscf=  2
 KS_nw=0.450*KS + 0.550*KS_old
*********************************************************
     Est. extremal eigenvalues     -0.82762     2.52190  converged:  T
     TRS4 it   1 1.00000000   0.286E+02       0.008     1869.602   0.100E-11
     TRS4 it   2 1.00000000   0.233E+02       0.015     1923.102   0.100E-11
     TRS4 it   3 1.00000000   0.155E+02       0.015     1936.743   0.100E-11
     TRS4 it   4 1.00000000   0.918E+01       0.014     2032.839   0.100E-11
     TRS4 it   5 1.00000000   0.414E+01       0.014     1964.856   0.100E-11
     TRS4 it   6 1.00000000   0.130E+01       0.015     1910.155   0.100E-11
     TRS4 it   7 1.00000000   0.224E+00       0.014     2070.605   0.100E-11
     TRS4 it   8 1.00000000   0.102E-01       0.014     1991.230   0.100E-11
     TRS4 it   9 1.00000000   0.365E-04       0.014     1972.993   0.100E-11
     TRS4 it  10 1.00000000   0.155E-08       0.015     1929.658   0.100E-11
     TRS4 it  11 1.00000000   0.355E-14       0.014     2036.187   0.100E-11
     Final TRS4 iteration   11 1.00000000   0.355E-14
     Chemical potential (mu):       0.02893

 SCF     2     -1103.048605744        -0.000000000    2.112345


 SCF run converged in     2 steps.

 PAO| Storing density matrix for ASPC guess in slot:           1

 ENERGY| Total FORCE_EVAL ( QS ) energy [a.u.]:            -1103.048605743822918

 -------------------------------------------------------------------------------
 -                                                                             -
 -                                DBCSR STATISTICS                             -
 -                                                                             -
 -------------------------------------------------------------------------------
 COUNTER                                    TOTAL       BLAS       SMM       ACC
 flops     5 x     5 x     4             26419200       0.0%    100.0%      0.0%     
 flops    13 x     5 x     4             34078720       0.0%    100.0%      0.0%     
 flops     5 x    13 x     4             34078720       0.0%    100.0%      0.0%     
 flops    13 x    13 x     4             44994560       0.0%    100.0%      0.0%     
 flops     4 x     4 x     5           6543114240       0.0%    100.0%      0.0%     
 flops     5 x     4 x     5           8087142400       0.0%    100.0%      0.0%     
 flops     4 x     4 x    13           8506048512       0.0%    100.0%      0.0%     
 flops    13 x     4 x     5          10513285120       0.0%    100.0%      0.0%     
 flops     5 x     4 x    13          10513285120       0.0%    100.0%      0.0%     
 flops    13 x     4 x    13          13667270656       0.0%    100.0%      0.0%     
 flops     5 x     4 x     4         407813864960       0.0%    100.0%      0.0%     
 flops    13 x     4 x     4         536693584128       0.0%    100.0%      0.0%     
 flops     4 x     4 x     4       29805575460224       0.0%    100.0%      0.0%     
 flops inhomo. stacks                           0       0.0%      0.0%      0.0%
 flops total                        30.808053E+12       0.0%    100.0%      0.0%
 flops max/rank                    972.448350E+09       0.0%    100.0%      0.0%
 matmuls inhomo. stacks                         0       0.0%      0.0%      0.0%
 matmuls total                       236847642243       0.0%    100.0%      0.0%
 number of processed stacks             242014891       0.0%    100.0%      0.0%
 average stack size                                     0.0     978.6       0.0
 marketing flops                    53.972463E+12
 -------------------------------------------------------------------------------
 # multiplications                          50654
 max memory usage/rank             622.485504E+06
 # max total images/rank                        2
 # max 3D layers                                1
 # MPI messages exchanged                21072064
 MPI messages size (bytes):
  total size                         2.478356E+12
  min size                           0.000000E+00
  max size                         541.696000E+03
  average size                     117.613328E+03
 MPI breakdown and total messages size (bytes):
             size <=      128              898464                        0
       128 < size <=     8192              354678               1462766464
      8192 < size <=    32768              157689               3410760704
     32768 < size <=   131072             8925297             649967335936
    131072 < size <=  4194304            10735936            1823886935552
   4194304 < size <= 16777216                   0                        0
  16777216 < size                               0                        0
 -------------------------------------------------------------------------------

 *** WARNING in dbcsr_mm.F:301 :: Using a non-square number of MPI ranks ***
 *** might lead to poor performance. Used ranks: 32 Suggested: 36 64     ***

 -------------------------------------------------------------------------------
 -                                                                             -
 -                      DBCSR MESSAGE PASSING PERFORMANCE                      -
 -                                                                             -
 -------------------------------------------------------------------------------
 ROUTINE             CALLS      AVE VOLUME [Bytes]
 MP_Bcast               14                     12.
 MP_Allreduce       305065                     37.
 MP_Alltoall        130682                  14536.
 MP_ISend          1695606                  54640.
 MP_IRecv          1658266                  55958.
 -------------------------------------------------------------------------------

 -------------------------------------------------------------------------------
 -                                                                             -
 -                                DBM STATISTICS                               -
 -                                                                             -
 -------------------------------------------------------------------------------
    M  x    N  x    K                                          COUNT     PERCENT
 -------------------------------------------------------------------------------

 -------------------------------------------------------------------------------
 -                                                                             -
 -                                GRID STATISTICS                              -
 -                                                                             -
 -------------------------------------------------------------------------------
 LP    KERNEL             BACKEND                              COUNT     PERCENT
 2     collocate ortho    CPU                               13106560      28.82%
 2     integrate ortho    CPU                               13106560      28.82%
 3     collocate ortho    CPU                                8426944      18.53%
 3     integrate ortho    CPU                                8426944      18.53%
 4     collocate ortho    CPU                                1198208       2.64%
 4     integrate ortho    CPU                                1198208       2.64%
 0     collocate general  CPU                                   6144       0.01%
 -------------------------------------------------------------------------------

 MEMORY| Estimated peak process memory [MiB]                                 595

 -------------------------------------------------------------------------------
 -                                                                             -
 -                         MESSAGE PASSING PERFORMANCE                         -
 -                                                                             -
 -------------------------------------------------------------------------------

 ROUTINE             CALLS      AVE VOLUME [Bytes]
 MP_Group                5
 MP_Bcast           452705                   1749.
 MP_Allreduce      1124416                    514.
 MP_Sync                 5
 MP_Alltoall           419                2387843.
 MP_SendRecv          1488                  18832.
 MP_ISendRecv         1488                  18832.
 MP_Wait              4218
 MP_ISend             2470                 108139.
 MP_IRecv             2470                 108153.
 -------------------------------------------------------------------------------


 -------------------------------------------------------------------------------
 -                                                                             -
 -                           R E F E R E N C E S                               -
 -                                                                             -
 -------------------------------------------------------------------------------
 
 CP2K version 2024.3 (Development Version), the CP2K developers group (2024).
 CP2K is freely available from https://www.cp2k.org/ .
 
 T. D. Kuehne, M. Iannuzzi, M. Del Ben, V. V. Rybkin, P. Seewald, F. Stein, T. 
 Laino, R. Z. Khaliullin, O. Schuett, F. Schiffmann, D. Golze, J. Wilhelm, S. 
 Chulkov, M. H. Bani-Hashemian, V. Weber, U. Borstnik, M. Taillefumier, A. S. 
 Jakobovits, A. Lazzaro, H. Pabst, T. Mueller, R. Schade, M. Guidon, S. 
 Andermatt, N. Holmberg, G. K. Schenter, A. Hehn, A. Bussy, F. Belleflamme, G. 
 Tabacchi, A. Gloess, M. Lass, I. Bethune, C. J. Mundy, C. Plessl, M. Watkins, 
 J. VandeVondele, M. Krack, J. Hutter.
 J. Chem. Phys. 152, 194103 (2020).
 CP2K: An electronic structure and molecular dynamics software package - 
 Quickstep: Efficient and accurate electronic structure calculations.
 https://doi.org/10.1063/5.0007045

 O. Schuett, J. VandeVondele.
 J. Chem. Theory Comput. 14, 4168-4175 (2018).
 Machine Learning Adaptive Basis Sets for Efficient Large Scale Density 
 Functional Theory Simulation.
 https://doi.org/10.1021/acs.jctc.8b00378

 O. Schuett, P. Messmer, J. Hutter, J. VandeVondele.
 Electronic Structure Calculations on Graphics Processing Units, 173-190 (2016).
 GPU-Accelerated Sparse Matrix-Matrix Multiplication for Linear Scaling Density 
 Functional Theory.
 https://doi.org/10.1002/9781118670712.ch8

 A. Heinecke, G. Henry, M. Hutchinson, H. Pabst.
 Proceedings of Intl. Supercomputing Conference, 981-991 (2016).
 LIBXSMM: Accelerating Small Matrix Multiplications by Runtime Code Generation.
 https://doi.org/10.1109/SC.2016.83

 J. Hutter, M. Iannuzzi, F. Schiffmann, J. VandeVondele.
 WIREs Comput Mol Sci. 4, 15-25 (2014).
 CP2K: atomistic simulations of condensed matter systems.
 https://doi.org/10.1002/wcms.1159

 U. Borstnik, J. VandeVondele, V. Weber, J. Hutter.
 Parallel Comput. 40, 47-58 (2014).
 Sparse matrix multiplication: The distributed block-compressed sparse row 
 library.
 https://doi.org/10.1016/j.parco.2014.03.012

 A. Marek, V. Blum, R. Johanni, V. Havu, B. Lang, T. Auckenthaler, A. Heinecke, 
 H. Bungartz, H. Lederer.
 J. Phys. Condens. Matter 26, 213201 (2014).
 The ELPA library: scalable parallel eigenvalue solutions for electronic 
 structure theory and computational science.
 https://doi.org/10.1088/0953-8984/26/21/213201

 J. VandeVondele, U. Borstnik, J. Hutter.
 J. Chem. Theory Comput. 8, 3565-3573 (2012).
 Linear Scaling Self-Consistent Field Calculations with Millions of Atoms in the 
 Condensed Phase.
 https://doi.org/10.1021/ct200897x

 J. VandeVondele, J. Hutter.
 J. Chem. Phys. 127, 114105 (2007).
 Gaussian basis sets for accurate calculations on molecular systems in gas and 
 condensed phases.
 https://doi.org/10.1063/1.2770708

 J. VandeVondele, M. Krack, F. Mohamed, M. Parrinello, T. Chassaing, J. Hutter.
 Comput. Phys. Commun. 167, 103-128 (2005).
 QUICKSTEP: Fast and accurate density functional calculations using a mixed 
 Gaussian and plane waves approach.
 https://doi.org/10.1016/j.cpc.2004.12.014

 M. Krack.
 Theor. Chem. Acc. 114, 145-152 (2005).
 Pseudopotentials for H to Kr optimized for gradient-corrected 
 exchange-correlation functionals.
 https://doi.org/10.1007/s00214-005-0655-y

 M. Frigo, S. G. Johnson.
 Proc. IEEE 93, 216-231 (2005).
 The design and implementation of FFTW3.
 https://doi.org/10.1109/JPROC.2004.840301

 A. M. N. Niklasson, C. J. Tymczak, M. Challacombe.
 J. Chem. Phys. 118, 8611-8620 (2003).
 Trace resetting density matrix purification in O(N) self-consistent-field 
 theory.
 https://doi.org/10.1063/1.1559913

 C. Hartwigsen, S. Goedecker, J. Hutter.
 Phys. Rev. B 58, 3641-3662 (1998).
 Relativistic separable dual-space Gaussian pseudopotentials from H to Rn.
 https://doi.org/10.1103/PhysRevB.58.3641

 G. Lippert, J. Hutter, M. Parrinello.
 Mol. Phys. 92, 477-487 (1997).
 A hybrid Gaussian and plane wave density functional scheme.
 https://doi.org/10.1080/002689797170220

 S. Goedecker, M. Teter, J. Hutter.
 Phys. Rev. B 54, 1703-1710 (1996).
 Separable dual-space Gaussian pseudopotentials.
 https://doi.org/10.1103/PhysRevB.54.1703

 J. P. Perdew, K. Burke, M. Ernzerhof.
 Phys. Rev. Lett. 77, 3865-3868 (1996).
 Generalized gradient approximation made simple.
 https://doi.org/10.1103/PhysRevLett.77.3865


 -------------------------------------------------------------------------------
 -                                                                             -
 -                                T I M I N G                                  -
 -                                                                             -
 -------------------------------------------------------------------------------
 SUBROUTINE                       CALLS  ASD         SELF TIME        TOTAL TIME
                                MAXIMUM       AVERAGE  MAXIMUM  AVERAGE  MAXIMUM
 CP2K                                 1  1.0    0.013    0.016  469.693  469.694
 qs_energies                          1  2.0    0.000    0.000  469.540  469.541
 ls_scf                               1  3.0    0.000    0.000  468.429  468.430
 pao_update                           7  4.0    0.006    0.024  436.911  436.912
 pao_calc_energy                    821  5.0    0.003    0.018  392.701  392.703
 dbcsr_multiply_generic           50654  8.4    1.391    1.491  354.938  355.116
 multiply_cannon                  50654  9.4    2.608    2.759  287.720  290.253
 multiply_cannon_loop             50654 10.4    1.901    2.030  277.070  278.529
 ls_scf_init_matrix_S               828  7.0    0.008    0.010  212.458  212.484
 pao_rebuild_S                      821  6.0    0.003    0.003  210.622  210.647
 matrix_sqrt_Newton_Schulz          828  8.0    0.166    0.285  196.762  196.786
 pao_dm_trs4                        821  6.0    0.006    0.007  181.709  181.724
 multiply_cannon_multrec         405232 11.4  176.384  178.360  177.212  179.166
 density_matrix_trs4                836  7.0    0.213    0.367  176.059  176.091
 mp_waitall_1                   3243604 12.6   96.535  102.248   96.535  102.248
 multiply_cannon_metrocomm3      405232 11.4    0.712    0.739   78.244   80.776
 arnoldi_extremal                  1664  8.5    0.013    0.015   75.159   75.187
 arnoldi_normal_ev                 1664  9.5    0.041    0.071   75.142   75.170
 build_subspace                    7325 10.5    0.443    0.478   65.841   65.887
 dbcsr_matrix_vector_mult        223078 11.5    0.951    1.454   61.671   62.119
 dbcsr_matrix_vector_mult_local  223078 12.5   52.416   52.923   52.664   53.171
 make_m2s                        101308  9.4    0.553    0.742   51.966   52.867
 make_images                     101308 10.4    7.341    7.593   50.596   51.554
 pao_calc_AB                       1090  5.8    0.002    0.002   43.745   43.747
 pao_calc_AB_equi                  1090  6.8    0.040    0.100   43.743   43.746
 pao_calc_grad_lnv_wrt_AB           268  7.0    0.019    0.022   43.333   43.352
 ls_scf_main                          7  4.0    0.000    0.001   27.976   27.977
 make_images_data                101308 11.4    0.880    1.099   22.517   24.581
 ls_scf_dm_to_ks                     15  5.0    0.000    0.000   24.554   24.556
 hybrid_alltoall_any             102959 12.3    0.905    1.766   17.713   21.434
 matrix_qs_to_ls                   1664  7.5    0.016    0.018   17.748   17.809
 qs_ks_update_qs_env                 16  6.0    0.000    0.000   14.460   14.462
 rebuild_ks_matrix                   16  7.0    0.000    0.000   14.449   14.451
 qs_ks_build_kohn_sham_matrix        16  8.0    0.003    0.003   14.449   14.451
 calculate_norms                 756704 11.4   11.589   11.950   11.589   11.950
 qs_rho_update_rho_low               16  6.0    0.000    0.000   11.556   11.558
 calculate_rho_elec                  16  7.0    0.005    0.006   11.556   11.558
 make_images_pack                101308 11.4   11.067   11.271   11.203   11.407
 sum_up_and_integrate                16  9.0    0.000    0.001   11.069   11.072
 integrate_v_rspace                  16 10.0    0.000    0.001   11.054   11.058
 grid_collocate_task_list            16  8.0    9.720   10.257    9.720   10.257
 grid_integrate_task_list            16 11.0    9.292    9.818    9.292    9.818
 -------------------------------------------------------------------------------

 The number of warnings for this run is : 1
 
 -------------------------------------------------------------------------------
  **** **** ******  **  PROGRAM ENDED AT                 2024-09-23 22:32:01.483
 ***** ** ***  *** **   PROGRAM RAN ON                                    moritz
 **    ****   ******    PROGRAM RAN BY                                       ole
 ***** **    ** ** **   PROGRAM PROCESS ID                                163259
  **** **  *******  **  PROGRAM STOPPED IN /home/ole/git/pao_ml_equivar/64H2O_MD
                                           /Frame0200
