     192
 i =      200, time =      300.000, E =     -1100.0599334059
  O         4.9286945122       -5.2391518572        5.0109437759
  H         5.8089007701       -4.9494202225        4.6972128133
  H         4.7331622726       -4.6659210003        5.7886192561
  O        -3.8162162132        2.4810948443        4.4225162547
  H        -4.0973095495        1.6637456170        4.8125664840
  H        -4.1615638281        3.2146334401        4.9647008924
  O         5.1879098685        3.1249109762        5.1810195024
  H         4.2392925002        3.1207957925        5.0709116275
  H         5.5622136335        3.1262894793        4.2981672209
  O        -2.2096601838       -0.2568069754       -3.4240294215
  H        -1.7092981422        0.1194583520       -2.6535163667
  H        -1.6357819760       -0.8841675823       -3.9712973368
  O        -5.1064500300        4.6944707322        5.7755421625
  H        -6.0190939514        4.4408393171        5.7194524189
  H        -4.8921715365        5.3885519829        5.1072844703
  O         6.4838530722        0.6333756470        2.4577417366
  H         6.9953967883        0.0319605994        3.0565931748
  H         7.0282909086        1.4487501011        2.3405539572
  O         4.4393338157       -4.6076901105       -0.7292331563
  H         4.2552071635       -4.2448300252        0.1158837492
  H         4.1502316242       -3.8993160809       -1.3300245384
  O        -2.1217765243       -3.2292064867       -1.2879365514
  H        -2.9417416664       -3.0192097056       -1.7764388792
  H        -1.8465589916       -2.4023726007       -0.8304149080
  O         6.5789132736       -3.3879362093        2.9661770898
  H         5.6780794993       -3.2060389817        3.1899053802
  H         6.9656890464       -2.4828596847        2.8627382253
  O         2.3404515875        4.1599149838        5.2906563580
  H         1.6207596800        3.5020819800        5.0974460972
  H         2.1870183129        4.3499405510        6.2602445570
  O         3.5248788439       -2.9086650940       -2.7581751715
  H         3.7536151072       -3.2353716366       -3.6952215641
  H         3.9851500209       -2.1042820006       -2.6413149255
  O         2.8825891491       -2.7419063069        0.9962325965
  H         2.3557150440       -3.0254649909        1.7422061067
  H         2.1621695109       -2.5149655262        0.3399614588
  O         1.7327230590       -4.8814138374       -5.2068721565
  H         1.9540045012       -5.7394400247       -4.7880929908
  H         1.2740720488       -5.1635824562       -5.9989875408
  O         4.1229229684        3.9832318587       -3.5840662134
  H         4.5389475294        3.2639726392       -3.1118835634
  H         4.1698197724        4.7679279473       -3.0743498609
  O         3.0016927193       -0.8855933675        4.7792895707
  H         3.8685057492       -0.9011424134        5.2408213403
  H         3.2318068960       -0.3280461571        4.0097933414
  O         0.1550081001        2.3259483447        4.9705422761
  H         0.2066500388        1.5267861865        5.5661095867
  H         0.3459320833        2.0015731871        4.0560798722
  O         1.6718530028       -2.8167412574        3.5334375203
  H         2.2850038976       -2.2001197465        4.0116469921
  H         1.4462906292       -3.6003492292        4.0825794821
  O        -1.8222826760        3.1866913178        2.6006529310
  H        -1.1848822048        2.4919866748        2.5035764711
  H        -2.3476407874        2.9879390484        3.4512641625
  O         1.0464518339       -0.0636909690       -5.7570077251
  H         1.8167528646       -0.3283840083       -6.2653130307
  H         1.4277255861        0.1983924896       -4.8491988533
  O        -1.0998206209       -1.0188692945       -0.2736930624
  H        -0.6884743116       -0.1968723044       -0.6202913283
  H        -0.8072657604       -1.0556898211        0.6551792399
  O        -4.0775964202        3.7834769725       -2.4586055603
  H        -4.1568225868        4.7747867955       -2.5764034817
  H        -3.2878531117        3.7019491374       -1.8371972515
  O         5.1223208156        4.4845135961        2.0780264391
  H         4.7135566708        3.8892946547        1.4338507458
  H         4.3680082855        4.8834165315        2.5515070990
  O         4.7482421869        1.2271892712       -3.3370274793
  H         5.2169775088        1.1718007480       -4.2002656404
  H         5.0564317566        0.3885162665       -2.9241569307
  O        -4.0987264321        6.3821892105       -2.8302266207
  H        -4.4713189913        6.8660758072       -2.0775551152
  H        -4.7837430439        6.4089560583       -3.5084738941
  O         5.3746381900       -0.8826778077        0.4147077545
  H         5.7136898345       -0.2576469926        1.1057060235
  H         4.5180689013       -1.2903792113        0.7260294014
  O         2.3732533144        1.1164357505        0.6053426487
  H         2.8406183719        1.7690537019        0.0357285492
  H         2.1038613698        0.4550210609       -0.0338013334
  O        -5.1420924530       -4.1815621716       -1.1289891224
  H        -6.0631088184       -4.2865624508       -0.7109048587
  H        -5.2594590196       -3.4618516490       -1.7308395067
  O        -4.9004399646        5.8535308104        1.3890812896
  H        -5.8729935020        5.5293615044        1.5342978433
  H        -4.5092394700        4.9562449024        1.2403571452
  O         6.2681232687        1.1741047276       -5.5906861776
  H         7.2065308002        1.4293331500       -5.3421002813
  H         5.8252763450        1.7642120409       -6.2096454412
  O         1.7023450595       -1.5695046645       -1.1431706997
  H         1.8042675355       -2.3223413693       -1.7754364382
  H         0.7139358099       -1.4989627625       -0.9399992754
  O         3.9764647974        2.8310947165       -0.5084028686
  H         4.9424689888        2.7285516295       -0.5396395079
  H         3.8131482020        3.8033876973       -0.5651685038
  O        -0.5452411701       -1.6598887273        2.1776694210
  H         0.0784474218       -2.1903591203        2.7558962548
  H        -1.4368909648       -1.9507424910        2.4647906034
  O         1.7601325552       -6.4956255165        1.2996702733
  H         2.3659941698       -6.7284764897        0.6061521679
  H         2.3957635460       -6.4282619177        2.0973166841
  O        -0.0316235211       -3.7431405530       -2.9738421801
  H        -0.9257126676       -3.7826992921       -2.5164405629
  H         0.1371610016       -4.4560450763       -3.6047447552
  O        -4.4113234806        2.7491281752        1.5584977251
  H        -3.4819287056        2.8990425565        1.9192549856
  H        -4.3975096039        2.3476165696        0.7046473923
  O         4.0411783284       -3.6217146493       -5.3669716924
  H         3.1884052669       -4.0303454389       -5.4525591404
  H         4.0336612108       -2.6957254809       -5.6066408545
  O        -0.9260396573        3.3276777833       -2.9086749216
  H        -1.2253169314        3.6159615528       -3.8028069921
  H        -0.5144286284        4.1552788753       -2.5497326355
  O        -4.6516314849       -5.6593101350        4.0685247871
  H        -4.3974672732       -4.7883226010        3.7632945936
  H        -4.9018917641       -6.2040088746        3.2750002243
  O         3.0200234093        5.8059654985        3.5280251993
  H         3.6555930110        6.3613897468        3.9513800393
  H         2.6964290744        5.2045387504        4.2394889724
  O        -3.7603280902        2.1312133587       -4.5597643058
  H        -3.3183309226        1.3633153772       -4.2136122805
  H        -3.8453149482        2.8041446009       -3.8639925365
  O         3.6765792433        0.6964019188        2.8027348920
  H         3.2598212395        0.6138675032        1.9279604041
  H         4.6467607908        0.7804152315        2.6245279161
  O        -4.5726816036       -0.9318863298        4.1510185591
  H        -5.1830815058       -1.4057440523        4.8035900991
  H        -3.9862158858       -1.6279132017        3.7075262810
  O         0.2538718260        1.3492054810        2.4437867018
  H         1.0880659448        1.1535841958        1.9406729456
  H        -0.0192093815        0.4168585351        2.6458574673
  O        -1.5609408557        4.8906206018        0.2316843496
  H        -1.7012926198        4.3759154400        1.0102335457
  H        -1.7699077459        5.8325767948        0.4004966840
  O        -0.6847003595       -1.8704186461       -4.7831513624
  H        -0.0163602810       -2.2706623974       -4.2363387961
  H        -0.2174883839       -1.1760433064       -5.3302646708
  O        -5.4435228630        1.8276960445       -0.7695811271
  H        -5.1171639533        2.3609446362       -1.5123209091
  H        -5.8474125575        1.0087372948       -1.1853227313
  O         5.5554493477       -1.0810310787       -2.0843687505
  H         6.4783540862       -1.1826440207       -2.3840515394
  H         5.5909626804       -1.0663190880       -1.0419450411
  O        -0.2243625719        1.1007774468       -1.7887842405
  H        -0.4886563241        1.9796967847       -2.2015259659
  H         0.5332393449        0.9128645648       -2.2856454904
  O         0.5936163974        5.4265129610       -1.7026355987
  H         0.2563035481        6.3541389331       -1.5193830041
  H         0.2318336070        4.9313162735       -0.9040233698
  O         5.8152332380       -1.4426762073        6.0023561839
  H         6.2603600039       -2.1956888298        6.5202546884
  H         5.9435269375       -0.6794034206        6.5884596772
  O        -1.7855439586       -6.2371670009       -4.9459112015
  H        -1.8362487736       -7.1393976333       -5.3275856811
  H        -2.2635054343       -6.4050243568       -4.1157623939
  O        -4.4236594351       -1.8689109022       -2.8202119656
  H        -4.6346638899       -2.2631751731       -3.7022554479
  H        -3.6843504808       -1.2698719712       -3.0812559308
  O         3.3442949465        5.4869809978       -1.2454956372
  H         2.3623288845        5.5457236432       -1.5659256607
  H         3.6913150762        6.3604992076       -1.0442268841
  O        -5.1796357013       -3.2606719202       -5.0911405877
  H        -4.2756988726       -3.5960396158       -5.4211923123
  H        -5.7903361289       -4.0010002391       -5.1480357654
  O        -0.3446536244        5.5891546096        3.3326567754
  H        -0.8908106867        4.8151959678        3.4739752534
  H         0.2375247276        5.4034321028        2.5591472795
  O        -2.5048367390       -4.1394507312       -6.2438860652
  H        -2.1659069854       -5.0061463434       -5.9808104783
  H        -1.9189857006       -3.4815420938       -5.7622874175
  O        -3.0206418561       -3.0653058759        2.9891004990
  H        -2.6478273659       -3.3770196891        3.7791344058
  H        -2.9846957510       -3.7179801062        2.2145237597
  O         1.9302174282        4.9083547878       -4.4849123100
  H         2.5620432152        4.4160577694       -3.9478847561
  H         1.1168504282        4.5003951572       -4.1069581763
  O         2.1369086250        0.4401345088       -3.2411905252
  H         2.1607664308       -0.2701160432       -2.5852135027
  H         3.0478420215        0.8098634188       -3.2801173235
  O        -1.6745246558        3.4476155013        6.4805101427
  H        -1.1103688849        3.0836893816        5.8309408151
  H        -2.2896185922        2.7843023689        6.8181682357
  O         0.4756489617       -4.5430228860        0.1051580268
  H         0.9867118914       -5.2599462093        0.5604337417
  H        -0.1220091986       -4.2665030359        0.8052509993
  O         6.0869540184        6.2696294329        7.6031837651
  H         5.3186136997        5.7045034094        7.6923473044
  H         6.6366321358        5.7815400003        6.9562416968
  O         0.3755201850       -4.9020293454        5.0127240287
  H         0.2663012555       -5.7448578864        4.4991928847
  H        -0.4084542916       -4.6961750473        5.5051051455
  O        -2.8847216587       -4.7614489753        0.9272471101
  H        -3.8194346017       -5.0852271762        0.8534243746
  H        -2.6343051290       -4.2079442446        0.1471432736
