 DBCSR| CPU Multiplication driver                                           XSMM (U)
 DBCSR| Multrec recursion limit                                              512 (U)
 DBCSR| Multiplication stack size                                           1000 (D)
 DBCSR| Maximum elements for images                                    UNLIMITED (U)
 DBCSR| Multiplicative factor virtual images                                   1 (U)
 DBCSR| Use multiplication densification                                       T (D)
 DBCSR| Multiplication size stacks                                             3 (U)
 DBCSR| Use memory pool for CPU allocation                                     F (U)
 DBCSR| Number of 3D layers                                               SINGLE (U)
 DBCSR| Use MPI memory allocation                                              F (U)
 DBCSR| Use RMA algorithm                                                      F (U)
 DBCSR| Use Communication thread                                               T (U)
 DBCSR| Communication thread load                                             87 (D)
 DBCSR| MPI: My process id                                                     0
 DBCSR| MPI: Number of processes                                              32
 DBCSR| OMP: Current number of threads                                         1
 DBCSR| OMP: Max number of threads                                             1
 DBCSR| Split modifier for TAS multiplication algorithm                  1.0E+00 (U)


  **** **** ******  **  PROGRAM STARTED AT               2024-09-24 06:19:04.786
 ***** ** ***  *** **   PROGRAM STARTED ON                                moritz
 **    ****   ******    PROGRAM STARTED BY                                   ole
 ***** **    ** ** **   PROGRAM PROCESS ID                                170177
  **** **  *******  **  PROGRAM STARTED IN /home/ole/git/pao_ml_equivar/64H2O_MD
                                           /Frame6500

 CP2K| version string:                 CP2K version 2024.3 (Development Version)
 CP2K| source code revision number:                                  git:3f890bb
 CP2K| cp2kflags: omp libint fftw3 libxc libgrpp pexsi elpa parallel scalapack c
 CP2K|            osma quip deepmd xsmm plumed2 spglib libdftd4 sirius libvori l
 CP2K|            libbqb libvdwxc hdf5
 CP2K| is freely available from                            https://www.cp2k.org/
 CP2K| Program compiled at                          Mo 23 Sep 2024 17:17:04 CEST
 CP2K| Program compiled on                                                moritz
 CP2K| Program compiled for                                                local
 CP2K| Data directory path                               /home/ole/git/cp2k/data
 CP2K| Input file name                                           64H2O_pao44.inp

 GLOBAL| Force Environment number                                              1
 GLOBAL| Basis set file name                                        BASIS_MOLOPT
 GLOBAL| Potential file name                                      GTH_POTENTIALS
 GLOBAL| MM Potential file name                                     MM_POTENTIAL
 GLOBAL| Coordinate file name                                         coords.xyz
 GLOBAL| Method name                                                        CP2K
 GLOBAL| Project name                                                64H2O_pao44
 GLOBAL| Run type                                                         ENERGY
 GLOBAL| FFT library                                                       FFTW3
 GLOBAL| Diagonalization library                                            ELPA
 GLOBAL| DGEMM library                                                      BLAS
 GLOBAL| Minimum number of eigenvectors for ELPA usage                        16
 GLOBAL| Orthonormality check for eigenvectors                          DISABLED
 GLOBAL| Matrix multiplication library                                     COSMA
 GLOBAL| All-to-all communication in single precision                          F
 GLOBAL| FFTs using library dependent lengths                                  F
 GLOBAL| Grid backend                                                       AUTO
 GLOBAL| Global print level                                                  LOW
 GLOBAL| MPI I/O enabled                                                       T
 GLOBAL| Total number of message passing processes                            32
 GLOBAL| Number of threads for this process                                    1
 GLOBAL| This output is from process                                           0
 GLOBAL| Stack size for threads created by OpenMP (OMP_STACKSIZE)        default
 GLOBAL| CPU model name           AMD Ryzen Threadripper 3970X 32-Core Processor
 GLOBAL| CPUID                                                              1002

 MEMORY| system memory details [Kb]
 MEMORY|                        rank 0           min           max       average
 MEMORY| MemTotal            131752136     131752136     131752136     131752136
 MEMORY| MemFree             114242172     114242172     114242172     114242172
 MEMORY| Buffers               2029628       2029628       2029628       2029628
 MEMORY| Cached                8726020       8726016       8726020       8726016
 MEMORY| Slab                  1643708       1643708       1643708       1643708
 MEMORY| SReclaimable          1146284       1146284       1146284       1146284
 MEMORY| MemLikelyFree       126144104     126144100     126144104     126144100


 GENERATE|  Preliminary Number of Bonds generated:                             0
 GENERATE|  Achieved consistency in connectivity generation.

 *******************************************************************************
 *******************************************************************************
 **                                                                           **
 **     #####                         ##              ##                      **
 **    ##   ##            ##          ##              ##                      **
 **   ##     ##                       ##            ######                    **
 **   ##     ##  ##   ##  ##   #####  ##  ##   ####   ##    #####    #####    **
 **   ##     ##  ##   ##  ##  ##      ## ##   ##      ##   ##   ##  ##   ##   **
 **   ##  ## ##  ##   ##  ##  ##      ####     ###    ##   ######   ######    **
 **    ##  ###   ##   ##  ##  ##      ## ##      ##   ##   ##       ##        **
 **     #######   #####   ##   #####  ##  ##  ####    ##    #####   ##        **
 **           ##                                                    ##        **
 **                                                                           **
 **                                                ... make the atoms dance   **
 **                                                                           **
 **            Copyright (C) by CP2K developers group (2000-2024)             **
 **                      J. Chem. Phys. 152, 194103 (2020)                    **
 **                                                                           **
 *******************************************************************************


 TOTAL NUMBERS AND MAXIMUM NUMBERS

  Total number of            - Atomic kinds:                                   2
                             - Atoms:                                        192
                             - Shell sets:                                   192
                             - Shells:                                       704
                             - Primitive Cartesian functions:               1344
                             - Cartesian basis functions:                   1536
                             - Spherical basis functions:                   1472

  Maximum angular momentum of- Orbital basis functions:                        2
                             - Local part of the GTH pseudopotential:          2
                             - Non-local part of the GTH pseudopotential:      0

 ------------------------------ Linear scaling SCF -----------------------------
 eps_scf:                                                              0.100E-07
 eps_filter:                                                           0.100E-11
 mixing_fraction:                                                      0.450E+00
 max_scf:                                                                     25
 fixed chemical potential (mu)                                                 F
 has unit metric:                                                              F
 Computing inv(S):                                                             T
 Computing sqrt(S):                                                            T
 Computing S preconditioner                                                    F
 S sqrt method:                                                     NEWTONSCHULZ
 S sqrt order:                                                                 3
 Extrapolation order:                                                          1
 S preconditioner type                                                      NONE
 Polarized Atomic Orbitals (PAO)                                               T
 Purification method                                   Trace resetting 4th order
 Cluster type                                                             ATOMIC
 Computing Chebyshev                                                       FALSE
 Using PAO                                                                     T
 -------------------------------------------------------------------------------

 
 PAO|                                  EPS_PAO                           0.5E-06
 PAO|                                  MIXING                            0.5E+00
 PAO|                                  MAX_PAO                              1500
 PAO|                                  MAX_CYCLES                           1000
 PAO|                                  PARAMETERIZATION              EQUIVARIANT
 PAO|                                  PRECONDITION                            F
 PAO|                                  REGULARIZATION                    0.0E+00
 PAO|                                  EPS_PGF                           0.1E-09
 PAO|                                  PENALTY_DISTANCE                  0.1E+00
 PAO|                                  PENALTY_STRENGTH                  0.5E-02
 PAO|                                  LINPOT_PRECONDITION_DELTA         0.0E+00
 PAO|                                  LINPOT_INITGUESS_DELT             0.0E+00
 PAO|                                  LINPOT_REGULARIZATION_DELTA       0.0E+00
 PAO|                                  LINPOT_REGULARIZATION_STRENGTH    0.0E+00
 PAO|                                  OPTIMIZER                              CG
 PAO|                                  CG_INIT_STEPS                           2
 PAO|                                  CG_RESET_LIMIT                    0.1E+00
 PAO|                                  CHECK_UNITARY_TOL                -0.1E+01
 PAO|                                  CHECK_GRADIENT_TOL               -0.1E+01
 PAO|                                  NUM_GRADIENT_ORDER                      2
 PAO|                                  NUM_GRADIENT_EPS                  0.1E-07
 PAO|                                  PRINT%RESTART%WRITE_CYCLES            100
 PAO|                                  RESTART_FILE 
 PAO|                                  PREOPT_DM_FILE 64H2O_ref_LS_DM_SPIN_1_RESTART.dm
 PAO|                                  MACHINE_LEARNING%METHOD       GAUSSIAN_PR
 PAO|                                  MACHINE_LEARNING%PRIOR               ZERO
 PAO|                                  MACHINE_LEARNING%DESCRIPTOR     POTENTIAL
 PAO|                                  MACHINE_LEARNING%TOLERANCE        0.1E-01
 PAO|                                  MACHINE_LEARNING%GP_NOISE_VAR     0.1E+00
 PAO|                                  MACHINE_LEARNING%GP_SCALE         0.5E-01
 

 Calculating atomic Fock matrix for atomic kind: O

 Electronic structure
    Total number of core electrons                                          2.00
    Total number of valence electrons                                       6.00
    Total number of electrons                                               8.00
    Multiplicity                                                   not specified
    S   [  2.00] 2.00
    P      4.00


 *******************************************************************************
                  Iteration          Convergence                     Energy [au]
 *******************************************************************************
                          1        0.708315                     -15.576645311500
                          2        0.608879                     -15.587933561584
                          3        0.102828E-01                 -15.656849565404
                          4        0.113889E-02                 -15.656866888140
                          5        0.434197E-03                 -15.656867072159
                          6        0.263771E-03                 -15.656867091904
                          7        0.478536E-06                 -15.656867103452

 Energy components [Hartree]           Total Energy ::          -15.656867103452
                                        Band Energy ::           -3.000198112285
                                     Kinetic Energy ::           11.759971203220
                                   Potential Energy ::          -27.416838306672
                                      Virial (-V/T) ::            2.331369510426
                                        Core Energy ::          -26.140716385623
                                          XC Energy ::           -3.154051012914
                                     Coulomb Energy ::           13.637900295084
                       Total Pseudopotential Energy ::          -37.935781716540
                       Local Pseudopotential Energy ::          -39.218907440693
                    Nonlocal Pseudopotential Energy ::            1.283125724153
                                        Confinement ::            0.350941276976

 Orbital energies  State     L     Occupation   Energy[a.u.]          Energy[eV]

                       1     0          2.000      -0.864471          -23.523463

                       1     1          4.000      -0.317814           -8.648154


 Total Electron Density at R=0:                                         0.000068

 Calculating atomic Fock matrix for atomic kind: H

 Electronic structure
    Total number of core electrons                                          0.00
    Total number of valence electrons                                       1.00
    Total number of electrons                                               1.00
    Multiplicity                                                   not specified
    S      1.00


 *******************************************************************************
                  Iteration          Convergence                     Energy [au]
 *******************************************************************************
                          1        0.437545E-02                  -0.424159432110
                          2        0.531356E-03                  -0.424178438213
                          3        0.259176E-06                  -0.424178722480

 Energy components [Hartree]           Total Energy ::           -0.424178722480
                                        Band Energy ::           -0.199015229016
                                     Kinetic Energy ::            0.464007633961
                                   Potential Energy ::           -0.888186356441
                                      Virial (-V/T) ::            1.914163240935
                                        Core Energy ::           -0.479160803564
                                          XC Energy ::           -0.244352904054
                                     Coulomb Energy ::            0.299334985138
                       Total Pseudopotential Energy ::           -0.962295316385
                       Local Pseudopotential Energy ::           -0.962295316385
                    Nonlocal Pseudopotential Energy ::            0.000000000000
                                        Confinement ::            0.191268788606

 Orbital energies  State     L     Occupation   Energy[a.u.]          Energy[eV]

                       1     0          1.000      -0.199015           -5.415480


 Total Electron Density at R=0:                                         0.242907
 PAO| Made initial guess for matrix_X with norm:   27.712812921102035     

     Lanczos converged:  F threshold:   0.100E-02
     Est. extremal eigenvalues:    0.625E+01   0.943E-01
     Est. condition number :    0.663E+02

 Order=           3
     NS sqrt iter    1 1.00000000   0.153E+01       0.021     2658.901
     NS sqrt iter    2 1.00000000   0.828E+00       0.034     3322.879
     NS sqrt iter    3 1.00000000   0.333E+00       0.034     3333.607
     NS sqrt iter    4 1.00000000   0.939E-01       0.034     3356.607
     NS sqrt iter    5 1.00000000   0.350E-02       0.034     3344.466
     NS sqrt iter    6 1.00000000   0.330E-06       0.029     2924.080
     Symmetrizing Results
     Final NS sqrt iter    6 1.00000000   0.170E-12

 PAO| Read restart DM 64H2O_ref_LS_DM_SPIN_1_RESTART.dm with checksum:    6120.8303532688524     
 PAO| Quickstep energy from restart density:  -1103.1340389569846     
 PAO| ======================= Iteration:         1 =============================

     Lanczos converged:  F threshold:   0.100E-02
     Est. extremal eigenvalues:    0.625E+01   0.943E-01
     Est. condition number :    0.663E+02

 Order=           3
     NS sqrt iter    1 1.00000000   0.153E+01       0.021     2682.603
     NS sqrt iter    2 1.00000000   0.828E+00       0.034     3352.434
     NS sqrt iter    3 1.00000000   0.333E+00       0.034     3341.277
     NS sqrt iter    4 1.00000000   0.939E-01       0.034     3350.256
     NS sqrt iter    5 1.00000000   0.350E-02       0.034     3339.050
     NS sqrt iter    6 1.00000000   0.330E-06       0.030     2885.844
     Symmetrizing Results
     Final NS sqrt iter    6 1.00000000   0.170E-12

     Est. extremal eigenvalues     -0.81569     2.60956  converged:  T
     TRS4 it   1 1.00000000   0.272E+02       0.007     2052.110   0.100E-11
     TRS4 it   2 1.00000000   0.235E+02       0.013     2156.517   0.100E-11
     TRS4 it   3 1.00000000   0.159E+02       0.013     2183.716   0.100E-11
     TRS4 it   4 1.00000000   0.993E+01       0.013     2170.674   0.100E-11
     TRS4 it   5 1.00000000   0.478E+01       0.013     2153.302   0.100E-11
     TRS4 it   6 1.00000000   0.158E+01       0.013     2171.520   0.100E-11
     TRS4 it   7 1.00000000   0.310E+00       0.013     2158.607   0.100E-11
     TRS4 it   8 1.00000000   0.215E-01       0.013     2136.225   0.100E-11
     TRS4 it   9 1.00000000   0.160E-03       0.013     2157.974   0.100E-11
     TRS4 it  10 1.00000000   0.773E-08       0.013     2180.796   0.100E-11
     TRS4 it  11 1.00000000   0.107E-13       0.013     2158.712   0.100E-11
     Final TRS4 iteration   11 1.00000000   0.107E-13
     Chemical potential (mu):       0.00718
 
 PAO| energy:  -186.56021769163746      penalty:   1.5253365159546906E-031
 PAO|CG| warming up with steepest descent
 PAO|CG| beta:    0.0000000000000000     
 PAO| norm of gradient:   3.9940531386317710     
 PAO|LS| adapt:  T F F
 PAO|LS| adapt: scan_steps:    0.0000000000000000        0.0000000000000000        0.0000000000000000     
 PAO|LS| adapt: energies:   -186.56021769163746        0.0000000000000000        0.0000000000000000     
 PAO| ======================= Iteration:         2 =============================

     Lanczos converged:  F threshold:   0.100E-02
     Est. extremal eigenvalues:    0.603E+01   0.101E+00
     Est. condition number :    0.597E+02

 Order=           3
     NS sqrt iter    1 1.00000000   0.149E+01       0.021     2680.195
     NS sqrt iter    2 1.00000000   0.798E+00       0.034     3366.990
     NS sqrt iter    3 1.00000000   0.312E+00       0.034     3367.451
     NS sqrt iter    4 1.00000000   0.791E-01       0.034     3349.968
     NS sqrt iter    5 1.00000000   0.218E-02       0.034     3329.330
     NS sqrt iter    6 1.00000000   0.934E-07       0.029     2894.047
     Symmetrizing Results
     Final NS sqrt iter    6 1.00000000   0.211E-13

     Est. extremal eigenvalues     -0.81898     2.60635  converged:  T
     TRS4 it   1 1.00000000   0.274E+02       0.007     2110.899   0.100E-11
     TRS4 it   2 1.00000000   0.235E+02       0.013     2159.950   0.100E-11
     TRS4 it   3 1.00000000   0.158E+02       0.013     2187.402   0.100E-11
     TRS4 it   4 1.00000000   0.973E+01       0.013     2163.051   0.100E-11
     TRS4 it   5 1.00000000   0.457E+01       0.013     2169.034   0.100E-11
     TRS4 it   6 1.00000000   0.145E+01       0.013     2186.490   0.100E-11
     TRS4 it   7 1.00000000   0.265E+00       0.013     2152.797   0.100E-11
     TRS4 it   8 1.00000000   0.154E-01       0.013     2180.081   0.100E-11
     TRS4 it   9 1.00000000   0.745E-04       0.013     2162.478   0.100E-11
     TRS4 it  10 1.00000000   0.190E-08       0.013     2168.485   0.100E-11
     TRS4 it  11 1.00000000   0.178E-13       0.013     2179.479   0.100E-11
     Final TRS4 iteration   11 1.00000000   0.178E-13
     Chemical potential (mu):       0.01274
 
 PAO| energy:  -188.02473346273865      penalty:   4.7617058440949936E-007
 PAO|LS| adapt:  T T F
 PAO|LS| adapt: scan_steps:    0.0000000000000000       0.10000000000000001        0.0000000000000000     
 PAO|LS| adapt: energies:   -186.56021769163746       -188.02473346273865        0.0000000000000000     
 PAO| ======================= Iteration:         3 =============================

     Lanczos converged:  F threshold:   0.100E-02
     Est. extremal eigenvalues:    0.581E+01   0.106E+00
     Est. condition number :    0.548E+02

 Order=           3
     NS sqrt iter    1 1.00000000   0.144E+01       0.021     2660.875
     NS sqrt iter    2 1.00000000   0.768E+00       0.034     3320.105
     NS sqrt iter    3 1.00000000   0.292E+00       0.034     3350.468
     NS sqrt iter    4 1.00000000   0.663E-01       0.034     3346.195
     NS sqrt iter    5 1.00000000   0.138E-02       0.034     3338.532
     NS sqrt iter    6 1.00000000   0.277E-07       0.029     2900.211
     Symmetrizing Results
     Final NS sqrt iter    6 1.00000000   0.330E-14

     Est. extremal eigenvalues     -0.82210     2.60737  converged:  T
     TRS4 it   1 1.00000000   0.277E+02       0.007     2106.895   0.100E-11
     TRS4 it   2 1.00000000   0.235E+02       0.013     2178.159   0.100E-11
     TRS4 it   3 1.00000000   0.157E+02       0.013     2140.149   0.100E-11
     TRS4 it   4 1.00000000   0.954E+01       0.013     2167.998   0.100E-11
     TRS4 it   5 1.00000000   0.436E+01       0.013     2185.004   0.100E-11
     TRS4 it   6 1.00000000   0.133E+01       0.013     2180.240   0.100E-11
     TRS4 it   7 1.00000000   0.225E+00       0.013     2177.421   0.100E-11
     TRS4 it   8 1.00000000   0.107E-01       0.013     2171.836   0.100E-11
     TRS4 it   9 1.00000000   0.323E-04       0.013     2186.612   0.100E-11
     TRS4 it  10 1.00000000   0.408E-09       0.013     2164.260   0.100E-11
     TRS4 it  11 1.00000000   0.195E-13       0.013     2176.414   0.100E-11
     Final TRS4 iteration   11 1.00000000   0.195E-13
     Chemical potential (mu):       0.01903
 
 PAO| energy:  -189.21115947837200      penalty:   7.6187293506353649E-006
 PAO|LS| adapt:  T T F
 PAO|LS| adapt: scan_steps:    0.0000000000000000       0.20000000000000001        0.0000000000000000     
 PAO|LS| adapt: energies:   -186.56021769163746       -189.21115947837200        0.0000000000000000     
 PAO| ======================= Iteration:         4 =============================

     Lanczos converged:  T threshold:   0.100E-02
     Est. extremal eigenvalues:    0.538E+01   0.115E+00
     Est. condition number :    0.469E+02

 Order=           3
     NS sqrt iter    1 1.00000000   0.135E+01       0.021     2706.479
     NS sqrt iter    2 1.00000000   0.711E+00       0.034     3344.464
     NS sqrt iter    3 1.00000000   0.254E+00       0.034     3352.491
     NS sqrt iter    4 1.00000000   0.465E-01       0.034     3334.750
     NS sqrt iter    5 1.00000000   0.564E-03       0.034     3332.039
     NS sqrt iter    6 1.00000000   0.252E-08       0.030     2814.918
     Symmetrizing Results
     Final NS sqrt iter    6 1.00000000   0.144E-13

     Est. extremal eigenvalues     -0.82724     2.61479  converged:  T
     TRS4 it   1 1.00000000   0.281E+02       0.007     2135.724   0.100E-11
     TRS4 it   2 1.00000000   0.236E+02       0.013     2180.616   0.100E-11
     TRS4 it   3 1.00000000   0.156E+02       0.013     2158.894   0.100E-11
     TRS4 it   4 1.00000000   0.922E+01       0.013     2171.276   0.100E-11
     TRS4 it   5 1.00000000   0.401E+01       0.013     2166.259   0.100E-11
     TRS4 it   6 1.00000000   0.112E+01       0.013     2166.691   0.100E-11
     TRS4 it   7 1.00000000   0.160E+00       0.013     2168.470   0.100E-11
     TRS4 it   8 1.00000000   0.500E-02       0.013     2149.700   0.100E-11
     TRS4 it   9 1.00000000   0.579E-05       0.013     2173.380   0.100E-11
     TRS4 it  10 1.00000000   0.148E-10       0.013     2178.151   0.100E-11
     Final TRS4 iteration   10 1.00000000   0.148E-10
     Chemical potential (mu):       0.03797
 
 PAO| energy:  -190.70668361238918      penalty:   1.2189966961083204E-004
 PAO|LS| Need extra step
 PAO|LS| adapt:  T T F
 PAO|LS| adapt: scan_steps:    0.0000000000000000       0.40000000000000002        0.0000000000000000     
 PAO|LS| adapt: energies:   -186.56021769163746       -190.70668361238918        0.0000000000000000     
 PAO| ======================= Iteration:         5 =============================

     Lanczos converged:  T threshold:   0.100E-02
     Est. extremal eigenvalues:    0.470E+01   0.130E+00
     Est. condition number :    0.363E+02

 Order=           3
     NS sqrt iter    1 1.00000000   0.122E+01       0.021     2685.405
     NS sqrt iter    2 1.00000000   0.619E+00       0.034     3365.524
     NS sqrt iter    3 1.00000000   0.196E+00       0.034     3307.915
     NS sqrt iter    4 1.00000000   0.243E-01       0.034     3335.835
     NS sqrt iter    5 1.00000000   0.107E-03       0.034     3337.169
     NS sqrt iter    6 1.00000000   0.251E-10       0.020     2161.849
     Symmetrizing Results
     Final NS sqrt iter    6 1.00000000   0.214E-11

     Est. extremal eigenvalues     -0.83037     2.62020  converged:  T
     TRS4 it   1 1.00000000   0.287E+02       0.007     2114.635   0.100E-11
     TRS4 it   2 1.00000000   0.236E+02       0.013     2160.974   0.100E-11
     TRS4 it   3 1.00000000   0.153E+02       0.013     2169.161   0.100E-11
     TRS4 it   4 1.00000000   0.873E+01       0.013     2158.420   0.100E-11
     TRS4 it   5 1.00000000   0.350E+01       0.013     2176.592   0.100E-11
     TRS4 it   6 1.00000000   0.832E+00       0.013     2169.075   0.100E-11
     TRS4 it   7 1.00000000   0.876E-01       0.013     2181.269   0.100E-11
     TRS4 it   8 1.00000000   0.139E-02       0.013     2168.793   0.100E-11
     TRS4 it   9 1.00000000   0.439E-06       0.013     2181.771   0.100E-11
     TRS4 it  10 1.00000000   0.817E-13       0.013     2177.688   0.100E-11
     Final TRS4 iteration   10 1.00000000   0.817E-13
     Chemical potential (mu):       0.05947
 
 PAO| energy:  -190.31496530418485      penalty:   1.9503947137786508E-003
 PAO|LS| Need extra step
 PAO|LS| adapt:  T T T
 PAO|LS| adapt: scan_steps:    0.0000000000000000       0.40000000000000002       0.80000000000000004     
 PAO|LS| adapt: energies:   -186.56021769163746       -190.70668361238918       -190.31496530418485     
 PAO|LS| adapt: suggested step_size:   0.56547356489364564     
 PAO|LS| adapt: predicted energy  -191.09500328284176     
 PAO| ======================= Iteration:         6 =============================

     Lanczos converged:  T threshold:   0.100E-02
     Est. extremal eigenvalues:    0.507E+01   0.121E+00
     Est. condition number :    0.418E+02

 Order=           3
     NS sqrt iter    1 1.00000000   0.129E+01       0.021     2680.579
     NS sqrt iter    2 1.00000000   0.668E+00       0.034     3376.639
     NS sqrt iter    3 1.00000000   0.227E+00       0.034     3343.062
     NS sqrt iter    4 1.00000000   0.350E-01       0.034     3340.981
     NS sqrt iter    5 1.00000000   0.275E-03       0.034     3347.456
     NS sqrt iter    6 1.00000000   0.354E-09       0.029     2668.926
     Symmetrizing Results
     Final NS sqrt iter    6 1.00000000   0.272E-12

     Est. extremal eigenvalues     -0.82986     2.61917  converged:  T
     TRS4 it   1 1.00000000   0.284E+02       0.007     2128.444   0.100E-11
     TRS4 it   2 1.00000000   0.236E+02       0.013     2177.005   0.100E-11
     TRS4 it   3 1.00000000   0.154E+02       0.013     2177.434   0.100E-11
     TRS4 it   4 1.00000000   0.899E+01       0.013     2159.665   0.100E-11
     TRS4 it   5 1.00000000   0.377E+01       0.013     2186.159   0.100E-11
     TRS4 it   6 1.00000000   0.979E+00       0.013     2177.961   0.100E-11
     TRS4 it   7 1.00000000   0.122E+00       0.013     2159.129   0.100E-11
     TRS4 it   8 1.00000000   0.277E-02       0.013     2173.276   0.100E-11
     TRS4 it   9 1.00000000   0.169E-05       0.013     2166.805   0.100E-11
     TRS4 it  10 1.00000000   0.131E-11       0.013     2207.254   0.100E-11
     Final TRS4 iteration   10 1.00000000   0.131E-11
     Chemical potential (mu):       0.04800
 
 PAO| energy:  -191.06848009279796      penalty:   4.8686862842126137E-004
 PAO|CG| warming up with steepest descent
 PAO|CG| beta:    0.0000000000000000     
 PAO| norm of gradient:   2.1143950712461388     
 PAO| energy improvement:  -4.5082624011604935     
 PAO| step      6                 -191.068480093  0.413E-02  0.565E+00     2.445
 PAO|LS| adapt:  T F F
 PAO|LS| adapt: scan_steps:    0.0000000000000000        0.0000000000000000        0.0000000000000000     
 PAO|LS| adapt: energies:   -191.06848009279796        0.0000000000000000        0.0000000000000000     
 PAO| ======================= Iteration:         7 =============================

     Lanczos converged:  T threshold:   0.100E-02
     Est. extremal eigenvalues:    0.491E+01   0.129E+00
     Est. condition number :    0.381E+02

 Order=           3
     NS sqrt iter    1 1.00000000   0.126E+01       0.021     2667.687
     NS sqrt iter    2 1.00000000   0.643E+00       0.034     3346.647
     NS sqrt iter    3 1.00000000   0.209E+00       0.034     3351.627
     NS sqrt iter    4 1.00000000   0.282E-01       0.034     3352.919
     NS sqrt iter    5 1.00000000   0.153E-03       0.034     3356.308
     NS sqrt iter    6 1.00000000   0.661E-10       0.024     2389.341
     Symmetrizing Results
     Final NS sqrt iter    6 1.00000000   0.198E-11

     Est. extremal eigenvalues     -0.82977     2.61157  converged:  T
     TRS4 it   1 1.00000000   0.285E+02       0.007     2092.710   0.100E-11
     TRS4 it   2 1.00000000   0.236E+02       0.013     2182.005   0.100E-11
     TRS4 it   3 1.00000000   0.155E+02       0.013     2183.150   0.100E-11
     TRS4 it   4 1.00000000   0.912E+01       0.013     2179.190   0.100E-11
     TRS4 it   5 1.00000000   0.387E+01       0.013     2176.825   0.100E-11
     TRS4 it   6 1.00000000   0.101E+01       0.013     2187.436   0.100E-11
     TRS4 it   7 1.00000000   0.124E+00       0.013     2184.350   0.100E-11
     TRS4 it   8 1.00000000   0.284E-02       0.013     2195.768   0.100E-11
     TRS4 it   9 1.00000000   0.185E-05       0.013     2196.322   0.100E-11
     TRS4 it  10 1.00000000   0.172E-11       0.013     2170.311   0.100E-11
     Final TRS4 iteration   10 1.00000000   0.172E-11
     Chemical potential (mu):       0.05000
 
 PAO| energy:  -190.15263884147873      penalty:   6.8567061826873155E-004
 PAO|LS| adapt:  T F T
 PAO|LS| adapt: scan_steps:    0.0000000000000000        0.0000000000000000       0.56547356489364564     
 PAO|LS| adapt: energies:   -191.06848009279796        0.0000000000000000       -190.15263884147873     
 PAO| ======================= Iteration:         8 =============================

     Lanczos converged:  T threshold:   0.100E-02
     Est. extremal eigenvalues:    0.499E+01   0.125E+00
     Est. condition number :    0.399E+02

 Order=           3
     NS sqrt iter    1 1.00000000   0.128E+01       0.021     2666.208
     NS sqrt iter    2 1.00000000   0.656E+00       0.034     3365.927
     NS sqrt iter    3 1.00000000   0.218E+00       0.034     3358.453
     NS sqrt iter    4 1.00000000   0.315E-01       0.034     3377.208
     NS sqrt iter    5 1.00000000   0.207E-03       0.034     3363.431
     NS sqrt iter    6 1.00000000   0.156E-09       0.027     2540.782
     Symmetrizing Results
     Final NS sqrt iter    6 1.00000000   0.111E-11

     Est. extremal eigenvalues     -0.83132     2.61608  converged:  T
     TRS4 it   1 1.00000000   0.284E+02       0.007     2038.225   0.100E-11
     TRS4 it   2 1.00000000   0.236E+02       0.013     2176.717   0.100E-11
     TRS4 it   3 1.00000000   0.155E+02       0.013     2188.766   0.100E-11
     TRS4 it   4 1.00000000   0.903E+01       0.013     2167.496   0.100E-11
     TRS4 it   5 1.00000000   0.380E+01       0.013     2159.374   0.100E-11
     TRS4 it   6 1.00000000   0.986E+00       0.013     2165.652   0.100E-11
     TRS4 it   7 1.00000000   0.123E+00       0.013     2169.004   0.100E-11
     TRS4 it   8 1.00000000   0.280E-02       0.013     2201.299   0.100E-11
     TRS4 it   9 1.00000000   0.175E-05       0.013     2188.600   0.100E-11
     TRS4 it  10 1.00000000   0.143E-11       0.013     2175.557   0.100E-11
     Final TRS4 iteration   10 1.00000000   0.143E-11
     Chemical potential (mu):       0.04779
 
 PAO| energy:  -191.45784278925356      penalty:   5.1661466662068648E-004
 PAO|LS| adapt:  T T T
 PAO|LS| adapt: scan_steps:    0.0000000000000000       0.28273678244682282       0.56547356489364564     
 PAO|LS| adapt: energies:   -191.06848009279796       -191.45784278925356       -190.15263884147873     
 PAO|LS| adapt: suggested step_size:   0.20633317521434838     
 PAO|LS| adapt: predicted energy  -191.51971444833481     
 PAO| ======================= Iteration:         9 =============================

     Lanczos converged:  T threshold:   0.100E-02
     Est. extremal eigenvalues:    0.501E+01   0.124E+00
     Est. condition number :    0.405E+02

 Order=           3
     NS sqrt iter    1 1.00000000   0.128E+01       0.021     2675.284
     NS sqrt iter    2 1.00000000   0.659E+00       0.034     3342.873
     NS sqrt iter    3 1.00000000   0.220E+00       0.034     3338.763
     NS sqrt iter    4 1.00000000   0.324E-01       0.034     3337.525
     NS sqrt iter    5 1.00000000   0.224E-03       0.034     3341.904
     NS sqrt iter    6 1.00000000   0.195E-09       0.028     2590.201
     Symmetrizing Results
     Final NS sqrt iter    6 1.00000000   0.806E-12

     Est. extremal eigenvalues     -0.83124     2.61707  converged:  T
     TRS4 it   1 1.00000000   0.284E+02       0.007     2096.169   0.100E-11
     TRS4 it   2 1.00000000   0.236E+02       0.013     2194.427   0.100E-11
     TRS4 it   3 1.00000000   0.155E+02       0.013     2169.457   0.100E-11
     TRS4 it   4 1.00000000   0.901E+01       0.013     2188.310   0.100E-11
     TRS4 it   5 1.00000000   0.378E+01       0.013     2177.696   0.100E-11
     TRS4 it   6 1.00000000   0.983E+00       0.013     2181.907   0.100E-11
     TRS4 it   7 1.00000000   0.122E+00       0.013     2176.559   0.100E-11
     TRS4 it   8 1.00000000   0.279E-02       0.013     2196.634   0.100E-11
     TRS4 it   9 1.00000000   0.173E-05       0.013     2166.419   0.100E-11
     TRS4 it  10 1.00000000   0.139E-11       0.013     2175.976   0.100E-11
     Final TRS4 iteration   10 1.00000000   0.139E-11
     Chemical potential (mu):       0.04761
 
 PAO| energy:  -191.52401841147460      penalty:   4.9932664029890648E-004
 PAO|CG| trace_G_new   0.72749149059846974     
 PAO|CG| trace_G_prev    4.4706665173099642     
 PAO|CG| trace_G_mix   -4.3380527759438486E-002
 PAO|CG| trace_D    4.4706665173099642     
 PAO|CG| trace_D_Gnew   4.3380527759438486E-002
 PAO|CG| beta:   0.17242887953578520     
 PAO| norm of gradient:  0.85293111714749259     
 PAO| energy improvement: -0.45553831867664485     
 PAO| step      9                 -191.524018411  0.167E-02  0.206E+00     1.518
 PAO|LS| adapt:  T F F
 PAO|LS| adapt: scan_steps:    0.0000000000000000        0.0000000000000000        0.0000000000000000     
 PAO|LS| adapt: energies:   -191.52401841147460        0.0000000000000000        0.0000000000000000     
 PAO| ======================= Iteration:        10 =============================

     Lanczos converged:  T threshold:   0.100E-02
     Est. extremal eigenvalues:    0.496E+01   0.127E+00
     Est. condition number :    0.390E+02

 Order=           3
     NS sqrt iter    1 1.00000000   0.127E+01       0.021     2663.991
     NS sqrt iter    2 1.00000000   0.651E+00       0.034     3334.921
     NS sqrt iter    3 1.00000000   0.215E+00       0.034     3345.602
     NS sqrt iter    4 1.00000000   0.301E-01       0.034     3318.314
     NS sqrt iter    5 1.00000000   0.180E-03       0.034     3367.687
     NS sqrt iter    6 1.00000000   0.102E-09       0.026     2463.306
     Symmetrizing Results
     Final NS sqrt iter    6 1.00000000   0.166E-11

     Est. extremal eigenvalues     -0.83177     2.60334  converged:  T
     TRS4 it   1 1.00000000   0.284E+02       0.007     2092.495   0.100E-11
     TRS4 it   2 1.00000000   0.235E+02       0.013     2172.063   0.100E-11
     TRS4 it   3 1.00000000   0.154E+02       0.013     2178.563   0.100E-11
     TRS4 it   4 1.00000000   0.899E+01       0.013     2190.974   0.100E-11
     TRS4 it   5 1.00000000   0.376E+01       0.013     2166.702   0.100E-11
     TRS4 it   6 1.00000000   0.971E+00       0.013     2160.943   0.100E-11
     TRS4 it   7 1.00000000   0.119E+00       0.013     2182.911   0.100E-11
     TRS4 it   8 1.00000000   0.265E-02       0.013     2158.285   0.100E-11
     TRS4 it   9 1.00000000   0.157E-05       0.013     2152.885   0.100E-11
     TRS4 it  10 1.00000000   0.115E-11       0.013     2197.121   0.100E-11
     Final TRS4 iteration   10 1.00000000   0.115E-11
     Chemical potential (mu):       0.04834
 
 PAO| energy:  -191.62416440302314      penalty:   5.0172868037055016E-004
 PAO|LS| adapt:  T T F
 PAO|LS| adapt: scan_steps:    0.0000000000000000       0.20633317521434838        0.0000000000000000     
 PAO|LS| adapt: energies:   -191.52401841147460       -191.62416440302314        0.0000000000000000     
 PAO| ======================= Iteration:        11 =============================

     Lanczos converged:  T threshold:   0.100E-02
     Est. extremal eigenvalues:    0.491E+01   0.131E+00
     Est. condition number :    0.375E+02

 Order=           3
     NS sqrt iter    1 1.00000000   0.126E+01       0.021     2667.228
     NS sqrt iter    2 1.00000000   0.642E+00       0.034     3312.974
     NS sqrt iter    3 1.00000000   0.209E+00       0.034     3323.500
     NS sqrt iter    4 1.00000000   0.280E-01       0.034     3336.138
     NS sqrt iter    5 1.00000000   0.145E-03       0.034     3332.151
     NS sqrt iter    6 1.00000000   0.526E-10       0.022     2329.225
     Symmetrizing Results
     Final NS sqrt iter    6 1.00000000   0.217E-11

     Est. extremal eigenvalues     -0.83200     2.58923  converged:  T
     TRS4 it   1 1.00000000   0.284E+02       0.007     2111.641   0.100E-11
     TRS4 it   2 1.00000000   0.234E+02       0.013     2191.019   0.100E-11
     TRS4 it   3 1.00000000   0.154E+02       0.013     2177.979   0.100E-11
     TRS4 it   4 1.00000000   0.897E+01       0.013     2173.132   0.100E-11
     TRS4 it   5 1.00000000   0.374E+01       0.013     2174.593   0.100E-11
     TRS4 it   6 1.00000000   0.957E+00       0.013     2176.289   0.100E-11
     TRS4 it   7 1.00000000   0.116E+00       0.013     2187.157   0.100E-11
     TRS4 it   8 1.00000000   0.250E-02       0.013     2196.413   0.100E-11
     TRS4 it   9 1.00000000   0.140E-05       0.013     2183.212   0.100E-11
     TRS4 it  10 1.00000000   0.943E-12       0.013     2172.120   0.100E-11
     Final TRS4 iteration   10 1.00000000   0.943E-12
     Chemical potential (mu):       0.04915
 
 PAO| energy:  -191.63012519637098      penalty:   5.1408315518929363E-004
 PAO|LS| adapt:  T T F
 PAO|LS| adapt: scan_steps:    0.0000000000000000       0.41266635042869676        0.0000000000000000     
 PAO|LS| adapt: energies:   -191.52401841147460       -191.63012519637098        0.0000000000000000     
 PAO| ======================= Iteration:        12 =============================

     Lanczos converged:  F threshold:   0.100E-02
     Est. extremal eigenvalues:    0.481E+01   0.138E+00
     Est. condition number :    0.349E+02

 Order=           3
     NS sqrt iter    1 1.00000000   0.124E+01       0.021     2678.907
     NS sqrt iter    2 1.00000000   0.626E+00       0.034     3367.582
     NS sqrt iter    3 1.00000000   0.198E+00       0.034     3324.188
     NS sqrt iter    4 1.00000000   0.241E-01       0.034     3359.209
     NS sqrt iter    5 1.00000000   0.926E-04       0.034     3352.894
     NS sqrt iter    6 1.00000000   0.135E-10       0.016     2112.867
     Symmetrizing Results
     Final NS sqrt iter    6 1.00000000   0.182E-11

     Est. extremal eigenvalues     -0.83160     2.56078  converged:  T
     TRS4 it   1 1.00000000   0.283E+02       0.007     2089.214   0.100E-11
     TRS4 it   2 1.00000000   0.233E+02       0.013     2184.104   0.100E-11
     TRS4 it   3 1.00000000   0.154E+02       0.013     2172.913   0.100E-11
     TRS4 it   4 1.00000000   0.891E+01       0.013     2181.074   0.100E-11
     TRS4 it   5 1.00000000   0.368E+01       0.013     2173.490   0.100E-11
     TRS4 it   6 1.00000000   0.926E+00       0.013     2173.684   0.100E-11
     TRS4 it   7 1.00000000   0.108E+00       0.013     2168.137   0.100E-11
     TRS4 it   8 1.00000000   0.217E-02       0.013     2189.046   0.100E-11
     TRS4 it   9 1.00000000   0.108E-05       0.013     2183.790   0.100E-11
     TRS4 it  10 1.00000000   0.602E-12       0.013     2179.761   0.100E-11
     Final TRS4 iteration   10 1.00000000   0.602E-12
     Chemical potential (mu):       0.05100
 
 PAO| energy:  -191.37616223375227      penalty:   5.7574423411796264E-004
 PAO|LS| Need extra step
 PAO|LS| adapt:  T T T
 PAO|LS| adapt: scan_steps:    0.0000000000000000       0.41266635042869676       0.82533270085739352     
 PAO|LS| adapt: energies:   -191.52401841147460       -191.63012519637098       -191.37616223375227     
 PAO|LS| adapt: suggested step_size:   0.32793933619036075     
 PAO|LS| adapt: predicted energy  -191.63771450699812     
 PAO| ======================= Iteration:        13 =============================

     Lanczos converged:  T threshold:   0.100E-02
     Est. extremal eigenvalues:    0.493E+01   0.129E+00
     Est. condition number :    0.381E+02

 Order=           3
     NS sqrt iter    1 1.00000000   0.126E+01       0.021     2649.384
     NS sqrt iter    2 1.00000000   0.646E+00       0.034     3352.156
     NS sqrt iter    3 1.00000000   0.211E+00       0.034     3351.154
     NS sqrt iter    4 1.00000000   0.289E-01       0.034     3353.356
     NS sqrt iter    5 1.00000000   0.158E-03       0.034     3359.213
     NS sqrt iter    6 1.00000000   0.691E-10       0.024     2376.131
     Symmetrizing Results
     Final NS sqrt iter    6 1.00000000   0.199E-11

     Est. extremal eigenvalues     -0.83194     2.59505  converged:  T
     TRS4 it   1 1.00000000   0.284E+02       0.007     2081.141   0.100E-11
     TRS4 it   2 1.00000000   0.235E+02       0.013     2189.452   0.100E-11
     TRS4 it   3 1.00000000   0.154E+02       0.013     2187.143   0.100E-11
     TRS4 it   4 1.00000000   0.898E+01       0.013     2167.942   0.100E-11
     TRS4 it   5 1.00000000   0.375E+01       0.013     2171.596   0.100E-11
     TRS4 it   6 1.00000000   0.963E+00       0.013     2177.953   0.100E-11
     TRS4 it   7 1.00000000   0.117E+00       0.013     2171.425   0.100E-11
     TRS4 it   8 1.00000000   0.256E-02       0.013     2161.268   0.100E-11
     TRS4 it   9 1.00000000   0.147E-05       0.013     2182.507   0.100E-11
     TRS4 it  10 1.00000000   0.103E-11       0.013     2157.707   0.100E-11
     Final TRS4 iteration   10 1.00000000   0.103E-11
     Chemical potential (mu):       0.04880
 
 PAO| energy:  -191.63881378506392      penalty:   5.0772399556839288E-004
 PAO|CG| trace_G_new   0.27216480121447723     
 PAO|CG| trace_G_prev   0.72749149059846974     
 PAO|CG| trace_G_mix   -1.2003941578957846E-002
 PAO|CG| trace_D   0.84545197739895117     
 PAO|CG| trace_D_Gnew   1.1782934481965577E-002
 PAO|CG| beta:   0.39061452465878893     
 PAO| norm of gradient:  0.52169416444357242     
 PAO| energy improvement: -0.11479537358931680     
 PAO| step     13                 -191.638813785  0.102E-02  0.328E+00     1.953
 PAO|LS| adapt:  T F F
 PAO|LS| adapt: scan_steps:    0.0000000000000000        0.0000000000000000        0.0000000000000000     
 PAO|LS| adapt: energies:   -191.63881378506392        0.0000000000000000        0.0000000000000000     
 PAO| ======================= Iteration:        14 =============================

     Lanczos converged:  T threshold:   0.100E-02
     Est. extremal eigenvalues:    0.486E+01   0.132E+00
     Est. condition number :    0.369E+02

 Order=           3
     NS sqrt iter    1 1.00000000   0.125E+01       0.021     2677.084
     NS sqrt iter    2 1.00000000   0.635E+00       0.034     3329.973
     NS sqrt iter    3 1.00000000   0.205E+00       0.034     3355.051
     NS sqrt iter    4 1.00000000   0.267E-01       0.034     3358.519
     NS sqrt iter    5 1.00000000   0.128E-03       0.034     3344.396
     NS sqrt iter    6 1.00000000   0.369E-10       0.021     2229.922
     Symmetrizing Results
     Final NS sqrt iter    6 1.00000000   0.226E-11

     Est. extremal eigenvalues     -0.83238     2.58874  converged:  T
     TRS4 it   1 1.00000000   0.284E+02       0.007     2101.779   0.100E-11
     TRS4 it   2 1.00000000   0.234E+02       0.013     2188.728   0.100E-11
     TRS4 it   3 1.00000000   0.154E+02       0.013     2185.873   0.100E-11
     TRS4 it   4 1.00000000   0.893E+01       0.013     2160.362   0.100E-11
     TRS4 it   5 1.00000000   0.370E+01       0.013     2200.054   0.100E-11
     TRS4 it   6 1.00000000   0.935E+00       0.013     2188.485   0.100E-11
     TRS4 it   7 1.00000000   0.110E+00       0.013     2193.485   0.100E-11
     TRS4 it   8 1.00000000   0.227E-02       0.013     2184.664   0.100E-11
     TRS4 it   9 1.00000000   0.117E-05       0.013     2150.704   0.100E-11
     TRS4 it  10 1.00000000   0.663E-12       0.013     2187.865   0.100E-11
     Final TRS4 iteration   10 1.00000000   0.663E-12
     Chemical potential (mu):       0.05054
 
 PAO| energy:  -191.68988561788134      penalty:   5.0927188518747350E-004
 PAO|LS| adapt:  T T F
 PAO|LS| adapt: scan_steps:    0.0000000000000000       0.32793933619036075        0.0000000000000000     
 PAO|LS| adapt: energies:   -191.63881378506392       -191.68988561788134        0.0000000000000000     
 PAO| ======================= Iteration:        15 =============================

     Lanczos converged:  F threshold:   0.100E-02
     Est. extremal eigenvalues:    0.480E+01   0.134E+00
     Est. condition number :    0.357E+02

 Order=           3
     NS sqrt iter    1 1.00000000   0.124E+01       0.021     2656.671
     NS sqrt iter    2 1.00000000   0.625E+00       0.034     3361.758
     NS sqrt iter    3 1.00000000   0.199E+00       0.034     3333.757
     NS sqrt iter    4 1.00000000   0.247E-01       0.034     3332.207
     NS sqrt iter    5 1.00000000   0.103E-03       0.034     3370.189
     NS sqrt iter    6 1.00000000   0.199E-10       0.018     2142.744
     Symmetrizing Results
     Final NS sqrt iter    6 1.00000000   0.210E-11

     Est. extremal eigenvalues     -0.83249     2.58212  converged:  T
     TRS4 it   1 1.00000000   0.285E+02       0.007     2056.184   0.100E-11
     TRS4 it   2 1.00000000   0.234E+02       0.013     2179.025   0.100E-11
     TRS4 it   3 1.00000000   0.154E+02       0.013     2162.894   0.100E-11
     TRS4 it   4 1.00000000   0.887E+01       0.013     2169.859   0.100E-11
     TRS4 it   5 1.00000000   0.364E+01       0.013     2185.316   0.100E-11
     TRS4 it   6 1.00000000   0.907E+00       0.013     2177.738   0.100E-11
     TRS4 it   7 1.00000000   0.104E+00       0.013     2173.686   0.100E-11
     TRS4 it   8 1.00000000   0.202E-02       0.013     2164.361   0.100E-11
     TRS4 it   9 1.00000000   0.932E-06       0.013     2173.244   0.100E-11
     TRS4 it  10 1.00000000   0.451E-12       0.013     2188.731   0.100E-11
     Final TRS4 iteration   10 1.00000000   0.451E-12
     Chemical potential (mu):       0.05219
 
 PAO| energy:  -191.66869456036105      penalty:   5.2543003032658425E-004
 PAO|LS| adapt:  T T T
 PAO|LS| adapt: scan_steps:    0.0000000000000000       0.32793933619036075       0.65587867238072151     
 PAO|LS| adapt: energies:   -191.63881378506392       -191.68988561788134       -191.66869456036105     
 PAO|LS| adapt: suggested step_size:   0.39574095310602408     
 PAO|LS| adapt: predicted energy  -191.69143008408003     
 PAO| ======================= Iteration:        16 =============================

     Lanczos converged:  T threshold:   0.100E-02
     Est. extremal eigenvalues:    0.485E+01   0.132E+00
     Est. condition number :    0.366E+02

 Order=           3
     NS sqrt iter    1 1.00000000   0.125E+01       0.021     2687.718
     NS sqrt iter    2 1.00000000   0.633E+00       0.034     3349.569
     NS sqrt iter    3 1.00000000   0.204E+00       0.034     3306.485
     NS sqrt iter    4 1.00000000   0.263E-01       0.034     3324.339
     NS sqrt iter    5 1.00000000   0.122E-03       0.034     3320.722
     NS sqrt iter    6 1.00000000   0.324E-10       0.020     2224.006
     Symmetrizing Results
     Final NS sqrt iter    6 1.00000000   0.226E-11

     Est. extremal eigenvalues     -0.83243     2.58739  converged:  T
     TRS4 it   1 1.00000000   0.284E+02       0.007     2084.223   0.100E-11
     TRS4 it   2 1.00000000   0.234E+02       0.013     2176.202   0.100E-11
     TRS4 it   3 1.00000000   0.154E+02       0.013     2173.173   0.100E-11
     TRS4 it   4 1.00000000   0.892E+01       0.013     2175.199   0.100E-11
     TRS4 it   5 1.00000000   0.368E+01       0.013     2193.782   0.100E-11
     TRS4 it   6 1.00000000   0.929E+00       0.013     2154.916   0.100E-11
     TRS4 it   7 1.00000000   0.109E+00       0.013     2175.662   0.100E-11
     TRS4 it   8 1.00000000   0.222E-02       0.013     2168.067   0.100E-11
     TRS4 it   9 1.00000000   0.112E-05       0.013     2187.288   0.100E-11
     TRS4 it  10 1.00000000   0.574E-12       0.013     2156.175   0.100E-11
     Final TRS4 iteration   10 1.00000000   0.574E-12
     Chemical potential (mu):       0.05088
 
 PAO| energy:  -191.69137568325934      penalty:   5.1136891798592805E-004
 PAO|CG| trace_G_new   0.10103881058737169     
 PAO|CG| trace_G_prev   0.27216480121447723     
 PAO|CG| trace_G_mix    4.4476764094499490E-003
 PAO|CG| trace_D   0.39195844539888353     
 PAO|CG| trace_D_Gnew   7.3287698418883799E-004
 PAO|CG| beta:   0.35489943500006049     
 PAO| norm of gradient:  0.31786602616097820     
 PAO| energy improvement:  -5.2561898195421008E-002
 PAO| step     16                 -191.691375683  0.621E-03  0.396E+00     1.499
 PAO|LS| adapt:  T F F
 PAO|LS| adapt: scan_steps:    0.0000000000000000        0.0000000000000000        0.0000000000000000     
 PAO|LS| adapt: energies:   -191.69137568325934        0.0000000000000000        0.0000000000000000     
 PAO| ======================= Iteration:        17 =============================

     Lanczos converged:  T threshold:   0.100E-02
     Est. extremal eigenvalues:    0.482E+01   0.133E+00
     Est. condition number :    0.362E+02

 Order=           3
     NS sqrt iter    1 1.00000000   0.124E+01       0.021     2680.319
     NS sqrt iter    2 1.00000000   0.629E+00       0.034     3323.063
     NS sqrt iter    3 1.00000000   0.202E+00       0.034     3343.234
     NS sqrt iter    4 1.00000000   0.255E-01       0.034     3342.034
     NS sqrt iter    5 1.00000000   0.112E-03       0.034     3340.342
     NS sqrt iter    6 1.00000000   0.255E-10       0.019     2167.075
     Symmetrizing Results
     Final NS sqrt iter    6 1.00000000   0.222E-11

     Est. extremal eigenvalues     -0.83250     2.58520  converged:  T
     TRS4 it   1 1.00000000   0.285E+02       0.007     2063.229   0.100E-11
     TRS4 it   2 1.00000000   0.234E+02       0.013     2189.000   0.100E-11
     TRS4 it   3 1.00000000   0.154E+02       0.013     2190.621   0.100E-11
     TRS4 it   4 1.00000000   0.887E+01       0.013     2181.746   0.100E-11
     TRS4 it   5 1.00000000   0.364E+01       0.013     2175.229   0.100E-11
     TRS4 it   6 1.00000000   0.910E+00       0.013     2171.406   0.100E-11
     TRS4 it   7 1.00000000   0.105E+00       0.013     2190.218   0.100E-11
     TRS4 it   8 1.00000000   0.205E-02       0.013     2168.143   0.100E-11
     TRS4 it   9 1.00000000   0.957E-06       0.013     2166.973   0.100E-11
     TRS4 it  10 1.00000000   0.473E-12       0.013     2158.353   0.100E-11
     Final TRS4 iteration   10 1.00000000   0.473E-12
     Chemical potential (mu):       0.05195
 
 PAO| energy:  -191.69528318130816      penalty:   5.0340444064072274E-004
 PAO|LS| adapt:  T T F
 PAO|LS| adapt: scan_steps:    0.0000000000000000       0.39574095310602408        0.0000000000000000     
 PAO|LS| adapt: energies:   -191.69137568325934       -191.69528318130816        0.0000000000000000     
 PAO| ======================= Iteration:        18 =============================

     Lanczos converged:  T threshold:   0.100E-02
     Est. extremal eigenvalues:    0.478E+01   0.134E+00
     Est. condition number :    0.357E+02

 Order=           3
     NS sqrt iter    1 1.00000000   0.123E+01       0.021     2686.103
     NS sqrt iter    2 1.00000000   0.625E+00       0.034     3339.503
     NS sqrt iter    3 1.00000000   0.199E+00       0.034     3359.187
     NS sqrt iter    4 1.00000000   0.248E-01       0.034     3312.778
     NS sqrt iter    5 1.00000000   0.103E-03       0.034     3339.108
     NS sqrt iter    6 1.00000000   0.201E-10       0.018     2129.442
     Symmetrizing Results
     Final NS sqrt iter    6 1.00000000   0.212E-11

     Est. extremal eigenvalues     -0.83240     2.58298  converged:  T
     TRS4 it   1 1.00000000   0.285E+02       0.007     2125.110   0.100E-11
     TRS4 it   2 1.00000000   0.234E+02       0.013     2164.470   0.100E-11
     TRS4 it   3 1.00000000   0.153E+02       0.013     2169.742   0.100E-11
     TRS4 it   4 1.00000000   0.883E+01       0.013     2178.695   0.100E-11
     TRS4 it   5 1.00000000   0.360E+01       0.013     2176.628   0.100E-11
     TRS4 it   6 1.00000000   0.891E+00       0.013     2152.218   0.100E-11
     TRS4 it   7 1.00000000   0.101E+00       0.013     2162.647   0.100E-11
     TRS4 it   8 1.00000000   0.190E-02       0.013     2177.674   0.100E-11
     TRS4 it   9 1.00000000   0.824E-06       0.013     2167.385   0.100E-11
     TRS4 it  10 1.00000000   0.284E-12       0.013     2162.769   0.100E-11
     Final TRS4 iteration   10 1.00000000   0.284E-12
     Chemical potential (mu):       0.05307
 
 PAO| energy:  -191.62708510497416      penalty:   5.0272445382438104E-004
 PAO|LS| adapt:  T T T
 PAO|LS| adapt: scan_steps:    0.0000000000000000       0.39574095310602408       0.79148190621204817     
 PAO|LS| adapt: energies:   -191.69137568325934       -191.69528318130816       -191.62708510497416     
 PAO|LS| adapt: suggested step_size:   0.21931621102410015     
 PAO|LS| adapt: predicted energy  -191.70244850536878     
 PAO| ======================= Iteration:        19 =============================

     Lanczos converged:  T threshold:   0.100E-02
     Est. extremal eigenvalues:    0.483E+01   0.133E+00
     Est. condition number :    0.364E+02

 Order=           3
     NS sqrt iter    1 1.00000000   0.124E+01       0.021     2651.450
     NS sqrt iter    2 1.00000000   0.631E+00       0.034     3332.552
     NS sqrt iter    3 1.00000000   0.203E+00       0.034     3342.354
     NS sqrt iter    4 1.00000000   0.259E-01       0.034     3345.723
     NS sqrt iter    5 1.00000000   0.116E-03       0.034     3359.884
     NS sqrt iter    6 1.00000000   0.283E-10       0.019     2206.199
     Symmetrizing Results
     Final NS sqrt iter    6 1.00000000   0.225E-11

     Est. extremal eigenvalues     -0.83249     2.58618  converged:  T
     TRS4 it   1 1.00000000   0.285E+02       0.007     2103.737   0.100E-11
     TRS4 it   2 1.00000000   0.234E+02       0.013     2174.227   0.100E-11
     TRS4 it   3 1.00000000   0.154E+02       0.013     2164.163   0.100E-11
     TRS4 it   4 1.00000000   0.889E+01       0.013     2175.005   0.100E-11
     TRS4 it   5 1.00000000   0.366E+01       0.013     2195.490   0.100E-11
     TRS4 it   6 1.00000000   0.918E+00       0.013     2161.729   0.100E-11
     TRS4 it   7 1.00000000   0.107E+00       0.013     2177.266   0.100E-11
     TRS4 it   8 1.00000000   0.212E-02       0.013     2184.462   0.100E-11
     TRS4 it   9 1.00000000   0.102E-05       0.013     2173.810   0.100E-11
     TRS4 it  10 1.00000000   0.535E-12       0.013     2171.560   0.100E-11
     Final TRS4 iteration   10 1.00000000   0.535E-12
     Chemical potential (mu):       0.05147
 
 PAO| energy:  -191.70243608188423      penalty:   5.0606876159848874E-004
 PAO|CG| trace_G_new    2.0551474710090424E-002
 PAO|CG| trace_G_prev   0.10103881058737169     
 PAO|CG| trace_G_mix   -3.2962067374750687E-004
 PAO|CG| trace_D   0.14988719609380369     
 PAO|CG| trace_D_Gnew  -4.2392667743781530E-005
 PAO|CG| beta:   0.20666410523292275     
 PAO| norm of gradient:  0.14335785541814730     
 PAO| energy improvement:  -1.1060398624891832E-002
 PAO| step     19                 -191.702436082  0.280E-03  0.219E+00     1.497
 PAO|LS| adapt:  T F F
 PAO|LS| adapt: scan_steps:    0.0000000000000000        0.0000000000000000        0.0000000000000000     
 PAO|LS| adapt: energies:   -191.70243608188423        0.0000000000000000        0.0000000000000000     
 PAO| ======================= Iteration:        20 =============================

     Lanczos converged:  T threshold:   0.100E-02
     Est. extremal eigenvalues:    0.483E+01   0.133E+00
     Est. condition number :    0.364E+02

 Order=           3
     NS sqrt iter    1 1.00000000   0.124E+01       0.021     2693.272
     NS sqrt iter    2 1.00000000   0.631E+00       0.034     3351.427
     NS sqrt iter    3 1.00000000   0.203E+00       0.034     3343.292
     NS sqrt iter    4 1.00000000   0.259E-01       0.034     3335.635
     NS sqrt iter    5 1.00000000   0.116E-03       0.034     3358.002
     NS sqrt iter    6 1.00000000   0.282E-10       0.019     2196.960
     Symmetrizing Results
     Final NS sqrt iter    6 1.00000000   0.223E-11

     Est. extremal eigenvalues     -0.83250     2.58494  converged:  T
     TRS4 it   1 1.00000000   0.285E+02       0.007     2080.529   0.100E-11
     TRS4 it   2 1.00000000   0.234E+02       0.013     2169.930   0.100E-11
     TRS4 it   3 1.00000000   0.154E+02       0.013     2154.662   0.100E-11
     TRS4 it   4 1.00000000   0.888E+01       0.013     2171.826   0.100E-11
     TRS4 it   5 1.00000000   0.365E+01       0.013     2168.226   0.100E-11
     TRS4 it   6 1.00000000   0.914E+00       0.013     2183.995   0.100E-11
     TRS4 it   7 1.00000000   0.106E+00       0.013     2180.823   0.100E-11
     TRS4 it   8 1.00000000   0.209E-02       0.013     2183.983   0.100E-11
     TRS4 it   9 1.00000000   0.995E-06       0.013     2195.184   0.100E-11
     TRS4 it  10 1.00000000   0.476E-12       0.013     2194.540   0.100E-11
     Final TRS4 iteration   10 1.00000000   0.476E-12
     Chemical potential (mu):       0.05165
 
 PAO| energy:  -191.70606650663683      penalty:   4.9633904459990411E-004
 PAO|LS| adapt:  T T F
 PAO|LS| adapt: scan_steps:    0.0000000000000000       0.21931621102410015        0.0000000000000000     
 PAO|LS| adapt: energies:   -191.70243608188423       -191.70606650663683        0.0000000000000000     
 PAO| ======================= Iteration:        21 =============================

     Lanczos converged:  T threshold:   0.100E-02
     Est. extremal eigenvalues:    0.483E+01   0.133E+00
     Est. condition number :    0.363E+02

 Order=           3
     NS sqrt iter    1 1.00000000   0.124E+01       0.021     2673.188
     NS sqrt iter    2 1.00000000   0.631E+00       0.034     3322.570
     NS sqrt iter    3 1.00000000   0.203E+00       0.034     3344.958
     NS sqrt iter    4 1.00000000   0.259E-01       0.034     3301.294
     NS sqrt iter    5 1.00000000   0.117E-03       0.034     3323.201
     NS sqrt iter    6 1.00000000   0.282E-10       0.019     2184.162
     Symmetrizing Results
     Final NS sqrt iter    6 1.00000000   0.223E-11

     Est. extremal eigenvalues     -0.83251     2.58369  converged:  T
     TRS4 it   1 1.00000000   0.285E+02       0.007     2114.701   0.100E-11
     TRS4 it   2 1.00000000   0.234E+02       0.013     2156.589   0.100E-11
     TRS4 it   3 1.00000000   0.154E+02       0.013     2197.630   0.100E-11
     TRS4 it   4 1.00000000   0.887E+01       0.013     2188.085   0.100E-11
     TRS4 it   5 1.00000000   0.364E+01       0.013     2168.290   0.100E-11
     TRS4 it   6 1.00000000   0.910E+00       0.013     2194.698   0.100E-11
     TRS4 it   7 1.00000000   0.105E+00       0.013     2208.359   0.100E-11
     TRS4 it   8 1.00000000   0.206E-02       0.013     2189.627   0.100E-11
     TRS4 it   9 1.00000000   0.967E-06       0.013     2199.569   0.100E-11
     TRS4 it  10 1.00000000   0.451E-12       0.013     2152.525   0.100E-11
     Final TRS4 iteration   10 1.00000000   0.451E-12
     Chemical potential (mu):       0.05183
 
 PAO| energy:  -191.70792698445530      penalty:   4.8701876041236890E-004
 PAO|LS| adapt:  T T F
 PAO|LS| adapt: scan_steps:    0.0000000000000000       0.43863242204820030        0.0000000000000000     
 PAO|LS| adapt: energies:   -191.70243608188423       -191.70792698445530        0.0000000000000000     
 PAO| ======================= Iteration:        22 =============================

     Lanczos converged:  T threshold:   0.100E-02
     Est. extremal eigenvalues:    0.482E+01   0.133E+00
     Est. condition number :    0.363E+02

 Order=           3
     NS sqrt iter    1 1.00000000   0.124E+01       0.021     2696.252
     NS sqrt iter    2 1.00000000   0.630E+00       0.034     3342.768
     NS sqrt iter    3 1.00000000   0.203E+00       0.034     3335.416
     NS sqrt iter    4 1.00000000   0.259E-01       0.034     3340.753
     NS sqrt iter    5 1.00000000   0.117E-03       0.034     3357.479
     NS sqrt iter    6 1.00000000   0.281E-10       0.019     2192.793
     Symmetrizing Results
     Final NS sqrt iter    6 1.00000000   0.225E-11

     Est. extremal eigenvalues     -0.83252     2.58115  converged:  T
     TRS4 it   1 1.00000000   0.285E+02       0.007     2121.087   0.100E-11
     TRS4 it   2 1.00000000   0.234E+02       0.013     2167.201   0.100E-11
     TRS4 it   3 1.00000000   0.154E+02       0.013     2160.843   0.100E-11
     TRS4 it   4 1.00000000   0.885E+01       0.013     2192.974   0.100E-11
     TRS4 it   5 1.00000000   0.362E+01       0.013     2183.221   0.100E-11
     TRS4 it   6 1.00000000   0.902E+00       0.013     2166.844   0.100E-11
     TRS4 it   7 1.00000000   0.104E+00       0.013     2147.382   0.100E-11
     TRS4 it   8 1.00000000   0.200E-02       0.013     2174.957   0.100E-11
     TRS4 it   9 1.00000000   0.912E-06       0.013     2178.576   0.100E-11
     TRS4 it  10 1.00000000   0.400E-12       0.013     2139.572   0.100E-11
     Final TRS4 iteration   10 1.00000000   0.400E-12
     Chemical potential (mu):       0.05219
 
 PAO| energy:  -191.70626307336312      penalty:   4.6958029327718296E-004
 PAO|LS| Need extra step
 PAO|LS| adapt:  T T T
 PAO|LS| adapt: scan_steps:    0.0000000000000000       0.43863242204820030       0.87726484409640060     
 PAO|LS| adapt: energies:   -191.70243608188423       -191.70792698445530       -191.70626307336312     
 PAO|LS| adapt: suggested step_size:   0.55594103556004848     
 PAO|LS| adapt: predicted energy  -191.70818285876013     
 PAO| ======================= Iteration:        23 =============================

     Lanczos converged:  T threshold:   0.100E-02
     Est. extremal eigenvalues:    0.482E+01   0.133E+00
     Est. condition number :    0.363E+02

 Order=           3
     NS sqrt iter    1 1.00000000   0.124E+01       0.021     2665.926
     NS sqrt iter    2 1.00000000   0.631E+00       0.034     3350.259
     NS sqrt iter    3 1.00000000   0.203E+00       0.034     3356.364
     NS sqrt iter    4 1.00000000   0.259E-01       0.034     3356.012
     NS sqrt iter    5 1.00000000   0.117E-03       0.034     3362.872
     NS sqrt iter    6 1.00000000   0.281E-10       0.019     2207.454
     Symmetrizing Results
     Final NS sqrt iter    6 1.00000000   0.224E-11

     Est. extremal eigenvalues     -0.83251     2.58301  converged:  T
     TRS4 it   1 1.00000000   0.285E+02       0.007     2053.736   0.100E-11
     TRS4 it   2 1.00000000   0.234E+02       0.013     2153.922   0.100E-11
     TRS4 it   3 1.00000000   0.154E+02       0.013     2160.867   0.100E-11
     TRS4 it   4 1.00000000   0.886E+01       0.013     2196.249   0.100E-11
     TRS4 it   5 1.00000000   0.364E+01       0.013     2163.925   0.100E-11
     TRS4 it   6 1.00000000   0.908E+00       0.013     2177.006   0.100E-11
     TRS4 it   7 1.00000000   0.105E+00       0.013     2187.263   0.100E-11
     TRS4 it   8 1.00000000   0.204E-02       0.013     2169.762   0.100E-11
     TRS4 it   9 1.00000000   0.952E-06       0.013     2157.336   0.100E-11
     TRS4 it  10 1.00000000   0.439E-12       0.013     2180.527   0.100E-11
     Final TRS4 iteration   10 1.00000000   0.439E-12
     Chemical potential (mu):       0.05193
 
 PAO| energy:  -191.70818908614706      penalty:   4.8219911587972416E-004
 PAO|CG| trace_G_new    1.5326720646633478E-002
 PAO|CG| trace_G_prev    2.0551474710090424E-002
 PAO|CG| trace_G_mix    1.0344760202456739E-004
 PAO|CG| trace_D    2.6970686793600880E-002
 PAO|CG| trace_D_Gnew  -4.4957496088630045E-005
 PAO|CG| beta:   0.74073871872243524     
 PAO| norm of gradient:  0.12380113346263627     
 PAO| energy improvement:  -5.7530042628286537E-003
 PAO| step     23                 -191.708189086  0.242E-03  0.556E+00     1.944
 PAO|LS| adapt:  T F F
 PAO|LS| adapt: scan_steps:    0.0000000000000000        0.0000000000000000        0.0000000000000000     
 PAO|LS| adapt: energies:   -191.70818908614706        0.0000000000000000        0.0000000000000000     
 PAO| ======================= Iteration:        24 =============================

     Lanczos converged:  T threshold:   0.100E-02
     Est. extremal eigenvalues:    0.482E+01   0.132E+00
     Est. condition number :    0.364E+02

 Order=           3
     NS sqrt iter    1 1.00000000   0.124E+01       0.021     2676.911
     NS sqrt iter    2 1.00000000   0.630E+00       0.034     3345.241
     NS sqrt iter    3 1.00000000   0.203E+00       0.034     3337.928
     NS sqrt iter    4 1.00000000   0.259E-01       0.034     3318.704
     NS sqrt iter    5 1.00000000   0.117E-03       0.034     3340.980
     NS sqrt iter    6 1.00000000   0.285E-10       0.019     2220.207
     Symmetrizing Results
     Final NS sqrt iter    6 1.00000000   0.224E-11

     Est. extremal eigenvalues     -0.83253     2.57990  converged:  T
     TRS4 it   1 1.00000000   0.285E+02       0.007     2124.377   0.100E-11
     TRS4 it   2 1.00000000   0.234E+02       0.013     2199.608   0.100E-11
     TRS4 it   3 1.00000000   0.153E+02       0.013     2156.652   0.100E-11
     TRS4 it   4 1.00000000   0.884E+01       0.013     2183.502   0.100E-11
     TRS4 it   5 1.00000000   0.362E+01       0.013     2165.642   0.100E-11
     TRS4 it   6 1.00000000   0.900E+00       0.013     2145.637   0.100E-11
     TRS4 it   7 1.00000000   0.103E+00       0.013     2169.353   0.100E-11
     TRS4 it   8 1.00000000   0.198E-02       0.013     2181.390   0.100E-11
     TRS4 it   9 1.00000000   0.897E-06       0.013     2159.349   0.100E-11
     TRS4 it  10 1.00000000   0.385E-12       0.013     2175.118   0.100E-11
     Final TRS4 iteration   10 1.00000000   0.385E-12
     Chemical potential (mu):       0.05228
 
 PAO| energy:  -191.71123402452494      penalty:   4.4546412202344773E-004
 PAO|LS| adapt:  T T F
 PAO|LS| adapt: scan_steps:    0.0000000000000000       0.55594103556004848        0.0000000000000000     
 PAO|LS| adapt: energies:   -191.70818908614706       -191.71123402452494        0.0000000000000000     
 PAO| ======================= Iteration:        25 =============================

     Lanczos converged:  F threshold:   0.100E-02
     Est. extremal eigenvalues:    0.481E+01   0.132E+00
     Est. condition number :    0.364E+02

 Order=           3
     NS sqrt iter    1 1.00000000   0.124E+01       0.021     2668.530
     NS sqrt iter    2 1.00000000   0.629E+00       0.034     3330.164
     NS sqrt iter    3 1.00000000   0.203E+00       0.034     3316.013
     NS sqrt iter    4 1.00000000   0.260E-01       0.034     3329.536
     NS sqrt iter    5 1.00000000   0.118E-03       0.034     3333.375
     NS sqrt iter    6 1.00000000   0.289E-10       0.019     2212.387
     Symmetrizing Results
     Final NS sqrt iter    6 1.00000000   0.225E-11

     Est. extremal eigenvalues     -0.83253     2.57665  converged:  T
     TRS4 it   1 1.00000000   0.285E+02       0.007     2110.611   0.100E-11
     TRS4 it   2 1.00000000   0.233E+02       0.013     2167.673   0.100E-11
     TRS4 it   3 1.00000000   0.153E+02       0.013     2159.762   0.100E-11
     TRS4 it   4 1.00000000   0.881E+01       0.013     2169.087   0.100E-11
     TRS4 it   5 1.00000000   0.360E+01       0.013     2174.304   0.100E-11
     TRS4 it   6 1.00000000   0.892E+00       0.013     2156.881   0.100E-11
     TRS4 it   7 1.00000000   0.101E+00       0.013     2189.255   0.100E-11
     TRS4 it   8 1.00000000   0.192E-02       0.013     2165.695   0.100E-11
     TRS4 it   9 1.00000000   0.846E-06       0.013     2162.296   0.100E-11
     TRS4 it  10 1.00000000   0.346E-12       0.013     2168.219   0.100E-11
     Final TRS4 iteration   10 1.00000000   0.346E-12
     Chemical potential (mu):       0.05264
 
 PAO| energy:  -191.70311257003303      penalty:   4.1236115801343359E-004
 PAO|LS| adapt:  T T T
 PAO|LS| adapt: scan_steps:    0.0000000000000000       0.55594103556004848        1.1118820711200970     
 PAO|LS| adapt: energies:   -191.70818908614706       -191.71123402452494       -191.70311257003303     
 PAO|LS| adapt: suggested step_size:   0.42956881946575581     
 PAO|LS| adapt: predicted energy  -191.71152251311923     
 PAO| ======================= Iteration:        26 =============================

     Lanczos converged:  T threshold:   0.100E-02
     Est. extremal eigenvalues:    0.482E+01   0.133E+00
     Est. condition number :    0.363E+02

 Order=           3
     NS sqrt iter    1 1.00000000   0.124E+01       0.021     2669.079
     NS sqrt iter    2 1.00000000   0.630E+00       0.034     3338.927
     NS sqrt iter    3 1.00000000   0.203E+00       0.034     3328.578
     NS sqrt iter    4 1.00000000   0.259E-01       0.034     3351.953
     NS sqrt iter    5 1.00000000   0.117E-03       0.034     3359.629
     NS sqrt iter    6 1.00000000   0.284E-10       0.019     2219.853
     Symmetrizing Results
     Final NS sqrt iter    6 1.00000000   0.224E-11

     Est. extremal eigenvalues     -0.83252     2.58062  converged:  T
     TRS4 it   1 1.00000000   0.285E+02       0.007     2081.512   0.100E-11
     TRS4 it   2 1.00000000   0.234E+02       0.013     2165.463   0.100E-11
     TRS4 it   3 1.00000000   0.154E+02       0.013     2186.863   0.100E-11
     TRS4 it   4 1.00000000   0.884E+01       0.013     2180.945   0.100E-11
     TRS4 it   5 1.00000000   0.362E+01       0.013     2171.134   0.100E-11
     TRS4 it   6 1.00000000   0.902E+00       0.013     2191.721   0.100E-11
     TRS4 it   7 1.00000000   0.103E+00       0.013     2179.245   0.100E-11
     TRS4 it   8 1.00000000   0.199E-02       0.013     2185.049   0.100E-11
     TRS4 it   9 1.00000000   0.909E-06       0.013     2155.011   0.100E-11
     TRS4 it  10 1.00000000   0.396E-12       0.013     2184.365   0.100E-11
     Final TRS4 iteration   10 1.00000000   0.396E-12
     Chemical potential (mu):       0.05220
 
 PAO| energy:  -191.71151287004054      penalty:   4.5348963376836673E-004
 PAO|CG| trace_G_new    1.2004574688871688E-002
 PAO|CG| trace_G_prev    1.5326720646633478E-002
 PAO|CG| trace_G_mix    2.1887269764209053E-004
 PAO|CG| trace_D    3.0191974120867968E-002
 PAO|CG| trace_D_Gnew  -6.7843632514789901E-005
 PAO|CG| beta:   0.76896436380331190     
 PAO| norm of gradient:  0.10956539001377984     
 PAO| energy improvement:  -3.3237838934780939E-003
 PAO| step     26                 -191.711512870  0.214E-03  0.430E+00     1.501
 PAO|LS| adapt:  T F F
 PAO|LS| adapt: scan_steps:    0.0000000000000000        0.0000000000000000        0.0000000000000000     
 PAO|LS| adapt: energies:   -191.71151287004054        0.0000000000000000        0.0000000000000000     
 PAO| ======================= Iteration:        27 =============================

     Lanczos converged:  T threshold:   0.100E-02
     Est. extremal eigenvalues:    0.481E+01   0.132E+00
     Est. condition number :    0.364E+02

 Order=           3
     NS sqrt iter    1 1.00000000   0.124E+01       0.021     2677.182
     NS sqrt iter    2 1.00000000   0.629E+00       0.034     3341.783
     NS sqrt iter    3 1.00000000   0.202E+00       0.034     3347.771
     NS sqrt iter    4 1.00000000   0.259E-01       0.034     3328.799
     NS sqrt iter    5 1.00000000   0.117E-03       0.034     3332.951
     NS sqrt iter    6 1.00000000   0.288E-10       0.019     2204.819
     Symmetrizing Results
     Final NS sqrt iter    6 1.00000000   0.224E-11

     Est. extremal eigenvalues     -0.83254     2.57863  converged:  T
     TRS4 it   1 1.00000000   0.285E+02       0.007     2131.562   0.100E-11
     TRS4 it   2 1.00000000   0.234E+02       0.013     2173.943   0.100E-11
     TRS4 it   3 1.00000000   0.153E+02       0.013     2154.168   0.100E-11
     TRS4 it   4 1.00000000   0.883E+01       0.013     2152.587   0.100E-11
     TRS4 it   5 1.00000000   0.361E+01       0.013     2154.972   0.100E-11
     TRS4 it   6 1.00000000   0.894E+00       0.013     2178.661   0.100E-11
     TRS4 it   7 1.00000000   0.102E+00       0.013     2170.021   0.100E-11
     TRS4 it   8 1.00000000   0.194E-02       0.013     2165.155   0.100E-11
     TRS4 it   9 1.00000000   0.861E-06       0.013     2165.683   0.100E-11
     TRS4 it  10 1.00000000   0.359E-12       0.013     2179.696   0.100E-11
     Final TRS4 iteration   10 1.00000000   0.359E-12
     Chemical potential (mu):       0.05255
 
 PAO| energy:  -191.71388740717060      penalty:   4.1785859332096355E-004
 PAO|LS| adapt:  T T F
 PAO|LS| adapt: scan_steps:    0.0000000000000000       0.42956881946575581        0.0000000000000000     
 PAO|LS| adapt: energies:   -191.71151287004054       -191.71388740717060        0.0000000000000000     
 PAO| ======================= Iteration:        28 =============================

     Lanczos converged:  F threshold:   0.100E-02
     Est. extremal eigenvalues:    0.480E+01   0.132E+00
     Est. condition number :    0.364E+02

 Order=           3
     NS sqrt iter    1 1.00000000   0.123E+01       0.021     2676.416
     NS sqrt iter    2 1.00000000   0.628E+00       0.034     3331.538
     NS sqrt iter    3 1.00000000   0.202E+00       0.034     3354.619
     NS sqrt iter    4 1.00000000   0.258E-01       0.034     3355.852
     NS sqrt iter    5 1.00000000   0.117E-03       0.034     3371.067
     NS sqrt iter    6 1.00000000   0.292E-10       0.020     2214.975
     Symmetrizing Results
     Final NS sqrt iter    6 1.00000000   0.225E-11

     Est. extremal eigenvalues     -0.83254     2.57651  converged:  T
     TRS4 it   1 1.00000000   0.285E+02       0.007     2092.495   0.100E-11
     TRS4 it   2 1.00000000   0.233E+02       0.013     2168.469   0.100E-11
     TRS4 it   3 1.00000000   0.153E+02       0.013     2160.597   0.100E-11
     TRS4 it   4 1.00000000   0.881E+01       0.013     2177.819   0.100E-11
     TRS4 it   5 1.00000000   0.359E+01       0.013     2169.272   0.100E-11
     TRS4 it   6 1.00000000   0.887E+00       0.013     2158.491   0.100E-11
     TRS4 it   7 1.00000000   0.100E+00       0.013     2178.501   0.100E-11
     TRS4 it   8 1.00000000   0.188E-02       0.013     2190.949   0.100E-11
     TRS4 it   9 1.00000000   0.815E-06       0.013     2171.891   0.100E-11
     TRS4 it  10 1.00000000   0.323E-12       0.013     2181.219   0.100E-11
     Final TRS4 iteration   10 1.00000000   0.323E-12
     Chemical potential (mu):       0.05290
 
 PAO| energy:  -191.71060474153916      penalty:   3.8510992545576353E-004
 PAO|LS| adapt:  T T T
 PAO|LS| adapt: scan_steps:    0.0000000000000000       0.42956881946575581       0.85913763893151163     
 PAO|LS| adapt: energies:   -191.71151287004054       -191.71388740717060       -191.71060474153916     
 PAO|LS| adapt: suggested step_size:   0.39509032322776455     
 PAO|LS| adapt: predicted energy  -191.71390562945751     
 PAO| ======================= Iteration:        29 =============================

     Lanczos converged:  T threshold:   0.100E-02
     Est. extremal eigenvalues:    0.481E+01   0.132E+00
     Est. condition number :    0.364E+02

 Order=           3
     NS sqrt iter    1 1.00000000   0.124E+01       0.021     2659.091
     NS sqrt iter    2 1.00000000   0.629E+00       0.034     3354.265
     NS sqrt iter    3 1.00000000   0.202E+00       0.034     3347.567
     NS sqrt iter    4 1.00000000   0.259E-01       0.034     3334.226
     NS sqrt iter    5 1.00000000   0.117E-03       0.034     3323.777
     NS sqrt iter    6 1.00000000   0.287E-10       0.019     2223.432
     Symmetrizing Results
     Final NS sqrt iter    6 1.00000000   0.224E-11

     Est. extremal eigenvalues     -0.83254     2.57880  converged:  T
     TRS4 it   1 1.00000000   0.285E+02       0.007     2122.355   0.100E-11
     TRS4 it   2 1.00000000   0.234E+02       0.013     2168.580   0.100E-11
     TRS4 it   3 1.00000000   0.153E+02       0.013     2159.729   0.100E-11
     TRS4 it   4 1.00000000   0.883E+01       0.013     2188.063   0.100E-11
     TRS4 it   5 1.00000000   0.361E+01       0.013     2176.835   0.100E-11
     TRS4 it   6 1.00000000   0.895E+00       0.013     2194.991   0.100E-11
     TRS4 it   7 1.00000000   0.102E+00       0.013     2172.974   0.100E-11
     TRS4 it   8 1.00000000   0.194E-02       0.013     2171.039   0.100E-11
     TRS4 it   9 1.00000000   0.864E-06       0.013     2163.114   0.100E-11
[...]

     Est. extremal eigenvalues     -0.83242     2.57111  converged:  T
     TRS4 it   1 1.00000000   0.287E+02       0.007     2105.240   0.100E-11
     TRS4 it   2 1.00000000   0.235E+02       0.013     2177.533   0.100E-11
     TRS4 it   3 1.00000000   0.155E+02       0.013     2167.722   0.100E-11
     TRS4 it   4 1.00000000   0.915E+01       0.013     2169.032   0.100E-11
     TRS4 it   5 1.00000000   0.407E+01       0.013     2170.162   0.100E-11
     TRS4 it   6 1.00000000   0.124E+01       0.013     2153.223   0.100E-11
     TRS4 it   7 1.00000000   0.213E+00       0.013     2171.488   0.100E-11
     TRS4 it   8 1.00000000   0.102E-01       0.013     2162.996   0.100E-11
     TRS4 it   9 1.00000000   0.254E-04       0.013     2166.285   0.100E-11
     TRS4 it  10 1.00000000   0.200E-09       0.013     2152.910   0.100E-11
     Final TRS4 iteration   10 1.00000000   0.200E-09
     Chemical potential (mu):       0.02719
 
 PAO| energy:  -191.32789755599842      penalty:   4.0554736271564530E-008
 PAO| Writing restart file.
     Est. extremal eigenvalues     -0.83242     2.57111  converged:  T
     TRS4 it   1 1.00000000   0.287E+02       0.007     2095.456   0.100E-11
     TRS4 it   2 1.00000000   0.235E+02       0.013     2183.427   0.100E-11
     TRS4 it   3 1.00000000   0.155E+02       0.013     2142.563   0.100E-11
     TRS4 it   4 1.00000000   0.915E+01       0.013     2162.708   0.100E-11
     TRS4 it   5 1.00000000   0.407E+01       0.013     2162.118   0.100E-11
     TRS4 it   6 1.00000000   0.124E+01       0.013     2161.080   0.100E-11
     TRS4 it   7 1.00000000   0.213E+00       0.013     2170.122   0.100E-11
     TRS4 it   8 1.00000000   0.102E-01       0.013     2173.933   0.100E-11
     TRS4 it   9 1.00000000   0.254E-04       0.013     2145.938   0.100E-11
     TRS4 it  10 1.00000000   0.200E-09       0.013     2170.369   0.100E-11
     Final TRS4 iteration   10 1.00000000   0.200E-09
     Chemical potential (mu):       0.02719

 SCF     1     -1103.043870415     -1103.043870415    1.741475

*********************************************************
 Using MIXING_FRACTION=0.450 to mix KS matrix:  iscf=  2
 KS_nw=0.450*KS + 0.550*KS_old
*********************************************************
     Est. extremal eigenvalues     -0.83242     2.57111  converged:  T
     TRS4 it   1 1.00000000   0.287E+02       0.007     2134.574   0.100E-11
     TRS4 it   2 1.00000000   0.235E+02       0.013     2149.174   0.100E-11
     TRS4 it   3 1.00000000   0.155E+02       0.013     2161.309   0.100E-11
     TRS4 it   4 1.00000000   0.915E+01       0.013     2155.734   0.100E-11
     TRS4 it   5 1.00000000   0.407E+01       0.013     2161.537   0.100E-11
     TRS4 it   6 1.00000000   0.124E+01       0.013     2178.833   0.100E-11
     TRS4 it   7 1.00000000   0.213E+00       0.013     2148.165   0.100E-11
     TRS4 it   8 1.00000000   0.102E-01       0.013     2160.224   0.100E-11
     TRS4 it   9 1.00000000   0.254E-04       0.013     2178.399   0.100E-11
     TRS4 it  10 1.00000000   0.200E-09       0.013     2171.193   0.100E-11
     Final TRS4 iteration   10 1.00000000   0.200E-09
     Chemical potential (mu):       0.02720

 SCF     2     -1103.043870415        -0.000000000    1.742646


 SCF run converged in     2 steps.

 PAO| Storing density matrix for ASPC guess in slot:           1

 ENERGY| Total FORCE_EVAL ( QS ) energy [a.u.]:            -1103.043870414975117

 -------------------------------------------------------------------------------
 -                                                                             -
 -                                DBCSR STATISTICS                             -
 -                                                                             -
 -------------------------------------------------------------------------------
 COUNTER                                    TOTAL       BLAS       SMM       ACC
 flops     5 x     5 x     4             23116800       0.0%    100.0%      0.0%     
 flops    13 x     5 x     4             29818880       0.0%    100.0%      0.0%     
 flops     5 x    13 x     4             29818880       0.0%    100.0%      0.0%     
 flops    13 x    13 x     4             39370240       0.0%    100.0%      0.0%     
 flops     4 x     4 x     5           6232473600       0.0%    100.0%      0.0%     
 flops     5 x     4 x     5           7690649600       0.0%    100.0%      0.0%     
 flops     4 x     4 x    13           8102215680       0.0%    100.0%      0.0%     
 flops    13 x     4 x     5           9997844480       0.0%    100.0%      0.0%     
 flops     5 x     4 x    13           9997844480       0.0%    100.0%      0.0%     
 flops    13 x     4 x    13          12997197824       0.0%    100.0%      0.0%     
 flops     5 x     4 x     4         395131186720       0.0%    100.0%      0.0%     
 flops    13 x     4 x     4         537349927712       0.0%    100.0%      0.0%     
 flops     4 x     4 x     4       28029043501696       0.0%    100.0%      0.0%     
 flops inhomo. stacks                           0       0.0%      0.0%      0.0%
 flops total                        29.016665E+12       0.0%    100.0%      0.0%
 flops max/rank                    915.086479E+09       0.0%    100.0%      0.0%
 matmuls inhomo. stacks                         0       0.0%      0.0%      0.0%
 matmuls total                       222883387471       0.0%    100.0%      0.0%
 number of processed stacks             227645820       0.0%    100.0%      0.0%
 average stack size                                     0.0     979.1       0.0
 marketing flops                    50.127553E+12
 -------------------------------------------------------------------------------
 # multiplications                          46852
 max memory usage/rank             618.360832E+06
 # max total images/rank                        2
 # max 3D layers                                1
 # MPI messages exchanged                19490432
 MPI messages size (bytes):
  total size                         2.313510E+12
  min size                           0.000000E+00
  max size                         541.696000E+03
  average size                     118.699766E+03
 MPI breakdown and total messages size (bytes):
             size <=      128              855150                     4992
       128 < size <=     8192              287124               1069582464
      8192 < size <=    32768               44850               1140090112
     32768 < size <=   131072             8388856             620845734144
    131072 < size <=  4194304             9914452            1690828154112
   4194304 < size <= 16777216                   0                        0
  16777216 < size                               0                        0
 -------------------------------------------------------------------------------

 *** WARNING in dbcsr_mm.F:301 :: Using a non-square number of MPI ranks ***
 *** might lead to poor performance. Used ranks: 32 Suggested: 36 64     ***

 -------------------------------------------------------------------------------
 -                                                                             -
 -                      DBCSR MESSAGE PASSING PERFORMANCE                      -
 -                                                                             -
 -------------------------------------------------------------------------------
 ROUTINE             CALLS      AVE VOLUME [Bytes]
 MP_Bcast               14                     12.
 MP_Allreduce       280186                     37.
 MP_Alltoall        121685                  14863.
 MP_ISend          1564864                  55283.
 MP_IRecv          1532064                  56550.
 -------------------------------------------------------------------------------

 -------------------------------------------------------------------------------
 -                                                                             -
 -                                DBM STATISTICS                               -
 -                                                                             -
 -------------------------------------------------------------------------------
    M  x    N  x    K                                          COUNT     PERCENT
 -------------------------------------------------------------------------------

 -------------------------------------------------------------------------------
 -                                                                             -
 -                                GRID STATISTICS                              -
 -                                                                             -
 -------------------------------------------------------------------------------
 LP    KERNEL             BACKEND                              COUNT     PERCENT
 2     collocate ortho    CPU                               11471572      28.83%
 2     integrate ortho    CPU                               11471572      28.83%
 3     collocate ortho    CPU                                7376124      18.53%
 3     integrate ortho    CPU                                7376124      18.53%
 4     collocate ortho    CPU                                1047648       2.63%
 4     integrate ortho    CPU                                1047648       2.63%
 0     collocate general  CPU                                   6144       0.02%
 -------------------------------------------------------------------------------

 MEMORY| Estimated peak process memory [MiB]                                 590

 -------------------------------------------------------------------------------
 -                                                                             -
 -                         MESSAGE PASSING PERFORMANCE                         -
 -                                                                             -
 -------------------------------------------------------------------------------

 ROUTINE             CALLS      AVE VOLUME [Bytes]
 MP_Group                5
 MP_Bcast           335798                   2046.
 MP_Allreduce       834740                    514.
 MP_Sync                 5
 MP_Alltoall           369
 MP_SendRecv          1302                  18832.
 MP_ISendRecv         1302                  18832.
 MP_Wait              3696
 MP_ISend             2166                 108220.
 MP_IRecv             2166                 108236.
 -------------------------------------------------------------------------------


 -------------------------------------------------------------------------------
 -                                                                             -
 -                           R E F E R E N C E S                               -
 -                                                                             -
 -------------------------------------------------------------------------------
 
 CP2K version 2024.3 (Development Version), the CP2K developers group (2024).
 CP2K is freely available from https://www.cp2k.org/ .
 
 T. D. Kuehne, M. Iannuzzi, M. Del Ben, V. V. Rybkin, P. Seewald, F. Stein, T. 
 Laino, R. Z. Khaliullin, O. Schuett, F. Schiffmann, D. Golze, J. Wilhelm, S. 
 Chulkov, M. H. Bani-Hashemian, V. Weber, U. Borstnik, M. Taillefumier, A. S. 
 Jakobovits, A. Lazzaro, H. Pabst, T. Mueller, R. Schade, M. Guidon, S. 
 Andermatt, N. Holmberg, G. K. Schenter, A. Hehn, A. Bussy, F. Belleflamme, G. 
 Tabacchi, A. Gloess, M. Lass, I. Bethune, C. J. Mundy, C. Plessl, M. Watkins, 
 J. VandeVondele, M. Krack, J. Hutter.
 J. Chem. Phys. 152, 194103 (2020).
 CP2K: An electronic structure and molecular dynamics software package - 
 Quickstep: Efficient and accurate electronic structure calculations.
 https://doi.org/10.1063/5.0007045

 O. Schuett, J. VandeVondele.
 J. Chem. Theory Comput. 14, 4168-4175 (2018).
 Machine Learning Adaptive Basis Sets for Efficient Large Scale Density 
 Functional Theory Simulation.
 https://doi.org/10.1021/acs.jctc.8b00378

 O. Schuett, P. Messmer, J. Hutter, J. VandeVondele.
 Electronic Structure Calculations on Graphics Processing Units, 173-190 (2016).
 GPU-Accelerated Sparse Matrix-Matrix Multiplication for Linear Scaling Density 
 Functional Theory.
 https://doi.org/10.1002/9781118670712.ch8

 A. Heinecke, G. Henry, M. Hutchinson, H. Pabst.
 Proceedings of Intl. Supercomputing Conference, 981-991 (2016).
 LIBXSMM: Accelerating Small Matrix Multiplications by Runtime Code Generation.
 https://doi.org/10.1109/SC.2016.83

 J. Hutter, M. Iannuzzi, F. Schiffmann, J. VandeVondele.
 WIREs Comput Mol Sci. 4, 15-25 (2014).
 CP2K: atomistic simulations of condensed matter systems.
 https://doi.org/10.1002/wcms.1159

 U. Borstnik, J. VandeVondele, V. Weber, J. Hutter.
 Parallel Comput. 40, 47-58 (2014).
 Sparse matrix multiplication: The distributed block-compressed sparse row 
 library.
 https://doi.org/10.1016/j.parco.2014.03.012

 A. Marek, V. Blum, R. Johanni, V. Havu, B. Lang, T. Auckenthaler, A. Heinecke, 
 H. Bungartz, H. Lederer.
 J. Phys. Condens. Matter 26, 213201 (2014).
 The ELPA library: scalable parallel eigenvalue solutions for electronic 
 structure theory and computational science.
 https://doi.org/10.1088/0953-8984/26/21/213201

 J. VandeVondele, U. Borstnik, J. Hutter.
 J. Chem. Theory Comput. 8, 3565-3573 (2012).
 Linear Scaling Self-Consistent Field Calculations with Millions of Atoms in the 
 Condensed Phase.
 https://doi.org/10.1021/ct200897x

 J. VandeVondele, J. Hutter.
 J. Chem. Phys. 127, 114105 (2007).
 Gaussian basis sets for accurate calculations on molecular systems in gas and 
 condensed phases.
 https://doi.org/10.1063/1.2770708

 J. VandeVondele, M. Krack, F. Mohamed, M. Parrinello, T. Chassaing, J. Hutter.
 Comput. Phys. Commun. 167, 103-128 (2005).
 QUICKSTEP: Fast and accurate density functional calculations using a mixed 
 Gaussian and plane waves approach.
 https://doi.org/10.1016/j.cpc.2004.12.014

 M. Krack.
 Theor. Chem. Acc. 114, 145-152 (2005).
 Pseudopotentials for H to Kr optimized for gradient-corrected 
 exchange-correlation functionals.
 https://doi.org/10.1007/s00214-005-0655-y

 M. Frigo, S. G. Johnson.
 Proc. IEEE 93, 216-231 (2005).
 The design and implementation of FFTW3.
 https://doi.org/10.1109/JPROC.2004.840301

 A. M. N. Niklasson, C. J. Tymczak, M. Challacombe.
 J. Chem. Phys. 118, 8611-8620 (2003).
 Trace resetting density matrix purification in O(N) self-consistent-field 
 theory.
 https://doi.org/10.1063/1.1559913

 C. Hartwigsen, S. Goedecker, J. Hutter.
 Phys. Rev. B 58, 3641-3662 (1998).
 Relativistic separable dual-space Gaussian pseudopotentials from H to Rn.
 https://doi.org/10.1103/PhysRevB.58.3641

 G. Lippert, J. Hutter, M. Parrinello.
 Mol. Phys. 92, 477-487 (1997).
 A hybrid Gaussian and plane wave density functional scheme.
 https://doi.org/10.1080/002689797170220

 S. Goedecker, M. Teter, J. Hutter.
 Phys. Rev. B 54, 1703-1710 (1996).
 Separable dual-space Gaussian pseudopotentials.
 https://doi.org/10.1103/PhysRevB.54.1703

 J. P. Perdew, K. Burke, M. Ernzerhof.
 Phys. Rev. Lett. 77, 3865-3868 (1996).
 Generalized gradient approximation made simple.
 https://doi.org/10.1103/PhysRevLett.77.3865


 -------------------------------------------------------------------------------
 -                                                                             -
 -                                T I M I N G                                  -
 -                                                                             -
 -------------------------------------------------------------------------------
 SUBROUTINE                       CALLS  ASD         SELF TIME        TOTAL TIME
                                MAXIMUM       AVERAGE  MAXIMUM  AVERAGE  MAXIMUM
 CP2K                                 1  1.0    0.013    0.016  419.360  419.361
 qs_energies                          1  2.0    0.000    0.000  419.188  419.189
 ls_scf                               1  3.0    0.000    0.000  418.150  418.150
 pao_update                           6  4.0    0.006    0.025  392.212  392.214
 pao_calc_energy                    783  5.0    0.003    0.018  350.318  350.320
 dbcsr_multiply_generic           46852  8.4    1.303    1.418  329.763  330.132
 multiply_cannon                  46852  9.4    2.443    2.992  266.043  269.807
 multiply_cannon_loop             46852 10.4    1.754    2.033  255.991  260.721
 ls_scf_init_matrix_S               789  7.0    0.008    0.009  204.285  204.368
 pao_rebuild_S                      783  6.0    0.002    0.003  202.710  202.793
 matrix_sqrt_Newton_Schulz          789  8.0    0.163    0.271  189.421  189.473
 multiply_cannon_multrec         374816 11.4  166.792  168.641  167.570  169.399
 pao_dm_trs4                        783  6.0    0.006    0.007  147.218  147.242
 density_matrix_trs4                796  7.0    0.190    0.322  141.055  141.145
 mp_waitall_1                   3000058 12.6   85.621   94.650   85.621   94.650
 multiply_cannon_metrocomm3      374816 11.4    0.660    0.722   68.536   74.766
 arnoldi_extremal                  1585  8.5    0.013    0.014   55.135   55.194
 arnoldi_normal_ev                 1585  9.5    0.034    0.057   55.120   55.176
 make_m2s                         93704  9.4    0.512    0.692   48.239   49.407
 build_subspace                    5413 10.7    0.331    0.355   48.497   48.524
 make_images                      93704 10.4    6.885    7.133   46.965   48.182
 dbcsr_matrix_vector_mult        165560 11.7    0.710    1.069   45.662   46.089
 pao_calc_AB                       1038  5.8    0.002    0.002   41.455   41.457
 pao_calc_AB_equi                  1038  6.8    0.039    0.096   41.453   41.456
 pao_calc_grad_lnv_wrt_AB           254  7.0    0.018    0.021   41.057   41.091
 dbcsr_matrix_vector_mult_local  165560 12.7   39.009   39.307   39.193   39.490
 make_images_data                 93704 11.4    0.795    0.936   20.733   23.172
 ls_scf_main                          6  4.0    0.000    0.001   22.664   22.665
 hybrid_alltoall_any              95278 12.4    0.842    1.687   16.335   20.822
 ls_scf_dm_to_ks                     13  5.0    0.000    0.000   20.220   20.222
 mp_sum_l                        190963  9.5    8.394   17.909    8.394   17.909
 matrix_qs_to_ls                   1585  7.5    0.015    0.021   16.837   17.018
 dbcsr_multiply_generic_mpsum_f   34066  9.5    0.024    0.031    5.264   13.360
 qs_ks_update_qs_env                 14  6.0    0.000    0.000   12.131   12.133
 rebuild_ks_matrix                   14  7.0    0.000    0.000   12.121   12.123
 qs_ks_build_kohn_sham_matrix        14  8.0    0.002    0.003   12.121   12.123
 calculate_norms                 698464 11.4   10.837   11.751   10.837   11.751
 make_images_pack                 93704 11.4   10.307   10.603   10.434   10.732
 qs_rho_update_rho_low               14  6.0    0.000    0.000    9.559    9.561
 calculate_rho_elec                  14  7.0    0.005    0.005    9.559    9.560
 sum_up_and_integrate                14  9.0    0.000    0.001    9.171    9.173
 integrate_v_rspace                  14 10.0    0.000    0.000    9.158    9.161
 grid_collocate_task_list            14  8.0    8.485    8.558    8.485    8.558
 -------------------------------------------------------------------------------

 The number of warnings for this run is : 1
 
 -------------------------------------------------------------------------------
  **** **** ******  **  PROGRAM ENDED AT                 2024-09-24 06:26:04.706
 ***** ** ***  *** **   PROGRAM RAN ON                                    moritz
 **    ****   ******    PROGRAM RAN BY                                       ole
 ***** **    ** ** **   PROGRAM PROCESS ID                                170177
  **** **  *******  **  PROGRAM STOPPED IN /home/ole/git/pao_ml_equivar/64H2O_MD
                                           /Frame6500
