 DBCSR| CPU Multiplication driver                                           XSMM (U)
 DBCSR| Multrec recursion limit                                              512 (U)
 DBCSR| Multiplication stack size                                           1000 (D)
 DBCSR| Maximum elements for images                                    UNLIMITED (U)
 DBCSR| Multiplicative factor virtual images                                   1 (U)
 DBCSR| Use multiplication densification                                       T (D)
 DBCSR| Multiplication size stacks                                             3 (U)
 DBCSR| Use memory pool for CPU allocation                                     F (U)
 DBCSR| Number of 3D layers                                               SINGLE (U)
 DBCSR| Use MPI memory allocation                                              F (U)
 DBCSR| Use RMA algorithm                                                      F (U)
 DBCSR| Use Communication thread                                               T (U)
 DBCSR| Communication thread load                                             87 (D)
 DBCSR| MPI: My process id                                                     0
 DBCSR| MPI: Number of processes                                              32
 DBCSR| OMP: Current number of threads                                         1
 DBCSR| OMP: Max number of threads                                             1
 DBCSR| Split modifier for TAS multiplication algorithm                  1.0E+00 (U)


  **** **** ******  **  PROGRAM STARTED AT               2024-09-23 17:52:41.629
 ***** ** ***  *** **   PROGRAM STARTED ON                                moritz
 **    ****   ******    PROGRAM STARTED BY                                   ole
 ***** **    ** ** **   PROGRAM PROCESS ID                                161094
  **** **  *******  **  PROGRAM STARTED IN /home/ole/git/pao_ml_equivar/64H2O_MD
                                           /Frame6500

 CP2K| version string:                 CP2K version 2024.3 (Development Version)
 CP2K| source code revision number:                                  git:3f890bb
 CP2K| cp2kflags: omp libint fftw3 libxc libgrpp pexsi elpa parallel scalapack c
 CP2K|            osma quip deepmd xsmm plumed2 spglib libdftd4 sirius libvori l
 CP2K|            libbqb libvdwxc hdf5
 CP2K| is freely available from                            https://www.cp2k.org/
 CP2K| Program compiled at                          Mo 23 Sep 2024 17:17:04 CEST
 CP2K| Program compiled on                                                moritz
 CP2K| Program compiled for                                                local
 CP2K| Data directory path                               /home/ole/git/cp2k/data
 CP2K| Input file name                                             64H2O_ref.inp

 GLOBAL| Force Environment number                                              1
 GLOBAL| Basis set file name                                        BASIS_MOLOPT
 GLOBAL| Potential file name                                      GTH_POTENTIALS
 GLOBAL| MM Potential file name                                     MM_POTENTIAL
 GLOBAL| Coordinate file name                                         coords.xyz
 GLOBAL| Method name                                                        CP2K
 GLOBAL| Project name                                                  64H2O_ref
 GLOBAL| Run type                                                         ENERGY
 GLOBAL| FFT library                                                       FFTW3
 GLOBAL| Diagonalization library                                            ELPA
 GLOBAL| DGEMM library                                                      BLAS
 GLOBAL| Minimum number of eigenvectors for ELPA usage                        16
 GLOBAL| Orthonormality check for eigenvectors                          DISABLED
 GLOBAL| Matrix multiplication library                                     COSMA
 GLOBAL| All-to-all communication in single precision                          F
 GLOBAL| FFTs using library dependent lengths                                  F
 GLOBAL| Grid backend                                                       AUTO
 GLOBAL| Global print level                                                  LOW
 GLOBAL| MPI I/O enabled                                                       T
 GLOBAL| Total number of message passing processes                            32
 GLOBAL| Number of threads for this process                                    1
 GLOBAL| This output is from process                                           0
 GLOBAL| Stack size for threads created by OpenMP (OMP_STACKSIZE)        default
 GLOBAL| CPU model name           AMD Ryzen Threadripper 3970X 32-Core Processor
 GLOBAL| CPUID                                                              1002

 MEMORY| system memory details [Kb]
 MEMORY|                        rank 0           min           max       average
 MEMORY| MemTotal            131752136     131752136     131752136     131752136
 MEMORY| MemFree             117705420     117705420     117705420     117705420
 MEMORY| Buffers                261084        261084        261084        261084
 MEMORY| Cached                7823044       7823044       7823044       7823044
 MEMORY| Slab                   733492        733492        733492        733492
 MEMORY| SReclaimable           291484        291484        291484        291484
 MEMORY| MemLikelyFree       126081032     126081032     126081032     126081032


 GENERATE|  Preliminary Number of Bonds generated:                             0
 GENERATE|  Achieved consistency in connectivity generation.

 *******************************************************************************
 *******************************************************************************
 **                                                                           **
 **     #####                         ##              ##                      **
 **    ##   ##            ##          ##              ##                      **
 **   ##     ##                       ##            ######                    **
 **   ##     ##  ##   ##  ##   #####  ##  ##   ####   ##    #####    #####    **
 **   ##     ##  ##   ##  ##  ##      ## ##   ##      ##   ##   ##  ##   ##   **
 **   ##  ## ##  ##   ##  ##  ##      ####     ###    ##   ######   ######    **
 **    ##  ###   ##   ##  ##  ##      ## ##      ##   ##   ##       ##        **
 **     #######   #####   ##   #####  ##  ##  ####    ##    #####   ##        **
 **           ##                                                    ##        **
 **                                                                           **
 **                                                ... make the atoms dance   **
 **                                                                           **
 **            Copyright (C) by CP2K developers group (2000-2024)             **
 **                      J. Chem. Phys. 152, 194103 (2020)                    **
 **                                                                           **
 *******************************************************************************


 TOTAL NUMBERS AND MAXIMUM NUMBERS

  Total number of            - Atomic kinds:                                   2
                             - Atoms:                                        192
                             - Shell sets:                                   192
                             - Shells:                                       704
                             - Primitive Cartesian functions:               1344
                             - Cartesian basis functions:                   1536
                             - Spherical basis functions:                   1472

  Maximum angular momentum of- Orbital basis functions:                        2
                             - Local part of the GTH pseudopotential:          2
                             - Non-local part of the GTH pseudopotential:      0

 ------------------------------ Linear scaling SCF -----------------------------
 eps_scf:                                                              0.100E-07
 eps_filter:                                                           0.100E-11
 mixing_fraction:                                                      0.450E+00
 max_scf:                                                                     25
 fixed chemical potential (mu)                                                 F
 has unit metric:                                                              F
 Computing inv(S):                                                             T
 Computing sqrt(S):                                                            T
 Computing S preconditioner                                                    F
 S sqrt method:                                                     NEWTONSCHULZ
 S sqrt order:                                                                 3
 Extrapolation order:                                                          1
 S preconditioner type                                                      NONE
 Polarized Atomic Orbitals (PAO)                                               F
 Purification method                                   Trace resetting 4th order
 Cluster type                                                             ATOMIC
 Computing Chebyshev                                                       FALSE
 Using PAO                                                                     F
 -------------------------------------------------------------------------------


     Lanczos converged:  F threshold:   0.100E-02
     Est. extremal eigenvalues:    0.874E+01   0.564E-02
     Est. condition number :    0.155E+04

 Order=           3
     NS sqrt iter    1 1.00000000   0.226E+01       0.065     6176.029
     NS sqrt iter    2 1.00000000   0.118E+01       0.099     8046.130
     NS sqrt iter    3 1.00000000   0.584E+00       0.098     8143.805
     NS sqrt iter    4 1.00000000   0.335E+00       0.099     8079.036
     NS sqrt iter    5 1.00000000   0.227E+00       0.098     8134.021
     NS sqrt iter    6 1.00000000   0.108E+00       0.099     8054.530
     NS sqrt iter    7 1.00000000   0.137E-01       0.100     8010.750
     NS sqrt iter    8 1.00000000   0.689E-04       0.100     7969.026
     NS sqrt iter    9 1.00000000   0.319E-10       0.064     5935.477
     Symmetrizing Results
     Final NS sqrt iter    9 1.00000000   0.733E-11



 Guess for atomic kind: O

 Electronic structure
    Total number of core electrons                                          2.00
    Total number of valence electrons                                       6.00
    Total number of electrons                                               8.00
    Multiplicity                                                   not specified
    S   [  2.00] 2.00
    P      4.00


 *******************************************************************************
                  Iteration          Convergence                     Energy [au]
 *******************************************************************************
                          1        0.708315                     -15.576645311500
                          2        0.608879                     -15.587933561584
                          3        0.102828E-01                 -15.656849565404
                          4        0.113889E-02                 -15.656866888140
                          5        0.434197E-03                 -15.656867072159
                          6        0.263771E-03                 -15.656867091904
                          7        0.478536E-06                 -15.656867103452

 Energy components [Hartree]           Total Energy ::          -15.656867103452
                                        Band Energy ::           -3.000198112285
                                     Kinetic Energy ::           11.759971203220
                                   Potential Energy ::          -27.416838306672
                                      Virial (-V/T) ::            2.331369510426
                                        Core Energy ::          -26.140716385623
                                          XC Energy ::           -3.154051012914
                                     Coulomb Energy ::           13.637900295084
                       Total Pseudopotential Energy ::          -37.935781716540
                       Local Pseudopotential Energy ::          -39.218907440693
                    Nonlocal Pseudopotential Energy ::            1.283125724153
                                        Confinement ::            0.350941276976

 Orbital energies  State     L     Occupation   Energy[a.u.]          Energy[eV]

                       1     0          2.000      -0.864471          -23.523463

                       1     1          4.000      -0.317814           -8.648154


 Total Electron Density at R=0:                                         0.000068

 Guess for atomic kind: H

 Electronic structure
    Total number of core electrons                                          0.00
    Total number of valence electrons                                       1.00
    Total number of electrons                                               1.00
    Multiplicity                                                   not specified
    S      1.00


 *******************************************************************************
                  Iteration          Convergence                     Energy [au]
 *******************************************************************************
                          1        0.437545E-02                  -0.424159432110
                          2        0.531356E-03                  -0.424178438213
                          3        0.259176E-06                  -0.424178722480

 Energy components [Hartree]           Total Energy ::           -0.424178722480
                                        Band Energy ::           -0.199015229016
                                     Kinetic Energy ::            0.464007633961
                                   Potential Energy ::           -0.888186356441
                                      Virial (-V/T) ::            1.914163240935
                                        Core Energy ::           -0.479160803564
                                          XC Energy ::           -0.244352904054
                                     Coulomb Energy ::            0.299334985138
                       Total Pseudopotential Energy ::           -0.962295316385
                       Local Pseudopotential Energy ::           -0.962295316385
                    Nonlocal Pseudopotential Energy ::            0.000000000000
                                        Confinement ::            0.191268788606

 Orbital energies  State     L     Occupation   Energy[a.u.]          Energy[eV]

                       1     0          1.000      -0.199015           -5.415480


 Total Electron Density at R=0:                                         0.242907
 Re-scaling the density matrix to get the right number of electrons
                  # Electrons              Trace(P)               Scaling factor
                          512               512.001                        1.000
 Energy with the initial guess:     -1095.708438755

     Est. extremal eigenvalues     -0.94421     5.20428  converged:  T
     TRS4 it   1 1.00000000   0.566E+02       0.019     5313.943   0.100E-11
     TRS4 it   2 1.00000000   0.537E+02       0.019     5358.068   0.100E-11
     TRS4 it   3 1.00000000   0.336E+02       0.037     5393.039   0.100E-11
     TRS4 it   4 1.00000000   0.177E+02       0.037     5470.616   0.100E-11
     TRS4 it   5 1.00000000   0.106E+02       0.036     5520.224   0.100E-11
     TRS4 it   6 1.00000000   0.483E+01       0.036     5554.119   0.100E-11
     TRS4 it   7 1.00000000   0.143E+01       0.037     5481.729   0.100E-11
     TRS4 it   8 1.00000000   0.214E+00       0.037     5482.964   0.100E-11
     TRS4 it   9 1.00000000   0.892E-02       0.037     5482.908   0.100E-11
     TRS4 it  10 1.00000000   0.232E-04       0.037     5482.099   0.100E-11
     TRS4 it  11 1.00000000   0.516E-10       0.036     5515.808   0.100E-11
     Final TRS4 iteration   11 1.00000000   0.516E-10
     Chemical potential (mu):      -0.10706

 SCF     1     -1097.888435178     -1097.888435178    2.059592

*********************************************************
 Using MIXING_FRACTION=0.450 to mix KS matrix:  iscf=  2
 KS_nw=0.450*KS + 0.550*KS_old
*********************************************************
     Est. extremal eigenvalues     -0.83099     5.28909  converged:  F
     TRS4 it   1 1.00000000   0.558E+02       0.019     5343.453   0.100E-11
     TRS4 it   2 1.00000000   0.539E+02       0.019     5295.092   0.100E-11
     TRS4 it   3 1.00000000   0.348E+02       0.036     5575.394   0.100E-11
     TRS4 it   4 1.00000000   0.183E+02       0.036     5631.037   0.100E-11
     TRS4 it   5 1.00000000   0.118E+02       0.036     5560.054   0.100E-11
     TRS4 it   6 1.00000000   0.617E+01       0.036     5546.100   0.100E-11
     TRS4 it   7 1.00000000   0.245E+01       0.036     5521.088   0.100E-11
     TRS4 it   8 1.00000000   0.668E+00       0.036     5526.446   0.100E-11
     TRS4 it   9 1.00000000   0.973E-01       0.036     5591.400   0.100E-11
     TRS4 it  10 1.00000000   0.473E-02       0.036     5606.460   0.100E-11
     TRS4 it  11 1.00000000   0.626E-05       0.035     5675.319   0.100E-11
     TRS4 it  12 1.00000000   0.155E-10       0.036     5610.961   0.100E-11
     Final TRS4 iteration   12 1.00000000   0.155E-10
     Chemical potential (mu):      -0.01825

 SCF     2     -1102.965507329        -5.077072151    2.089667

*********************************************************
 Using MIXING_FRACTION=0.450 to mix KS matrix:  iscf=  3
 KS_nw=0.450*KS + 0.550*KS_old
*********************************************************
     Est. extremal eigenvalues     -0.84016     5.27997  converged:  F
     TRS4 it   1 1.00000000   0.559E+02       0.019     5420.480   0.100E-11
     TRS4 it   2 1.00000000   0.538E+02       0.019     5348.589   0.100E-11
     TRS4 it   3 1.00000000   0.347E+02       0.037     5480.085   0.100E-11
     TRS4 it   4 1.00000000   0.182E+02       0.035     5744.732   0.100E-11
     TRS4 it   5 1.00000000   0.116E+02       0.036     5627.885   0.100E-11
     TRS4 it   6 1.00000000   0.595E+01       0.036     5581.603   0.100E-11
     TRS4 it   7 1.00000000   0.228E+01       0.036     5541.194   0.100E-11
     TRS4 it   8 1.00000000   0.579E+00       0.036     5562.058   0.100E-11
     TRS4 it   9 1.00000000   0.736E-01       0.036     5583.130   0.100E-11
     TRS4 it  10 1.00000000   0.252E-02       0.036     5575.565   0.100E-11
     TRS4 it  11 1.00000000   0.146E-05       0.036     5592.985   0.100E-11
     TRS4 it  12 1.00000000   0.544E-12       0.035     5732.324   0.100E-11
     Final TRS4 iteration   12 1.00000000   0.544E-12
     Chemical potential (mu):      -0.02774

 SCF     3     -1103.125362353        -0.159855024    2.087451

*********************************************************
 Using MIXING_FRACTION=0.450 to mix KS matrix:  iscf=  4
 KS_nw=0.450*KS + 0.550*KS_old
*********************************************************
     Est. extremal eigenvalues     -0.83551     5.28435  converged:  F
     TRS4 it   1 1.00000000   0.559E+02       0.019     5340.924   0.100E-11
     TRS4 it   2 1.00000000   0.539E+02       0.018     5466.638   0.100E-11
     TRS4 it   3 1.00000000   0.347E+02       0.036     5559.233   0.100E-11
     TRS4 it   4 1.00000000   0.183E+02       0.036     5517.067   0.100E-11
     TRS4 it   5 1.00000000   0.117E+02       0.035     5756.304   0.100E-11
     TRS4 it   6 1.00000000   0.604E+01       0.035     5656.397   0.100E-11
     TRS4 it   7 1.00000000   0.234E+01       0.036     5579.519   0.100E-11
     TRS4 it   8 1.00000000   0.614E+00       0.035     5668.881   0.100E-11
     TRS4 it   9 1.00000000   0.834E-01       0.036     5644.260   0.100E-11
     TRS4 it  10 1.00000000   0.340E-02       0.036     5634.306   0.100E-11
     TRS4 it  11 1.00000000   0.330E-05       0.036     5617.512   0.100E-11
     TRS4 it  12 1.00000000   0.372E-11       0.036     5644.914   0.100E-11
     Final TRS4 iteration   12 1.00000000   0.372E-11
     Chemical potential (mu):      -0.02138

 SCF     4     -1103.133303806        -0.007941452    2.089501

*********************************************************
 Using MIXING_FRACTION=0.450 to mix KS matrix:  iscf=  5
 KS_nw=0.450*KS + 0.550*KS_old
*********************************************************
     Est. extremal eigenvalues     -0.83428     5.28505  converged:  F
     TRS4 it   1 1.00000000   0.559E+02       0.018     5449.104   0.100E-11
     TRS4 it   2 1.00000000   0.538E+02       0.019     5416.309   0.100E-11
     TRS4 it   3 1.00000000   0.347E+02       0.036     5497.878   0.100E-11
     TRS4 it   4 1.00000000   0.183E+02       0.036     5620.905   0.100E-11
     TRS4 it   5 1.00000000   0.117E+02       0.036     5568.073   0.100E-11
     TRS4 it   6 1.00000000   0.603E+01       0.036     5536.975   0.100E-11
     TRS4 it   7 1.00000000   0.234E+01       0.036     5540.859   0.100E-11
     TRS4 it   8 1.00000000   0.613E+00       0.036     5634.757   0.100E-11
     TRS4 it   9 1.00000000   0.833E-01       0.035     5673.751   0.100E-11
     TRS4 it  10 1.00000000   0.339E-02       0.036     5592.632   0.100E-11
     TRS4 it  11 1.00000000   0.334E-05       0.036     5606.427   0.100E-11
     TRS4 it  12 1.00000000   0.383E-11       0.036     5650.465   0.100E-11
     Final TRS4 iteration   12 1.00000000   0.383E-11
     Chemical potential (mu):      -0.02058

 SCF     5     -1103.133922282        -0.000618476    2.088912

*********************************************************
 Using MIXING_FRACTION=0.450 to mix KS matrix:  iscf=  6
 KS_nw=0.450*KS + 0.550*KS_old
*********************************************************
     Est. extremal eigenvalues     -0.83358     5.28564  converged:  F
     TRS4 it   1 1.00000000   0.559E+02       0.018     5424.985   0.100E-11
     TRS4 it   2 1.00000000   0.538E+02       0.019     5402.068   0.100E-11
     TRS4 it   3 1.00000000   0.347E+02       0.036     5609.736   0.100E-11
     TRS4 it   4 1.00000000   0.183E+02       0.036     5626.654   0.100E-11
     TRS4 it   5 1.00000000   0.117E+02       0.036     5649.135   0.100E-11
     TRS4 it   6 1.00000000   0.604E+01       0.035     5659.023   0.100E-11
     TRS4 it   7 1.00000000   0.235E+01       0.035     5687.010   0.100E-11
     TRS4 it   8 1.00000000   0.617E+00       0.036     5630.321   0.100E-11
     TRS4 it   9 1.00000000   0.845E-01       0.036     5572.214   0.100E-11
     TRS4 it  10 1.00000000   0.352E-02       0.035     5664.288   0.100E-11
     TRS4 it  11 1.00000000   0.373E-05       0.036     5621.985   0.100E-11
     TRS4 it  12 1.00000000   0.503E-11       0.035     5661.770   0.100E-11
     Final TRS4 iteration   12 1.00000000   0.503E-11
     Chemical potential (mu):      -0.01958

 SCF     6     -1103.134014379        -0.000092097    2.085238

*********************************************************
 Using MIXING_FRACTION=0.450 to mix KS matrix:  iscf=  7
 KS_nw=0.450*KS + 0.550*KS_old
*********************************************************
     Est. extremal eigenvalues     -0.83314     5.28594  converged:  F
     TRS4 it   1 1.00000000   0.559E+02       0.019     5418.348   0.100E-11
     TRS4 it   2 1.00000000   0.538E+02       0.018     5528.453   0.100E-11
     TRS4 it   3 1.00000000   0.347E+02       0.036     5636.172   0.100E-11
     TRS4 it   4 1.00000000   0.183E+02       0.035     5683.098   0.100E-11
     TRS4 it   5 1.00000000   0.117E+02       0.036     5620.749   0.100E-11
     TRS4 it   6 1.00000000   0.604E+01       0.036     5636.954   0.100E-11
     TRS4 it   7 1.00000000   0.235E+01       0.035     5741.257   0.100E-11
     TRS4 it   8 1.00000000   0.618E+00       0.035     5700.567   0.100E-11
     TRS4 it   9 1.00000000   0.848E-01       0.035     5713.371   0.100E-11
     TRS4 it  10 1.00000000   0.355E-02       0.036     5613.232   0.100E-11
     TRS4 it  11 1.00000000   0.382E-05       0.036     5596.862   0.100E-11
     TRS4 it  12 1.00000000   0.536E-11       0.036     5572.476   0.100E-11
     Final TRS4 iteration   12 1.00000000   0.536E-11
     Chemical potential (mu):      -0.01921

 SCF     7     -1103.134034133        -0.000019754    2.091906

*********************************************************
 Using MIXING_FRACTION=0.450 to mix KS matrix:  iscf=  8
 KS_nw=0.450*KS + 0.550*KS_old
*********************************************************
     Est. extremal eigenvalues     -0.83295     5.28608  converged:  F
     TRS4 it   1 1.00000000   0.559E+02       0.019     5271.547   0.100E-11
     TRS4 it   2 1.00000000   0.538E+02       0.019     5350.144   0.100E-11
     TRS4 it   3 1.00000000   0.347E+02       0.035     5703.784   0.100E-11
     TRS4 it   4 1.00000000   0.183E+02       0.035     5709.403   0.100E-11
     TRS4 it   5 1.00000000   0.117E+02       0.036     5627.809   0.100E-11
     TRS4 it   6 1.00000000   0.604E+01       0.035     5694.810   0.100E-11
     TRS4 it   7 1.00000000   0.235E+01       0.035     5675.704   0.100E-11
     TRS4 it   8 1.00000000   0.618E+00       0.036     5612.774   0.100E-11
     TRS4 it   9 1.00000000   0.850E-01       0.035     5712.699   0.100E-11
     TRS4 it  10 1.00000000   0.357E-02       0.035     5715.560   0.100E-11
     TRS4 it  11 1.00000000   0.390E-05       0.035     5651.989   0.100E-11
     TRS4 it  12 1.00000000   0.562E-11       0.035     5672.529   0.100E-11
     Final TRS4 iteration   12 1.00000000   0.562E-11
     Chemical potential (mu):      -0.01897

 SCF     8     -1103.134038957        -0.000004824    2.084886


 SCF run converged in     8 steps.

 Writing restart DM 64H2O_ref_LS_DM_SPIN_1_RESTART.dm with checksum:       0.61208304E+04

 ENERGY| Total FORCE_EVAL ( QS ) energy [a.u.]:            -1103.134038956984568

 -------------------------------------------------------------------------------
 -                                                                             -
 -                                DBCSR STATISTICS                             -
 -                                                                             -
 -------------------------------------------------------------------------------
 COUNTER                                    TOTAL       BLAS       SMM       ACC
 flops     5 x     5 x     5          79364920500       0.0%    100.0%      0.0%     
 flops    13 x     5 x     5         102776113700       0.0%    100.0%      0.0%     
 flops     5 x    13 x     5         102781621800       0.0%    100.0%      0.0%     
 flops     5 x     5 x    13         103296568700       0.0%    100.0%      0.0%     
 flops    13 x     5 x    13         133776967610       0.0%    100.0%      0.0%     
 flops     5 x    13 x    13         133810914640       0.0%    100.0%      0.0%     
 flops    13 x    13 x     5         134946839690       0.0%    100.0%      0.0%     
 flops    13 x    13 x    13         175693813178       0.0%    100.0%      0.0%     
 flops inhomo. stacks                           0       0.0%      0.0%      0.0%
 flops total                       966.447760E+09       0.0%    100.0%      0.0%
 flops max/rank                     31.030688E+09       0.0%    100.0%      0.0%
 matmuls inhomo. stacks                         0       0.0%      0.0%      0.0%
 matmuls total                         1070791313       0.0%    100.0%      0.0%
 number of processed stacks               1515689       0.0%    100.0%      0.0%
 average stack size                                     0.0     706.5       0.0
 marketing flops                     1.569237E+12
 -------------------------------------------------------------------------------
 # multiplications                            246
 max memory usage/rank             622.202880E+06
 # max total images/rank                        2
 # max 3D layers                                1
 # MPI messages exchanged                  102336
 MPI messages size (bytes):
  total size                        42.357039E+09
  min size                           0.000000E+00
  max size                         541.696000E+03
  average size                     413.901656E+03
 MPI breakdown and total messages size (bytes):
             size <=      128                 312                        0
       128 < size <=     8192                  42                   279312
      8192 < size <=    32768                  62                   841968
     32768 < size <=   131072                   0                        0
    131072 < size <=  4194304              101920              42355918400
   4194304 < size <= 16777216                   0                        0
  16777216 < size                               0                        0
 -------------------------------------------------------------------------------

 *** WARNING in dbcsr_mm.F:301 :: Using a non-square number of MPI ranks ***
 *** might lead to poor performance. Used ranks: 32 Suggested: 36 64     ***

 -------------------------------------------------------------------------------
 -                                                                             -
 -                      DBCSR MESSAGE PASSING PERFORMANCE                      -
 -                                                                             -
 -------------------------------------------------------------------------------
 ROUTINE             CALLS      AVE VOLUME [Bytes]
 MP_Bcast                9                     12.
 MP_Allreduce         1762                     34.
 MP_Alltoall           546                  34827.
 MP_ISend             8604                 170794.
 MP_IRecv             8238                 178994.
 -------------------------------------------------------------------------------

 -------------------------------------------------------------------------------
 -                                                                             -
 -                                DBM STATISTICS                               -
 -                                                                             -
 -------------------------------------------------------------------------------
    M  x    N  x    K                                          COUNT     PERCENT
 -------------------------------------------------------------------------------

 -------------------------------------------------------------------------------
 -                                                                             -
 -                                GRID STATISTICS                              -
 -                                                                             -
 -------------------------------------------------------------------------------
 LP    KERNEL             BACKEND                              COUNT     PERCENT
 2     collocate ortho    CPU                                7374582      28.82%
 2     integrate ortho    CPU                                7374582      28.82%
 3     collocate ortho    CPU                                4741794      18.53%
 3     integrate ortho    CPU                                4741794      18.53%
 4     collocate ortho    CPU                                 673488       2.63%
 4     integrate ortho    CPU                                 673488       2.63%
 0     collocate general  CPU                                   6144       0.02%
 -------------------------------------------------------------------------------

 MEMORY| Estimated peak process memory [MiB]                                 594

 -------------------------------------------------------------------------------
 -                                                                             -
 -                         MESSAGE PASSING PERFORMANCE                         -
 -                                                                             -
 -------------------------------------------------------------------------------

 ROUTINE             CALLS      AVE VOLUME [Bytes]
 MP_Group                5
 MP_Bcast             2845                 137296.
 MP_Allreduce         7539                    939.
 MP_Sync                 5
 MP_Alltoall           244                3811465.
 MP_SendRecv           837                  18832.
 MP_ISendRecv          837                  18832.
 MP_Wait              2391
 MP_ISend             1406                 108579.
 MP_IRecv             1406                 108603.
 -------------------------------------------------------------------------------


 -------------------------------------------------------------------------------
 -                                                                             -
 -                           R E F E R E N C E S                               -
 -                                                                             -
 -------------------------------------------------------------------------------
 
 CP2K version 2024.3 (Development Version), the CP2K developers group (2024).
 CP2K is freely available from https://www.cp2k.org/ .
 
 T. D. Kuehne, M. Iannuzzi, M. Del Ben, V. V. Rybkin, P. Seewald, F. Stein, T. 
 Laino, R. Z. Khaliullin, O. Schuett, F. Schiffmann, D. Golze, J. Wilhelm, S. 
 Chulkov, M. H. Bani-Hashemian, V. Weber, U. Borstnik, M. Taillefumier, A. S. 
 Jakobovits, A. Lazzaro, H. Pabst, T. Mueller, R. Schade, M. Guidon, S. 
 Andermatt, N. Holmberg, G. K. Schenter, A. Hehn, A. Bussy, F. Belleflamme, G. 
 Tabacchi, A. Gloess, M. Lass, I. Bethune, C. J. Mundy, C. Plessl, M. Watkins, 
 J. VandeVondele, M. Krack, J. Hutter.
 J. Chem. Phys. 152, 194103 (2020).
 CP2K: An electronic structure and molecular dynamics software package - 
 Quickstep: Efficient and accurate electronic structure calculations.
 https://doi.org/10.1063/5.0007045

 O. Schuett, P. Messmer, J. Hutter, J. VandeVondele.
 Electronic Structure Calculations on Graphics Processing Units, 173-190 (2016).
 GPU-Accelerated Sparse Matrix-Matrix Multiplication for Linear Scaling Density 
 Functional Theory.
 https://doi.org/10.1002/9781118670712.ch8

 A. Heinecke, G. Henry, M. Hutchinson, H. Pabst.
 Proceedings of Intl. Supercomputing Conference, 981-991 (2016).
 LIBXSMM: Accelerating Small Matrix Multiplications by Runtime Code Generation.
 https://doi.org/10.1109/SC.2016.83

 J. Hutter, M. Iannuzzi, F. Schiffmann, J. VandeVondele.
 WIREs Comput Mol Sci. 4, 15-25 (2014).
 CP2K: atomistic simulations of condensed matter systems.
 https://doi.org/10.1002/wcms.1159

 U. Borstnik, J. VandeVondele, V. Weber, J. Hutter.
 Parallel Comput. 40, 47-58 (2014).
 Sparse matrix multiplication: The distributed block-compressed sparse row 
 library.
 https://doi.org/10.1016/j.parco.2014.03.012

 A. Marek, V. Blum, R. Johanni, V. Havu, B. Lang, T. Auckenthaler, A. Heinecke, 
 H. Bungartz, H. Lederer.
 J. Phys. Condens. Matter 26, 213201 (2014).
 The ELPA library: scalable parallel eigenvalue solutions for electronic 
 structure theory and computational science.
 https://doi.org/10.1088/0953-8984/26/21/213201

 J. VandeVondele, U. Borstnik, J. Hutter.
 J. Chem. Theory Comput. 8, 3565-3573 (2012).
 Linear Scaling Self-Consistent Field Calculations with Millions of Atoms in the 
 Condensed Phase.
 https://doi.org/10.1021/ct200897x

 J. VandeVondele, J. Hutter.
 J. Chem. Phys. 127, 114105 (2007).
 Gaussian basis sets for accurate calculations on molecular systems in gas and 
 condensed phases.
 https://doi.org/10.1063/1.2770708

 J. VandeVondele, M. Krack, F. Mohamed, M. Parrinello, T. Chassaing, J. Hutter.
 Comput. Phys. Commun. 167, 103-128 (2005).
 QUICKSTEP: Fast and accurate density functional calculations using a mixed 
 Gaussian and plane waves approach.
 https://doi.org/10.1016/j.cpc.2004.12.014

 M. Krack.
 Theor. Chem. Acc. 114, 145-152 (2005).
 Pseudopotentials for H to Kr optimized for gradient-corrected 
 exchange-correlation functionals.
 https://doi.org/10.1007/s00214-005-0655-y

 M. Frigo, S. G. Johnson.
 Proc. IEEE 93, 216-231 (2005).
 The design and implementation of FFTW3.
 https://doi.org/10.1109/JPROC.2004.840301

 A. M. N. Niklasson, C. J. Tymczak, M. Challacombe.
 J. Chem. Phys. 118, 8611-8620 (2003).
 Trace resetting density matrix purification in O(N) self-consistent-field 
 theory.
 https://doi.org/10.1063/1.1559913

 C. Hartwigsen, S. Goedecker, J. Hutter.
 Phys. Rev. B 58, 3641-3662 (1998).
 Relativistic separable dual-space Gaussian pseudopotentials from H to Rn.
 https://doi.org/10.1103/PhysRevB.58.3641

 G. Lippert, J. Hutter, M. Parrinello.
 Mol. Phys. 92, 477-487 (1997).
 A hybrid Gaussian and plane wave density functional scheme.
 https://doi.org/10.1080/002689797170220

 S. Goedecker, M. Teter, J. Hutter.
 Phys. Rev. B 54, 1703-1710 (1996).
 Separable dual-space Gaussian pseudopotentials.
 https://doi.org/10.1103/PhysRevB.54.1703

 J. P. Perdew, K. Burke, M. Ernzerhof.
 Phys. Rev. Lett. 77, 3865-3868 (1996).
 Generalized gradient approximation made simple.
 https://doi.org/10.1103/PhysRevLett.77.3865


 -------------------------------------------------------------------------------
 -                                                                             -
 -                                T I M I N G                                  -
 -                                                                             -
 -------------------------------------------------------------------------------
 SUBROUTINE                       CALLS  ASD         SELF TIME        TOTAL TIME
                                MAXIMUM       AVERAGE  MAXIMUM  AVERAGE  MAXIMUM
 CP2K                                 1  1.0    0.013    0.017   20.479   20.480
 qs_energies                          1  2.0    0.000    0.000   20.318   20.319
 ls_scf                               1  3.0    0.000    0.000   19.218   19.218
 ls_scf_main                          1  4.0    0.000    0.000   16.677   16.677
 ls_scf_dm_to_ks                      8  5.0    0.000    0.000   12.357   12.360
 qs_ks_update_qs_env                  9  6.1    0.000    0.000    7.792    7.794
 rebuild_ks_matrix                    9  7.1    0.000    0.000    7.786    7.787
 qs_ks_build_kohn_sham_matrix         9  8.1    0.002    0.002    7.786    7.787
 qs_rho_update_rho_low                9  6.1    0.000    0.000    6.113    6.116
 calculate_rho_elec                   9  7.1    0.003    0.003    6.113    6.116
 sum_up_and_integrate                 9  9.1    0.000    0.000    5.885    5.887
 integrate_v_rspace                   9 10.1    0.000    0.000    5.877    5.879
 grid_collocate_task_list             9  8.1    5.427    5.514    5.427    5.514
 grid_integrate_task_list             9 11.1    5.196    5.265    5.196    5.265
 dbcsr_multiply_generic             246  6.2    0.012    0.013    4.619    4.629
 density_matrix_trs4                  8  5.0    0.004    0.006    4.316    4.324
 multiply_cannon                    246  7.2    0.018    0.023    3.749    3.842
 multiply_cannon_loop               246  8.2    0.019    0.021    3.674    3.725
 ls_scf_init_scf                      1  4.0    0.000    0.000    2.478    2.478
 multiply_cannon_multrec           1968  9.2    2.100    2.164    2.106    2.170
 mp_waitall_1                     16729 10.5    1.710    1.807    1.710    1.807
 fft_wrap_pw1pw2                    172 11.3    0.003    0.003    1.760    1.786
 fft_wrap_pw1pw2_200                100 12.8    0.103    0.109    1.688    1.723
 qs_vxc_create                        9  9.1    0.000    0.000    1.553    1.583
 xc_vxc_pw_create                     9 10.1    0.013    0.019    1.552    1.582
 ls_scf_initial_guess                 1  5.0    0.000    0.000    1.553    1.554
 ls_scf_qs_atomic_guess               1  6.0    0.000    0.000    1.553    1.554
 multiply_cannon_metrocomm3        1968  9.2    0.005    0.006    1.328    1.434
 fft3d_ps                           172 13.3    0.715    0.791    1.322    1.391
 xc_pw_derive                        54 12.1    0.001    0.001    1.101    1.178
 qs_energies_init_hamiltonians        1  3.0    0.000    0.000    1.100    1.100
 ls_scf_init_matrix_S                 1  5.0    0.000    0.000    0.925    0.925
 build_core_hamiltonian_matrix        1  4.0    0.000    0.000    0.734    0.912
 matrix_sqrt_Newton_Schulz            1  6.0    0.001    0.001    0.901    0.902
 xc_rho_set_and_dset_create           9 11.1    0.020    0.026    0.783    0.804
 xc_pw_divergence                     9 11.1    0.000    0.000    0.737    0.778
 density_rs2pw                        9  8.1    0.000    0.000    0.653    0.757
 mp_waitany                        1406 12.5    0.532    0.711    0.532    0.711
 make_m2s                           492  7.2    0.005    0.007    0.685    0.699
 make_images                        492  8.2    0.039    0.040    0.675    0.690
 build_core_ppl                       1  5.0    0.505    0.663    0.505    0.663
 transfer_rs2pw                      46  9.0    0.001    0.001    0.469    0.644
 mp_alltoall_z22v                   172 15.3    0.432    0.633    0.432    0.633
 potential_pw2rs                      9 11.1    0.001    0.001    0.597    0.599
 transfer_rs2pw_200                  10  9.8    0.038    0.051    0.365    0.538
 arnoldi_extremal                     9  6.1    0.000    0.000    0.510    0.512
 arnoldi_normal_ev                    9  7.1    0.000    0.001    0.510    0.511
 build_subspace                      45  8.1    0.003    0.004    0.451    0.451
 qs_env_update_s_mstruct              1  4.0    0.000    0.000    0.346    0.436
 yz_to_x                             64 14.2    0.058    0.070    0.281    0.410
 -------------------------------------------------------------------------------

 The number of warnings for this run is : 1
 
 -------------------------------------------------------------------------------
  **** **** ******  **  PROGRAM ENDED AT                 2024-09-23 17:53:02.668
 ***** ** ***  *** **   PROGRAM RAN ON                                    moritz
 **    ****   ******    PROGRAM RAN BY                                       ole
 ***** **    ** ** **   PROGRAM PROCESS ID                                161094
  **** **  *******  **  PROGRAM STOPPED IN /home/ole/git/pao_ml_equivar/64H2O_MD
                                           /Frame6500
