 DBCSR| CPU Multiplication driver                                           BLAS
 DBCSR| Multrec recursion limit                                              512
 DBCSR| Multiplication stack size                                           1000
 DBCSR| Maximum elements for images                                    UNLIMITED
 DBCSR| Multiplicative factor virtual images                                   1
 DBCSR| Use multiplication densification                                       T
 DBCSR| Multiplication size stacks                                             3


  **** **** ******  **  PROGRAM STARTED AT               2019-03-28 17:34:02.275
 ***** ** ***  *** **   PROGRAM STARTED ON        oleschuett.zrh.corp.google.com
 **    ****   ******    PROGRAM STARTED BY                            oleschuett
 ***** **    ** ** **   PROGRAM PROCESS ID                                 35727
  **** **  *******  **  PROGRAM STARTED IN /usr/local/google/home/oleschuett/git
                                           /pao_ml_equivar/2H2O_rotations/rand_0
                                           9

 CP2K| version string:                    CP2K version 7.0 (Development Version)
 CP2K| source code revision number:                                git:d9814d431
 CP2K| cp2kflags: libint fftw3 libxc libderiv_max_am1=5 libint_max_am=6         
 CP2K| is freely available from                            https://www.cp2k.org/
 CP2K| Program compiled at                          Mon Mar 25 16:50:07 CET 2019
 CP2K| Program compiled on                        oleschuett.zrh.corp.google.com
 CP2K| Program compiled for                                                local
 CP2K| Data directory path       /usr/local/google/home/oleschuett/git/cp2k/data
 CP2K| Input file name                                            2H2O_pao44.inp

 GLOBAL| Force Environment number                                              1
 GLOBAL| Basis set file name                                        BASIS_MOLOPT
 GLOBAL| Potential file name                                      GTH_POTENTIALS
 GLOBAL| MM Potential file name                                     MM_POTENTIAL
 GLOBAL| Coordinate file name                                         coords.xyz
 GLOBAL| Method name                                                        CP2K
 GLOBAL| Project name                                                 2H2O_pao44
 GLOBAL| Preferred FFT library                                             FFTW3
 GLOBAL| Preferred diagonalization lib.                                       SL
 GLOBAL| Run type                                                         ENERGY
 GLOBAL| All-to-all communication in single precision                          F
 GLOBAL| FFTs using library dependent lengths                                  F
 GLOBAL| Global print level                                                  LOW
 GLOBAL| MPI I/O enabled                                                       T
 GLOBAL| Total number of message passing processes                             1
 GLOBAL| Number of threads for this process                                    1
 GLOBAL| This output is from process                                           0
 GLOBAL| CPU model name :  Intel(R) Xeon(R) CPU E5-1650 v4 @ 3.60GHz

 MEMORY| system memory details [Kb]
 MEMORY|                        rank 0           min           max       average
 MEMORY| MemTotal             65953612      65953612      65953612      65953612
 MEMORY| MemFree               4277028       4277028       4277028       4277028
 MEMORY| Buffers               2543220       2543220       2543220       2543220
 MEMORY| Cached               25353232      25353232      25353232      25353232
 MEMORY| Slab                  3622908       3622908       3622908       3622908
 MEMORY| SReclaimable          2422220       2422220       2422220       2422220
 MEMORY| MemLikelyFree        34595700      34595700      34595700      34595700


 GENERATE|  Preliminary Number of Bonds generated:                             0
 GENERATE|  Achieved consistency in connectivity generation.

 *******************************************************************************
 *******************************************************************************
 **                                                                           **
 **     #####                         ##              ##                      **
 **    ##   ##            ##          ##              ##                      **
 **   ##     ##                       ##            ######                    **
 **   ##     ##  ##   ##  ##   #####  ##  ##   ####   ##    #####    #####    **
 **   ##     ##  ##   ##  ##  ##      ## ##   ##      ##   ##   ##  ##   ##   **
 **   ##  ## ##  ##   ##  ##  ##      ####     ###    ##   ######   ######    **
 **    ##  ###   ##   ##  ##  ##      ## ##      ##   ##   ##       ##        **
 **     #######   #####   ##   #####  ##  ##  ####    ##    #####   ##        **
 **           ##                                                    ##        **
 **                                                                           **
 **                                                ... make the atoms dance   **
 **                                                                           **
 **            Copyright (C) by CP2K developers group (2000 - 2018)           **
 **                                                                           **
 *******************************************************************************


 TOTAL NUMBERS AND MAXIMUM NUMBERS

  Total number of            - Atomic kinds:                                   2
                             - Atoms:                                          6
                             - Shell sets:                                     6
                             - Shells:                                        22
                             - Primitive Cartesian functions:                 42
                             - Cartesian basis functions:                     48
                             - Spherical basis functions:                     46

  Maximum angular momentum of- Orbital basis functions:                        2
                             - Local part of the GTH pseudopotential:          2
                             - Non-local part of the GTH pseudopotential:      0

 ------------------------------ Linear scaling SCF -----------------------------
 eps_scf:                                                              0.100E-07
 eps_filter:                                                           0.100E-07
 mixing_fraction:                                                      0.450E+00
 max_scf:                                                                     25
 fixed chemical potential (mu)                                                 F
 has unit metric:                                                              F
 Computing inv(S):                                                             T
 Computing sqrt(S):                                                            T
 Computing s preconditioner                                                    F
 sign sqrt order:                                                              3
 Extrapolation order:                                                          1
 Use single precision matrices                                                 F
 S preconditioner type                                                      NONE
 Polarized Atomic Orbitals (PAO)                                               T
 Purification method                                   Trace resetting 4th order
 Cluster type                                                             ATOMIC
 Computing Chebyshev                                                       FALSE
 Using PAO                                                                     T
 -------------------------------------------------------------------------------

 
 PAO|                                  EPS_PAO                           0.1E-04
 PAO|                                  MIXING                            0.5E+00
 PAO|                                  MAX_PAO                              1000
 PAO|                                  MAX_CYCLES                           1000
 PAO|                                  PARAMETERIZATION                   DIRECT
 PAO|                                  PRECONDITION                            F
 PAO|                                  REGULARIZATION                    0.0E+00
 PAO|                                  EPS_PGF                           0.1E-09
 PAO|                                  PENALTY_DISTANCE                  0.1E+00
 PAO|                                  PENALTY_STRENGTH                  0.5E-02
 PAO|                                  LINPOT_PRECONDITION_DELTA         0.0E+00
 PAO|                                  LINPOT_INITGUESS_DELT             0.0E+00
 PAO|                                  LINPOT_REGULARIZATION_DELTA       0.0E+00
 PAO|                                  LINPOT_REGULARIZATION_STRENGTH    0.0E+00
 PAO|                                  OPTIMIZER                              CG
 PAO|                                  CG_INIT_STEPS                           2
 PAO|                                  CG_RESET_LIMIT                    0.1E+00
 PAO|                                  CHECK_UNITARY_TOL                -0.1E+01
 PAO|                                  CHECK_GRADIENT_TOL               -0.1E+01
 PAO|                                  NUM_GRADIENT_ORDER                      2
 PAO|                                  NUM_GRADIENT_EPS                  0.1E-07
 PAO|                                  PRINT%RESTART%WRITE_CYCLES            100
 PAO|                                  RESTART_FILE 
 PAO|                                  PREOPT_DM_FILE 2H2O_ref_LS_DM_SPIN_1_RESTART.dm
 PAO|                                  MACHINE_LEARNING%METHOD        GAUSSIAN_P
 PAO|                                  MACHINE_LEARNING%PRIOR               ZERO
 PAO|                                  MACHINE_LEARNING%DESCRIPTOR     POTENTIAL
 PAO|                                  MACHINE_LEARNING%TOLERANCE        0.1E-01
 PAO|                                  MACHINE_LEARNING%GP_NOISE_VAR     0.1E+00
 PAO|                                  MACHINE_LEARNING%GP_SCALE         0.5E-01
 

 Calculating atomic Fock matrix for atomic kind: O

 Electronic structure
    Total number of core electrons                                          2.00
    Total number of valence electrons                                       6.00
    Total number of electrons                                               8.00
    Multiplicity                                                   not specified
    S   [  2.00] 2.00
    P      4.00


 *******************************************************************************
                  Iteration          Convergence                     Energy [au]
 *******************************************************************************
                          1        0.708315                     -15.576645311500
                          2        0.608879                     -15.587933561584
                          3        0.102828E-01                 -15.656849565404
                          4        0.113889E-02                 -15.656866888140
                          5        0.434197E-03                 -15.656867072159
                          6        0.263771E-03                 -15.656867091904
                          7        0.478536E-06                 -15.656867103452

 Energy components [Hartree]           Total Energy ::          -15.656867103452
                                        Band Energy ::           -3.000198112285
                                     Kinetic Energy ::           11.759971203220
                                   Potential Energy ::          -27.416838306672
                                      Virial (-V/T) ::            2.331369510426
                                        Core Energy ::          -26.140716385623
                                          XC Energy ::           -3.154051012914
                                     Coulomb Energy ::           13.637900295084
                       Total Pseudopotential Energy ::          -37.935781716540
                       Local Pseudopotential Energy ::          -39.218907440693
                    Nonlocal Pseudopotential Energy ::            1.283125724153
                                        Confinement ::            0.350941276976

 Orbital energies  State     L     Occupation   Energy[a.u.]          Energy[eV]

                       1     0          2.000      -0.864471          -23.523463

                       1     1          4.000      -0.317814           -8.648154


 Total Electron Density at R=0:                                         0.000068

 Calculating atomic Fock matrix for atomic kind: H

 Electronic structure
    Total number of core electrons                                          0.00
    Total number of valence electrons                                       1.00
    Total number of electrons                                               1.00
    Multiplicity                                                   not specified
    S      1.00


 *******************************************************************************
                  Iteration          Convergence                     Energy [au]
 *******************************************************************************
                          1        0.437545E-02                  -0.424159432110
                          2        0.531356E-03                  -0.424178438213
                          3        0.259176E-06                  -0.424178722480

 Energy components [Hartree]           Total Energy ::           -0.424178722480
                                        Band Energy ::           -0.199015229016
                                     Kinetic Energy ::            0.464007633961
                                   Potential Energy ::           -0.888186356441
                                      Virial (-V/T) ::            1.914163240935
                                        Core Energy ::           -0.479160803564
                                          XC Energy ::           -0.244352904054
                                     Coulomb Energy ::            0.299334985138
                       Total Pseudopotential Energy ::           -0.962295316385
                       Local Pseudopotential Energy ::           -0.962295316385
                    Nonlocal Pseudopotential Energy ::            0.000000000000
                                        Confinement ::            0.191268788606

 Orbital energies  State     L     Occupation   Energy[a.u.]          Energy[eV]

                       1     0          1.000      -0.199015           -5.415480


 Total Electron Density at R=0:                                         0.242907
 PAO| Made initial guess for matrix_X with norm:   4.8989794855663558     

     Lanczos converged:  T threshold:   0.100E-02
     Est. extremal eigenvalues:    0.335E+01   0.112E+00
     Est. condition number :    0.300E+02
     NS sqrt iter    1 1.00000000   0.819E+00       0.002       36.390
     NS sqrt iter    2 1.00000000   0.440E+00       0.002       62.810
     NS sqrt iter    3 1.00000000   0.171E+00       0.002       61.092
     NS sqrt iter    4 1.00000000   0.211E-01       0.002       61.414
     NS sqrt iter    5 1.00000000   0.594E-04       0.002       45.754
     Final NS sqrt iter    5 1.00000000   0.323E-08

 PAO| Read restart DM 2H2O_ref_LS_DM_SPIN_1_RESTART.dm with checksum:    62.370365297580385     
 PAO| Quickstep energy from restart density:  -34.450070940408523     
 PAO| ======================= Iteration:         1 =============================

     Lanczos converged:  T threshold:   0.100E-02
     Est. extremal eigenvalues:    0.335E+01   0.112E+00
     Est. condition number :    0.300E+02
     NS sqrt iter    1 1.00000000   0.819E+00       0.002       42.746
     NS sqrt iter    2 1.00000000   0.440E+00       0.002       67.037
     NS sqrt iter    3 1.00000000   0.171E+00       0.002       67.733
     NS sqrt iter    4 1.00000000   0.211E-01       0.002       67.745
     NS sqrt iter    5 1.00000000   0.594E-04       0.002       58.947
     Final NS sqrt iter    5 1.00000000   0.323E-08

     Est. extremal eigenvalues     -0.92196     1.95664  converged:  T
     TRS4 it   1 1.00000000   0.899E+00       0.001       16.128   0.100E-07
     TRS4 it   2 1.00000000   0.710E+00       0.001       32.256   0.100E-07
     TRS4 it   3 1.00000000   0.507E+00       0.001       32.256   0.100E-07
     TRS4 it   4 1.00000000   0.320E+00       0.001       32.256   0.100E-07
     TRS4 it   5 1.00000000   0.160E+00       0.001       32.256   0.100E-07
     TRS4 it   6 1.00000000   0.519E-01       0.001       32.256   0.100E-07
     TRS4 it   7 1.00000000   0.769E-02       0.001       32.256   0.100E-07
     TRS4 it   8 1.00000000   0.239E-03       0.001       32.256   0.100E-07
     TRS4 it   9 1.00000000   0.255E-06       0.001       32.256   0.100E-07
     TRS4 it  10 1.00000000   0.292E-12       0.001       32.256   0.100E-07
     Final TRS4 iteration   10 1.00000000   0.292E-12
     Chemical potential (mu):      -0.06786
 
 PAO| energy:  -7.6444437363820992      penalty:   3.0198581527991858E-033
 PAO|CG| warming up with steepest descent
 PAO|CG| beta:    0.0000000000000000     
 PAO| norm of gradient:  0.78332369578457395     
 PAO|LS| adapt:  T F F
 PAO|LS| adapt: scan_steps:    0.0000000000000000        0.0000000000000000        0.0000000000000000     
 PAO|LS| adapt: energies:   -7.6444437363820992        0.0000000000000000        0.0000000000000000     
 PAO| ======================= Iteration:         2 =============================

     Lanczos converged:  T threshold:   0.100E-02
     Est. extremal eigenvalues:    0.327E+01   0.124E+00
     Est. condition number :    0.264E+02
     NS sqrt iter    1 1.00000000   0.802E+00       0.002       42.889
     NS sqrt iter    2 1.00000000   0.424E+00       0.002       66.966
     NS sqrt iter    3 1.00000000   0.153E+00       0.002       67.970
     NS sqrt iter    4 1.00000000   0.147E-01       0.002       68.281
     NS sqrt iter    5 1.00000000   0.202E-04       0.002       54.596
     Final NS sqrt iter    5 1.00000000   0.640E-09

     Est. extremal eigenvalues     -0.92563     1.89922  converged:  T
     TRS4 it   1 1.00000000   0.896E+00       0.001       16.128   0.100E-07
     TRS4 it   2 1.00000000   0.691E+00       0.001       32.256   0.100E-07
     TRS4 it   3 1.00000000   0.493E+00       0.001       32.256   0.100E-07
     TRS4 it   4 1.00000000   0.301E+00       0.001       32.256   0.100E-07
     TRS4 it   5 1.00000000   0.142E+00       0.001       32.256   0.100E-07
     TRS4 it   6 1.00000000   0.407E-01       0.001       32.256   0.100E-07
     TRS4 it   7 1.00000000   0.479E-02       0.001       32.256   0.100E-07
     TRS4 it   8 1.00000000   0.935E-04       0.001       32.256   0.100E-07
     TRS4 it   9 1.00000000   0.389E-07       0.001       32.256   0.100E-07
     Final TRS4 iteration    9 1.00000000   0.389E-07
     Chemical potential (mu):      -0.05595
 
 PAO| energy:  -7.6999106104718074      penalty:   2.2496321590492050E-008
 PAO|LS| adapt:  T T F
 PAO|LS| adapt: scan_steps:    0.0000000000000000       0.10000000000000001        0.0000000000000000     
 PAO|LS| adapt: energies:   -7.6444437363820992       -7.6999106104718074        0.0000000000000000     
 PAO| ======================= Iteration:         3 =============================

     Lanczos converged:  T threshold:   0.100E-02
     Est. extremal eigenvalues:    0.317E+01   0.134E+00
     Est. condition number :    0.236E+02
     NS sqrt iter    1 1.00000000   0.785E+00       0.002       42.460
     NS sqrt iter    2 1.00000000   0.408E+00       0.002       67.495
     NS sqrt iter    3 1.00000000   0.137E+00       0.002       67.465
     NS sqrt iter    4 1.00000000   0.102E-01       0.002       67.959
     NS sqrt iter    5 1.00000000   0.715E-05       0.002       54.240
     Final NS sqrt iter    5 1.00000000   0.800E-10

     Est. extremal eigenvalues     -0.92907     1.85101  converged:  T
     TRS4 it   1 1.00000000   0.894E+00       0.001       16.128   0.100E-07
     TRS4 it   2 1.00000000   0.674E+00       0.001       32.256   0.100E-07
     TRS4 it   3 1.00000000   0.478E+00       0.001       32.256   0.100E-07
     TRS4 it   4 1.00000000   0.282E+00       0.001       32.256   0.100E-07
     TRS4 it   5 1.00000000   0.124E+00       0.001       32.256   0.100E-07
     TRS4 it   6 1.00000000   0.310E-01       0.001       32.256   0.100E-07
     TRS4 it   7 1.00000000   0.277E-02       0.001       32.256   0.100E-07
     TRS4 it   8 1.00000000   0.312E-04       0.001       32.256   0.100E-07
     TRS4 it   9 1.00000000   0.434E-08       0.001       32.256   0.100E-07
     Final TRS4 iteration    9 1.00000000   0.434E-08
     Chemical potential (mu):      -0.04308
 
 PAO| energy:  -7.7429380649471762      penalty:   3.5994145629437070E-007
 PAO|LS| adapt:  T T F
 PAO|LS| adapt: scan_steps:    0.0000000000000000       0.20000000000000001        0.0000000000000000     
 PAO|LS| adapt: energies:   -7.6444437363820992       -7.7429380649471762        0.0000000000000000     
 PAO| ======================= Iteration:         4 =============================

     Lanczos converged:  T threshold:   0.100E-02
     Est. extremal eigenvalues:    0.298E+01   0.153E+00
     Est. condition number :    0.195E+02
     NS sqrt iter    1 1.00000000   0.748E+00       0.002       42.680
     NS sqrt iter    2 1.00000000   0.374E+00       0.002       67.664
     NS sqrt iter    3 1.00000000   0.107E+00       0.002       68.098
     NS sqrt iter    4 1.00000000   0.507E-02       0.002       67.435
     NS sqrt iter    5 1.00000000   0.104E-05       0.002       54.650
     Final NS sqrt iter    5 1.00000000   0.178E-11

     Est. extremal eigenvalues     -0.93440     1.77654  converged:  T
     TRS4 it   1 1.00000000   0.889E+00       0.001       16.128   0.100E-07
     TRS4 it   2 1.00000000   0.645E+00       0.001       32.256   0.100E-07
     TRS4 it   3 1.00000000   0.450E+00       0.001       32.256   0.100E-07
     TRS4 it   4 1.00000000   0.246E+00       0.001       32.256   0.100E-07
     TRS4 it   5 1.00000000   0.922E-01       0.001       32.256   0.100E-07
     TRS4 it   6 1.00000000   0.166E-01       0.001       32.256   0.100E-07
     TRS4 it   7 1.00000000   0.753E-03       0.001       32.256   0.100E-07
     TRS4 it   8 1.00000000   0.224E-05       0.001       32.256   0.100E-07
     TRS4 it   9 1.00000000   0.225E-10       0.001       32.256   0.100E-07
     Final TRS4 iteration    9 1.00000000   0.225E-10
     Chemical potential (mu):      -0.01455
 
 PAO| energy:  -7.7900784485400525      penalty:   5.7590657874852916E-006
 PAO|LS| Need extra step
 PAO|LS| adapt:  T T F
 PAO|LS| adapt: scan_steps:    0.0000000000000000       0.40000000000000002        0.0000000000000000     
 PAO|LS| adapt: energies:   -7.6444437363820992       -7.7900784485400525        0.0000000000000000     
 PAO| ======================= Iteration:         5 =============================

     Lanczos converged:  T threshold:   0.100E-02
     Est. extremal eigenvalues:    0.263E+01   0.182E+00
     Est. condition number :    0.144E+02
     NS sqrt iter    1 1.00000000   0.686E+00       0.002       42.798
     NS sqrt iter    2 1.00000000   0.312E+00       0.002       66.791
     NS sqrt iter    3 1.00000000   0.665E-01       0.002       67.297
     NS sqrt iter    4 1.00000000   0.140E-02       0.002       67.221
     NS sqrt iter    5 1.00000000   0.258E-07       0.001       41.625
     Final NS sqrt iter    5 1.00000000   0.272E-08

     Est. extremal eigenvalues     -0.93563     1.68418  converged:  T
     TRS4 it   1 1.00000000   0.879E+00       0.001       16.128   0.100E-07
     TRS4 it   2 1.00000000   0.603E+00       0.001       32.256   0.100E-07
     TRS4 it   3 1.00000000   0.400E+00       0.001       32.256   0.100E-07
     TRS4 it   4 1.00000000   0.188E+00       0.001       32.256   0.100E-07
     TRS4 it   5 1.00000000   0.501E-01       0.001       32.256   0.100E-07
     TRS4 it   6 1.00000000   0.438E-02       0.001       32.256   0.100E-07
     TRS4 it   7 1.00000000   0.429E-04       0.001       32.256   0.100E-07
     TRS4 it   8 1.00000000   0.520E-08       0.001       32.256   0.100E-07
     Final TRS4 iteration    8 1.00000000   0.520E-08
     Chemical potential (mu):       0.03665
 
 PAO| energy:  -7.7351011513680161      penalty:   9.2145072493974805E-005
 PAO|LS| Need extra step
 PAO|LS| adapt:  T T T
 PAO|LS| adapt: scan_steps:    0.0000000000000000       0.40000000000000002       0.80000000000000004     
 PAO|LS| adapt: energies:   -7.6444437363820992       -7.7900784485400525       -7.7351011513680161     
 PAO|LS| adapt: suggested step_size:   0.49038084538278393     
 PAO|LS| adapt: predicted energy  -7.7951995071692055     
 PAO| ======================= Iteration:         6 =============================

     Lanczos converged:  T threshold:   0.100E-02
     Est. extremal eigenvalues:    0.289E+01   0.160E+00
     Est. condition number :    0.181E+02
     NS sqrt iter    1 1.00000000   0.732E+00       0.002       42.844
     NS sqrt iter    2 1.00000000   0.359E+00       0.002       66.870
     NS sqrt iter    3 1.00000000   0.958E-01       0.002       67.676
     NS sqrt iter    4 1.00000000   0.374E-02       0.002       67.701
     NS sqrt iter    5 1.00000000   0.449E-06       0.002       54.755
     Final NS sqrt iter    5 1.00000000   0.340E-12

     Est. extremal eigenvalues     -0.93588     1.75029  converged:  T
     TRS4 it   1 1.00000000   0.886E+00       0.001       16.128   0.100E-07
     TRS4 it   2 1.00000000   0.634E+00       0.001       32.256   0.100E-07
     TRS4 it   3 1.00000000   0.437E+00       0.001       32.256   0.100E-07
     TRS4 it   4 1.00000000   0.231E+00       0.001       32.256   0.100E-07
     TRS4 it   5 1.00000000   0.801E-01       0.001       32.256   0.100E-07
     TRS4 it   6 1.00000000   0.122E-01       0.001       32.256   0.100E-07
     TRS4 it   7 1.00000000   0.389E-03       0.001       32.256   0.100E-07
     TRS4 it   8 1.00000000   0.574E-06       0.001       32.256   0.100E-07
     TRS4 it   9 1.00000000   0.146E-11       0.001       32.256   0.100E-07
     Final TRS4 iteration    9 1.00000000   0.146E-11
     Chemical potential (mu):      -0.00067
 
 PAO| energy:  -7.7944722745572959      penalty:   1.3009065515681884E-005
 PAO|CG| warming up with steepest descent
 PAO|CG| beta:    0.0000000000000000     
 PAO| norm of gradient:  0.41642139962865393     
 PAO| energy improvement: -0.15002853817519668     
 PAO| step      6                   -7.794472275  0.260E-01  0.490E+00     0.124
 PAO|LS| adapt:  T F F
 PAO|LS| adapt: scan_steps:    0.0000000000000000        0.0000000000000000        0.0000000000000000     
 PAO|LS| adapt: energies:   -7.7944722745572959        0.0000000000000000        0.0000000000000000     
 PAO| ======================= Iteration:         7 =============================

     Lanczos converged:  T threshold:   0.100E-02
     Est. extremal eigenvalues:    0.281E+01   0.173E+00
     Est. condition number :    0.162E+02
     NS sqrt iter    1 1.00000000   0.715E+00       0.002       42.698
     NS sqrt iter    2 1.00000000   0.338E+00       0.002       66.654
     NS sqrt iter    3 1.00000000   0.804E-01       0.002       67.432
     NS sqrt iter    4 1.00000000   0.232E-02       0.002       67.707
     NS sqrt iter    5 1.00000000   0.121E-06       0.002       51.670
     Final NS sqrt iter    5 1.00000000   0.893E-09

     Est. extremal eigenvalues     -0.93762     1.73864  converged:  T
     TRS4 it   1 1.00000000   0.886E+00       0.001       16.128   0.100E-07
     TRS4 it   2 1.00000000   0.633E+00       0.001       32.256   0.100E-07
     TRS4 it   3 1.00000000   0.438E+00       0.001       32.256   0.100E-07
     TRS4 it   4 1.00000000   0.233E+00       0.001       32.256   0.100E-07
     TRS4 it   5 1.00000000   0.812E-01       0.001       32.256   0.100E-07
     TRS4 it   6 1.00000000   0.122E-01       0.001       32.256   0.100E-07
     TRS4 it   7 1.00000000   0.373E-03       0.001       32.256   0.100E-07
     TRS4 it   8 1.00000000   0.506E-06       0.001       32.256   0.100E-07
     TRS4 it   9 1.00000000   0.113E-11       0.001       32.256   0.100E-07
     Final TRS4 iteration    9 1.00000000   0.113E-11
     Chemical potential (mu):       0.00076
 
 PAO| energy:  -7.7888732521128379      penalty:   1.9652411455031346E-005
 PAO|LS| adapt:  T F T
 PAO|LS| adapt: scan_steps:    0.0000000000000000        0.0000000000000000       0.49038084538278393     
 PAO|LS| adapt: energies:   -7.7944722745572959        0.0000000000000000       -7.7888732521128379     
 PAO| ======================= Iteration:         8 =============================

     Lanczos converged:  T threshold:   0.100E-02
     Est. extremal eigenvalues:    0.285E+01   0.166E+00
     Est. condition number :    0.171E+02
     NS sqrt iter    1 1.00000000   0.723E+00       0.002       42.899
     NS sqrt iter    2 1.00000000   0.348E+00       0.002       67.083
     NS sqrt iter    3 1.00000000   0.880E-01       0.002       66.979
     NS sqrt iter    4 1.00000000   0.296E-02       0.002       67.747
     NS sqrt iter    5 1.00000000   0.237E-06       0.002       53.629
     Final NS sqrt iter    5 1.00000000   0.147E-09

     Est. extremal eigenvalues     -0.93769     1.74391  converged:  T
     TRS4 it   1 1.00000000   0.886E+00       0.001       16.128   0.100E-07
     TRS4 it   2 1.00000000   0.633E+00       0.001       32.256   0.100E-07
     TRS4 it   3 1.00000000   0.437E+00       0.001       32.256   0.100E-07
     TRS4 it   4 1.00000000   0.231E+00       0.001       32.256   0.100E-07
     TRS4 it   5 1.00000000   0.804E-01       0.001       32.256   0.100E-07
     TRS4 it   6 1.00000000   0.123E-01       0.001       32.256   0.100E-07
     TRS4 it   7 1.00000000   0.392E-03       0.001       32.256   0.100E-07
     TRS4 it   8 1.00000000   0.575E-06       0.001       32.256   0.100E-07
     TRS4 it   9 1.00000000   0.146E-11       0.001       32.256   0.100E-07
     Final TRS4 iteration    9 1.00000000   0.146E-11
     Chemical potential (mu):      -0.00049
 
 PAO| energy:  -7.8140976368928419      penalty:   1.4098935307415889E-005
 PAO|LS| adapt:  T T T
 PAO|LS| adapt: scan_steps:    0.0000000000000000       0.24519042269139196       0.49038084538278393     
 PAO|LS| adapt: energies:   -7.7944722745572959       -7.8140976368928419       -7.7888732521128379     
 PAO|LS| adapt: suggested step_size:   0.22988569113651477     
 PAO|LS| adapt: predicted energy  -7.8141850093262155     
 PAO| ======================= Iteration:         9 =============================

     Lanczos converged:  T threshold:   0.100E-02
     Est. extremal eigenvalues:    0.285E+01   0.166E+00
     Est. condition number :    0.172E+02
     NS sqrt iter    1 1.00000000   0.724E+00       0.002       42.314
     NS sqrt iter    2 1.00000000   0.349E+00       0.002       66.693
     NS sqrt iter    3 1.00000000   0.884E-01       0.002       67.050
     NS sqrt iter    4 1.00000000   0.301E-02       0.002       67.820
     NS sqrt iter    5 1.00000000   0.247E-06       0.002       54.735
     Final NS sqrt iter    5 1.00000000   0.147E-09

     Est. extremal eigenvalues     -0.93764     1.74428  converged:  T
     TRS4 it   1 1.00000000   0.886E+00       0.001       16.128   0.100E-07
     TRS4 it   2 1.00000000   0.633E+00       0.001       29.296   0.100E-07
     TRS4 it   3 1.00000000   0.437E+00       0.001       32.256   0.100E-07
     TRS4 it   4 1.00000000   0.231E+00       0.001       32.256   0.100E-07
     TRS4 it   5 1.00000000   0.804E-01       0.001       32.256   0.100E-07
     TRS4 it   6 1.00000000   0.123E-01       0.001       32.256   0.100E-07
     TRS4 it   7 1.00000000   0.392E-03       0.001       32.256   0.100E-07
     TRS4 it   8 1.00000000   0.577E-06       0.001       32.256   0.100E-07
     TRS4 it   9 1.00000000   0.147E-11       0.001       32.256   0.100E-07
     Final TRS4 iteration    9 1.00000000   0.147E-11
     Chemical potential (mu):      -0.00054
 
 PAO| energy:  -7.8142075127420476      penalty:   1.3936497656896115E-005
 PAO|CG| trace_G_new    3.6762833013205272E-002
 PAO|CG| trace_G_prev   0.17340678206868712     
 PAO|CG| trace_G_mix   -1.4258562201056569E-003
 PAO|CG| trace_D   0.17340678206868712     
 PAO|CG| trace_D_Gnew   1.4258562201056569E-003
 PAO|CG| beta:   0.22022604178298077     
 PAO| norm of gradient:  0.19173636330442193     
 PAO| energy improvement:  -1.9735238184751758E-002
 PAO| step      9                   -7.814207513  0.120E-01  0.230E+00     0.079
 PAO|LS| adapt:  T F F
 PAO|LS| adapt: scan_steps:    0.0000000000000000        0.0000000000000000        0.0000000000000000     
 PAO|LS| adapt: energies:   -7.8142075127420476        0.0000000000000000        0.0000000000000000     
 PAO| ======================= Iteration:        10 =============================

     Lanczos converged:  T threshold:   0.100E-02
     Est. extremal eigenvalues:    0.282E+01   0.172E+00
     Est. condition number :    0.164E+02
     NS sqrt iter    1 1.00000000   0.716E+00       0.002       42.690
     NS sqrt iter    2 1.00000000   0.341E+00       0.002       66.832
     NS sqrt iter    3 1.00000000   0.828E-01       0.002       66.935
     NS sqrt iter    4 1.00000000   0.247E-02       0.002       67.782
     NS sqrt iter    5 1.00000000   0.137E-06       0.001       52.623
     Final NS sqrt iter    5 1.00000000   0.101E-08

     Est. extremal eigenvalues     -0.93853     1.73516  converged:  T
     TRS4 it   1 1.00000000   0.883E+00       0.001       16.128   0.100E-07
     TRS4 it   2 1.00000000   0.630E+00       0.001       32.256   0.100E-07
     TRS4 it   3 1.00000000   0.434E+00       0.001       32.256   0.100E-07
     TRS4 it   4 1.00000000   0.228E+00       0.001       32.256   0.100E-07
     TRS4 it   5 1.00000000   0.779E-01       0.001       32.256   0.100E-07
     TRS4 it   6 1.00000000   0.114E-01       0.001       32.256   0.100E-07
     TRS4 it   7 1.00000000   0.336E-03       0.001       32.256   0.100E-07
     TRS4 it   8 1.00000000   0.415E-06       0.001       32.256   0.100E-07
     TRS4 it   9 1.00000000   0.755E-12       0.001       32.256   0.100E-07
     Final TRS4 iteration    9 1.00000000   0.755E-12
     Chemical potential (mu):       0.00266
 
 PAO| energy:  -7.8192222007146812      penalty:   1.4474410957108642E-005
 PAO|LS| adapt:  T T F
 PAO|LS| adapt: scan_steps:    0.0000000000000000       0.22988569113651477        0.0000000000000000     
 PAO|LS| adapt: energies:   -7.8142075127420476       -7.8192222007146812        0.0000000000000000     
 PAO| ======================= Iteration:        11 =============================

     Lanczos converged:  T threshold:   0.100E-02
     Est. extremal eigenvalues:    0.278E+01   0.178E+00
     Est. condition number :    0.156E+02
     NS sqrt iter    1 1.00000000   0.709E+00       0.002       41.049
     NS sqrt iter    2 1.00000000   0.333E+00       0.002       66.904
     NS sqrt iter    3 1.00000000   0.774E-01       0.002       67.309
     NS sqrt iter    4 1.00000000   0.203E-02       0.002       67.086
     NS sqrt iter    5 1.00000000   0.742E-07       0.002       51.211
     Final NS sqrt iter    5 1.00000000   0.639E-09

     Est. extremal eigenvalues     -0.93844     1.72710  converged:  T
     TRS4 it   1 1.00000000   0.880E+00       0.001       16.128   0.100E-07
     TRS4 it   2 1.00000000   0.628E+00       0.001       32.256   0.100E-07
     TRS4 it   3 1.00000000   0.431E+00       0.001       32.256   0.100E-07
     TRS4 it   4 1.00000000   0.225E+00       0.001       32.256   0.100E-07
     TRS4 it   5 1.00000000   0.754E-01       0.001       32.256   0.100E-07
     TRS4 it   6 1.00000000   0.107E-01       0.001       32.256   0.100E-07
     TRS4 it   7 1.00000000   0.287E-03       0.001       32.256   0.100E-07
     TRS4 it   8 1.00000000   0.293E-06       0.001       32.256   0.100E-07
     TRS4 it   9 1.00000000   0.374E-12       0.001       32.256   0.100E-07
     Final TRS4 iteration    9 1.00000000   0.374E-12
     Chemical potential (mu):       0.00599
 
 PAO| energy:  -7.8177537413862739      penalty:   1.5681125355572193E-005
 PAO|LS| adapt:  T T T
 PAO|LS| adapt: scan_steps:    0.0000000000000000       0.22988569113651477       0.45977138227302955     
 PAO|LS| adapt: energies:   -7.8142075127420476       -7.8192222007146812       -7.8177537413862739     
 PAO|LS| adapt: suggested step_size:   0.29275848925072456     
 PAO|LS| adapt: predicted energy  -7.8194646704792339     
 PAO| ======================= Iteration:        12 =============================

     Lanczos converged:  T threshold:   0.100E-02
     Est. extremal eigenvalues:    0.281E+01   0.173E+00
     Est. condition number :    0.162E+02
     NS sqrt iter    1 1.00000000   0.714E+00       0.002       42.684
     NS sqrt iter    2 1.00000000   0.339E+00       0.002       66.625
     NS sqrt iter    3 1.00000000   0.813E-01       0.002       67.901
     NS sqrt iter    4 1.00000000   0.234E-02       0.002       67.220
     NS sqrt iter    5 1.00000000   0.116E-06       0.002       51.617
     Final NS sqrt iter    5 1.00000000   0.100E-08

     Est. extremal eigenvalues     -0.93860     1.73285  converged:  T
     TRS4 it   1 1.00000000   0.882E+00       0.001       16.128   0.100E-07
     TRS4 it   2 1.00000000   0.629E+00       0.001       32.256   0.100E-07
     TRS4 it   3 1.00000000   0.433E+00       0.001       32.256   0.100E-07
     TRS4 it   4 1.00000000   0.227E+00       0.001       32.256   0.100E-07
     TRS4 it   5 1.00000000   0.772E-01       0.001       32.256   0.100E-07
     TRS4 it   6 1.00000000   0.112E-01       0.001       32.256   0.100E-07
     TRS4 it   7 1.00000000   0.322E-03       0.001       32.256   0.100E-07
     TRS4 it   8 1.00000000   0.378E-06       0.001       32.256   0.100E-07
     TRS4 it   9 1.00000000   0.625E-12       0.001       32.256   0.100E-07
     Final TRS4 iteration    9 1.00000000   0.625E-12
     Chemical potential (mu):       0.00355
 
 PAO| energy:  -7.8194487157032730      penalty:   1.4730471695744987E-005
 PAO|CG| trace_G_new    1.1778994673534712E-002
 PAO|CG| trace_G_prev    3.6762833013205272E-002
 PAO|CG| trace_G_mix   -4.6627294256468060E-004
 PAO|CG| trace_D    4.4544955540926662E-002
 PAO|CG| trace_D_Gnew   2.1392043853060792E-004
 PAO|CG| beta:   0.33308824735299569     
 PAO| norm of gradient:  0.10853107699426331     
 PAO| energy improvement:  -5.2412029612254329E-003
 PAO| step     12                   -7.819448716  0.678E-02  0.293E+00     0.078
 PAO|LS| adapt:  T F F
 PAO|LS| adapt: scan_steps:    0.0000000000000000        0.0000000000000000        0.0000000000000000     
 PAO|LS| adapt: energies:   -7.8194487157032730        0.0000000000000000        0.0000000000000000     
 PAO| ======================= Iteration:        13 =============================

     Lanczos converged:  T threshold:   0.100E-02
     Est. extremal eigenvalues:    0.277E+01   0.178E+00
     Est. condition number :    0.156E+02
     NS sqrt iter    1 1.00000000   0.707E+00       0.002       42.673
     NS sqrt iter    2 1.00000000   0.332E+00       0.002       67.276
     NS sqrt iter    3 1.00000000   0.770E-01       0.002       67.931
     NS sqrt iter    4 1.00000000   0.200E-02       0.002       66.687
     NS sqrt iter    5 1.00000000   0.730E-07       0.001       51.667
     Final NS sqrt iter    5 1.00000000   0.640E-09

     Est. extremal eigenvalues     -0.93909     1.72475  converged:  T
     TRS4 it   1 1.00000000   0.881E+00       0.001       16.128   0.100E-07
     TRS4 it   2 1.00000000   0.626E+00       0.001       32.256   0.100E-07
     TRS4 it   3 1.00000000   0.429E+00       0.001       32.256   0.100E-07
     TRS4 it   4 1.00000000   0.222E+00       0.001       32.256   0.100E-07
     TRS4 it   5 1.00000000   0.735E-01       0.001       32.256   0.100E-07
     TRS4 it   6 1.00000000   0.101E-01       0.001       32.256   0.100E-07
     TRS4 it   7 1.00000000   0.257E-03       0.001       32.256   0.100E-07
     TRS4 it   8 1.00000000   0.235E-06       0.001       32.256   0.100E-07
     TRS4 it   9 1.00000000   0.240E-12       0.001       32.256   0.100E-07
     Final TRS4 iteration    9 1.00000000   0.240E-12
     Chemical potential (mu):       0.00811
 
 PAO| energy:  -7.8215051369839923      penalty:   1.5031912083245717E-005
 PAO|LS| adapt:  T T F
 PAO|LS| adapt: scan_steps:    0.0000000000000000       0.29275848925072456        0.0000000000000000     
 PAO|LS| adapt: energies:   -7.8194487157032730       -7.8215051369839923        0.0000000000000000     
 PAO| ======================= Iteration:        14 =============================

     Lanczos converged:  T threshold:   0.100E-02
     Est. extremal eigenvalues:    0.274E+01   0.182E+00
     Est. condition number :    0.151E+02
     NS sqrt iter    1 1.00000000   0.700E+00       0.002       42.861
     NS sqrt iter    2 1.00000000   0.325E+00       0.002       66.853
     NS sqrt iter    3 1.00000000   0.729E-01       0.002       67.842
     NS sqrt iter    4 1.00000000   0.171E-02       0.002       68.060
     NS sqrt iter    5 1.00000000   0.460E-07       0.001       48.712
     Final NS sqrt iter    5 1.00000000   0.706E-09

     Est. extremal eigenvalues     -0.93907     1.71697  converged:  T
     TRS4 it   1 1.00000000   0.880E+00       0.001       16.128   0.100E-07
     TRS4 it   2 1.00000000   0.623E+00       0.001       32.256   0.100E-07
     TRS4 it   3 1.00000000   0.425E+00       0.001       32.256   0.100E-07
     TRS4 it   4 1.00000000   0.217E+00       0.001       32.256   0.100E-07
     TRS4 it   5 1.00000000   0.699E-01       0.001       32.256   0.100E-07
     TRS4 it   6 1.00000000   0.911E-02       0.001       32.256   0.100E-07
     TRS4 it   7 1.00000000   0.206E-03       0.001       32.256   0.100E-07
     TRS4 it   8 1.00000000   0.146E-06       0.001       32.256   0.100E-07
     TRS4 it   9 1.00000000   0.905E-13       0.001       32.256   0.100E-07
     Final TRS4 iteration    9 1.00000000   0.905E-13
     Chemical potential (mu):       0.01260
 
 PAO| energy:  -7.8208687259522325      penalty:   1.5806981994682178E-005
 PAO|LS| adapt:  T T T
 PAO|LS| adapt: scan_steps:    0.0000000000000000       0.29275848925072456       0.58551697850144913     
 PAO|LS| adapt: energies:   -7.8194487157032730       -7.8215051369839923       -7.8208687259522325     
 PAO|LS| adapt: suggested step_size:   0.36994860117848682     
 PAO|LS| adapt: predicted energy  -7.8215987386677011     
 PAO| ======================= Iteration:        15 =============================

     Lanczos converged:  T threshold:   0.100E-02
     Est. extremal eigenvalues:    0.276E+01   0.179E+00
     Est. condition number :    0.155E+02
     NS sqrt iter    1 1.00000000   0.705E+00       0.002       41.741
     NS sqrt iter    2 1.00000000   0.330E+00       0.002       66.883
     NS sqrt iter    3 1.00000000   0.759E-01       0.002       66.388
     NS sqrt iter    4 1.00000000   0.192E-02       0.002       67.121
     NS sqrt iter    5 1.00000000   0.647E-07       0.002       49.231
     Final NS sqrt iter    5 1.00000000   0.445E-09

     Est. extremal eigenvalues     -0.93913     1.72267  converged:  T
     TRS4 it   1 1.00000000   0.880E+00       0.001       16.128   0.100E-07
     TRS4 it   2 1.00000000   0.625E+00       0.001       32.256   0.100E-07
     TRS4 it   3 1.00000000   0.428E+00       0.001       32.256   0.100E-07
     TRS4 it   4 1.00000000   0.221E+00       0.001       32.256   0.100E-07
     TRS4 it   5 1.00000000   0.725E-01       0.001       32.256   0.100E-07
     TRS4 it   6 1.00000000   0.984E-02       0.001       32.256   0.100E-07
     TRS4 it   7 1.00000000   0.243E-03       0.001       32.256   0.100E-07
     TRS4 it   8 1.00000000   0.208E-06       0.001       32.256   0.100E-07
     TRS4 it   9 1.00000000   0.186E-12       0.001       32.256   0.100E-07
     Final TRS4 iteration    9 1.00000000   0.186E-12
     Chemical potential (mu):       0.00930
 
 PAO| energy:  -7.8215956759849776      penalty:   1.5187258453276588E-005
 PAO|CG| trace_G_new    2.6078794189532948E-003
 PAO|CG| trace_G_prev    1.1778994673534712E-002
 PAO|CG| trace_G_mix    6.5886752860270300E-005
 PAO|CG| trace_D    1.6578649856485248E-002
 PAO|CG| trace_D_Gnew   3.3766243544576516E-005
 PAO|CG| beta:   0.21580726849333126     
 PAO| norm of gradient:   5.1067400746007179E-002
 PAO| energy improvement:  -2.1469602817045796E-003
 PAO| step     15                   -7.821595676  0.319E-02  0.370E+00     0.078
 PAO|LS| adapt:  T F F
 PAO|LS| adapt: scan_steps:    0.0000000000000000        0.0000000000000000        0.0000000000000000     
 PAO|LS| adapt: energies:   -7.8215956759849776        0.0000000000000000        0.0000000000000000     
 PAO| ======================= Iteration:        16 =============================

     Lanczos converged:  T threshold:   0.100E-02
     Est. extremal eigenvalues:    0.276E+01   0.179E+00
     Est. condition number :    0.154E+02
     NS sqrt iter    1 1.00000000   0.704E+00       0.002       42.824
     NS sqrt iter    2 1.00000000   0.329E+00       0.002       67.245
     NS sqrt iter    3 1.00000000   0.752E-01       0.002       67.456
     NS sqrt iter    4 1.00000000   0.187E-02       0.002       67.831
     NS sqrt iter    5 1.00000000   0.596E-07       0.002       49.227
     Final NS sqrt iter    5 1.00000000   0.873E-09

     Est. extremal eigenvalues     -0.93916     1.72200  converged:  T
     TRS4 it   1 1.00000000   0.881E+00       0.001       16.128   0.100E-07
     TRS4 it   2 1.00000000   0.624E+00       0.001       32.256   0.100E-07
     TRS4 it   3 1.00000000   0.427E+00       0.001       32.256   0.100E-07
     TRS4 it   4 1.00000000   0.219E+00       0.001       32.256   0.100E-07
     TRS4 it   5 1.00000000   0.714E-01       0.001       32.256   0.100E-07
     TRS4 it   6 1.00000000   0.954E-02       0.001       32.256   0.100E-07
     TRS4 it   7 1.00000000   0.229E-03       0.001       32.256   0.100E-07
     TRS4 it   8 1.00000000   0.187E-06       0.001       32.256   0.100E-07
     TRS4 it   9 1.00000000   0.152E-12       0.001       32.256   0.100E-07
     Final TRS4 iteration    9 1.00000000   0.152E-12
     Chemical potential (mu):       0.01011
 
 PAO| energy:  -7.8217228961207361      penalty:   1.4967635166575019E-005
 PAO|LS| adapt:  T T F
 PAO|LS| adapt: scan_steps:    0.0000000000000000       0.36994860117848682        0.0000000000000000     
 PAO|LS| adapt: energies:   -7.8215956759849776       -7.8217228961207361        0.0000000000000000     
 PAO| ======================= Iteration:        17 =============================

     Lanczos converged:  T threshold:   0.100E-02
     Est. extremal eigenvalues:    0.275E+01   0.180E+00
     Est. condition number :    0.153E+02
     NS sqrt iter    1 1.00000000   0.702E+00       0.002       42.629
     NS sqrt iter    2 1.00000000   0.327E+00       0.002       67.219
     NS sqrt iter    3 1.00000000   0.746E-01       0.002       67.732
     NS sqrt iter    4 1.00000000   0.182E-02       0.002       67.615
     NS sqrt iter    5 1.00000000   0.551E-07       0.001       49.298
     Final NS sqrt iter    5 1.00000000   0.840E-09

     Est. extremal eigenvalues     -0.93906     1.72137  converged:  T
     TRS4 it   1 1.00000000   0.881E+00       0.001       16.128   0.100E-07
     TRS4 it   2 1.00000000   0.623E+00       0.001       32.256   0.100E-07
     TRS4 it   3 1.00000000   0.426E+00       0.001       32.256   0.100E-07
     TRS4 it   4 1.00000000   0.218E+00       0.001       32.256   0.100E-07
     TRS4 it   5 1.00000000   0.703E-01       0.001       32.256   0.100E-07
     TRS4 it   6 1.00000000   0.925E-02       0.001       32.256   0.100E-07
     TRS4 it   7 1.00000000   0.217E-03       0.001       32.256   0.100E-07
     TRS4 it   8 1.00000000   0.169E-06       0.001       32.256   0.100E-07
     TRS4 it   9 1.00000000   0.124E-12       0.001       32.256   0.100E-07
     Final TRS4 iteration    9 1.00000000   0.124E-12
     Chemical potential (mu):       0.01089
 
 PAO| energy:  -7.8201750393251102      penalty:   1.4872697916736989E-005
 PAO|LS| adapt:  T T T
 PAO|LS| adapt: scan_steps:    0.0000000000000000       0.36994860117848682       0.73989720235697365     
 PAO|LS| adapt: energies:   -7.8215956759849776       -7.8217228961207361       -7.8201750393251102     
 PAO|LS| adapt: suggested step_size:   0.21307146459632834     
 PAO|LS| adapt: predicted energy  -7.8218735017796126     
 PAO| ======================= Iteration:        18 =============================

     Lanczos converged:  T threshold:   0.100E-02
     Est. extremal eigenvalues:    0.276E+01   0.179E+00
     Est. condition number :    0.154E+02
     NS sqrt iter    1 1.00000000   0.704E+00       0.002       42.580
     NS sqrt iter    2 1.00000000   0.329E+00       0.002       67.111
     NS sqrt iter    3 1.00000000   0.755E-01       0.002       67.973
     NS sqrt iter    4 1.00000000   0.189E-02       0.002       67.797
     NS sqrt iter    5 1.00000000   0.617E-07       0.001       50.631
     Final NS sqrt iter    5 1.00000000   0.432E-09

     Est. extremal eigenvalues     -0.93916     1.72228  converged:  T
     TRS4 it   1 1.00000000   0.881E+00       0.001       16.128   0.100E-07
     TRS4 it   2 1.00000000   0.625E+00       0.001       32.256   0.100E-07
     TRS4 it   3 1.00000000   0.427E+00       0.001       32.256   0.100E-07
     TRS4 it   4 1.00000000   0.220E+00       0.001       32.256   0.100E-07
     TRS4 it   5 1.00000000   0.719E-01       0.001       32.256   0.100E-07
     TRS4 it   6 1.00000000   0.967E-02       0.001       32.256   0.100E-07
     TRS4 it   7 1.00000000   0.235E-03       0.001       32.256   0.100E-07
     TRS4 it   8 1.00000000   0.196E-06       0.001       32.256   0.100E-07
     TRS4 it   9 1.00000000   0.165E-12       0.001       32.256   0.100E-07
     Final TRS4 iteration    9 1.00000000   0.165E-12
     Chemical potential (mu):       0.00977
 
 PAO| energy:  -7.8218730633288107      penalty:   1.5045815565506230E-005
 PAO|CG| trace_G_new    7.2239647123321720E-004
 PAO|CG| trace_G_prev    2.6078794189532948E-003
 PAO|CG| trace_G_mix    1.2601924535498564E-006
 PAO|CG| trace_D    3.3654191823378967E-003
 PAO|CG| trace_D_Gnew  -1.6915692102770365E-006
 PAO|CG| beta:   0.27652209436474040     
 PAO| norm of gradient:   2.6877434238282812E-002
 PAO| energy improvement:  -2.7738734383309094E-004
 PAO| step     18                   -7.821873063  0.168E-02  0.213E+00     0.078
 PAO|LS| adapt:  T F F
 PAO|LS| adapt: scan_steps:    0.0000000000000000        0.0000000000000000        0.0000000000000000     
 PAO|LS| adapt: energies:   -7.8218730633288107        0.0000000000000000        0.0000000000000000     
 PAO| ======================= Iteration:        19 =============================

     Lanczos converged:  T threshold:   0.100E-02
     Est. extremal eigenvalues:    0.276E+01   0.179E+00
     Est. condition number :    0.154E+02
     NS sqrt iter    1 1.00000000   0.704E+00       0.001       43.017
     NS sqrt iter    2 1.00000000   0.329E+00       0.002       67.152
     NS sqrt iter    3 1.00000000   0.757E-01       0.002       63.224
     NS sqrt iter    4 1.00000000   0.190E-02       0.002       60.048
     NS sqrt iter    5 1.00000000   0.625E-07       0.002       42.530
     Final NS sqrt iter    5 1.00000000   0.436E-09

     Est. extremal eigenvalues     -0.93916     1.72251  converged:  T
     TRS4 it   1 1.00000000   0.881E+00       0.001       16.128   0.100E-07
     TRS4 it   2 1.00000000   0.625E+00       0.001       32.256   0.100E-07
     TRS4 it   3 1.00000000   0.427E+00       0.001       32.256   0.100E-07
     TRS4 it   4 1.00000000   0.220E+00       0.001       32.256   0.100E-07
     TRS4 it   5 1.00000000   0.718E-01       0.001       32.256   0.100E-07
     TRS4 it   6 1.00000000   0.966E-02       0.001       32.256   0.100E-07
     TRS4 it   7 1.00000000   0.236E-03       0.001       32.256   0.100E-07
     TRS4 it   8 1.00000000   0.199E-06       0.001       32.256   0.100E-07
     TRS4 it   9 1.00000000   0.172E-12       0.001       32.256   0.100E-07
     Final TRS4 iteration    9 1.00000000   0.172E-12
     Chemical potential (mu):       0.00946
 
 PAO| energy:  -7.8219904768513402      penalty:   1.4756951277704928E-005
 PAO|LS| adapt:  T T F
 PAO|LS| adapt: scan_steps:    0.0000000000000000       0.21307146459632834        0.0000000000000000     
 PAO|LS| adapt: energies:   -7.8218730633288107       -7.8219904768513402        0.0000000000000000     
 PAO| ======================= Iteration:        20 =============================

     Lanczos converged:  T threshold:   0.100E-02
     Est. extremal eigenvalues:    0.276E+01   0.179E+00
     Est. condition number :    0.154E+02
     NS sqrt iter    1 1.00000000   0.704E+00       0.002       40.350
     NS sqrt iter    2 1.00000000   0.329E+00       0.002       64.457
     NS sqrt iter    3 1.00000000   0.759E-01       0.002       64.938
     NS sqrt iter    4 1.00000000   0.191E-02       0.002       65.396
     NS sqrt iter    5 1.00000000   0.634E-07       0.002       47.988
     Final NS sqrt iter    5 1.00000000   0.445E-09

     Est. extremal eigenvalues     -0.93916     1.72275  converged:  T
     TRS4 it   1 1.00000000   0.881E+00       0.001       16.128   0.100E-07
     TRS4 it   2 1.00000000   0.625E+00       0.001       32.256   0.100E-07
     TRS4 it   3 1.00000000   0.427E+00       0.001       32.256   0.100E-07
     TRS4 it   4 1.00000000   0.219E+00       0.001       32.256   0.100E-07
     TRS4 it   5 1.00000000   0.717E-01       0.001       32.256   0.100E-07
     TRS4 it   6 1.00000000   0.966E-02       0.001       32.256   0.100E-07
     TRS4 it   7 1.00000000   0.237E-03       0.001       32.256   0.100E-07
     TRS4 it   8 1.00000000   0.203E-06       0.001       32.256   0.100E-07
     TRS4 it   9 1.00000000   0.179E-12       0.001       32.256   0.100E-07
     Final TRS4 iteration    9 1.00000000   0.179E-12
     Chemical potential (mu):       0.00915
 
 PAO| energy:  -7.8220342890148000      penalty:   1.4480539697379616E-005
 PAO|LS| adapt:  T T F
 PAO|LS| adapt: scan_steps:    0.0000000000000000       0.42614292919265667        0.0000000000000000     
 PAO|LS| adapt: energies:   -7.8218730633288107       -7.8220342890148000        0.0000000000000000     
 PAO| ======================= Iteration:        21 =============================

     Lanczos converged:  T threshold:   0.100E-02
     Est. extremal eigenvalues:    0.276E+01   0.178E+00
     Est. condition number :    0.155E+02
     NS sqrt iter    1 1.00000000   0.704E+00       0.001       44.524
     NS sqrt iter    2 1.00000000   0.330E+00       0.002       71.113
     NS sqrt iter    3 1.00000000   0.764E-01       0.002       70.946
     NS sqrt iter    4 1.00000000   0.194E-02       0.002       71.869
     NS sqrt iter    5 1.00000000   0.654E-07       0.001       53.268
     Final NS sqrt iter    5 1.00000000   0.642E-09

     Est. extremal eigenvalues     -0.93915     1.72324  converged:  T
     TRS4 it   1 1.00000000   0.881E+00       0.001       16.128   0.100E-07
     TRS4 it   2 1.00000000   0.624E+00       0.001       28.624   0.100E-07
     TRS4 it   3 1.00000000   0.427E+00       0.001       29.773   0.100E-07
     TRS4 it   4 1.00000000   0.219E+00       0.001       29.911   0.100E-07
     TRS4 it   5 1.00000000   0.715E-01       0.001       30.940   0.100E-07
     TRS4 it   6 1.00000000   0.965E-02       0.001       31.415   0.100E-07
     TRS4 it   7 1.00000000   0.239E-03       0.001       27.512   0.100E-07
     TRS4 it   8 1.00000000   0.210E-06       0.001       26.959   0.100E-07
     TRS4 it   9 1.00000000   0.193E-12       0.001       31.291   0.100E-07
     Final TRS4 iteration    9 1.00000000   0.193E-12
     Chemical potential (mu):       0.00852
 
 PAO| energy:  -7.8218988021963316      penalty:   1.3964485855340943E-005
 PAO|LS| Need extra step
 PAO|LS| adapt:  T T T
 PAO|LS| adapt: scan_steps:    0.0000000000000000       0.42614292919265667       0.85228585838531334     
 PAO|LS| adapt: energies:   -7.8218730633288107       -7.8220342890148000       -7.8218988021963316     
 PAO|LS| adapt: suggested step_size:   0.44462620211621928     
 PAO|LS| adapt: predicted energy  -7.8220345681104275     
 PAO| ======================= Iteration:        22 =============================

     Lanczos converged:  T threshold:   0.100E-02
     Est. extremal eigenvalues:    0.276E+01   0.179E+00
     Est. condition number :    0.154E+02
     NS sqrt iter    1 1.00000000   0.704E+00       0.002       39.981
     NS sqrt iter    2 1.00000000   0.330E+00       0.002       63.420
     NS sqrt iter    3 1.00000000   0.760E-01       0.002       63.185
     NS sqrt iter    4 1.00000000   0.191E-02       0.002       63.849
     NS sqrt iter    5 1.00000000   0.635E-07       0.002       47.406
     Final NS sqrt iter    5 1.00000000   0.446E-09

     Est. extremal eigenvalues     -0.93916     1.72277  converged:  T
     TRS4 it   1 1.00000000   0.881E+00       0.001       16.128   0.100E-07
     TRS4 it   2 1.00000000   0.625E+00       0.001       32.256   0.100E-07
     TRS4 it   3 1.00000000   0.427E+00       0.001       32.256   0.100E-07
     TRS4 it   4 1.00000000   0.219E+00       0.001       32.256   0.100E-07
     TRS4 it   5 1.00000000   0.717E-01       0.001       25.171   0.100E-07
     TRS4 it   6 1.00000000   0.966E-02       0.001       32.256   0.100E-07
     TRS4 it   7 1.00000000   0.237E-03       0.001       32.256   0.100E-07
     TRS4 it   8 1.00000000   0.203E-06       0.001       32.256   0.100E-07
     TRS4 it   9 1.00000000   0.179E-12       0.001       32.256   0.100E-07
     Final TRS4 iteration    9 1.00000000   0.179E-12
     Chemical potential (mu):       0.00912
 
 PAO| energy:  -7.8220346013506461      penalty:   1.4457142970524854E-005
 PAO|CG| trace_G_new    2.2120186834788524E-004
 PAO|CG| trace_G_prev    7.2239647123321720E-004
 PAO|CG| trace_G_mix    2.8425998799155983E-006
 PAO|CG| trace_D    9.8066697339035556E-004
 PAO|CG| trace_D_Gnew  -1.7917274211549117E-006
 PAO|CG| beta:   0.30227067429496751     
 PAO| norm of gradient:   1.4872856764854735E-002
 PAO| energy improvement:  -1.6153802183538346E-004
 PAO| step     22                   -7.822034601  0.930E-03  0.445E+00     0.107
 PAO|LS| adapt:  T F F
 PAO|LS| adapt: scan_steps:    0.0000000000000000        0.0000000000000000        0.0000000000000000     
 PAO|LS| adapt: energies:   -7.8220346013506461        0.0000000000000000        0.0000000000000000     
 PAO| ======================= Iteration:        23 =============================

     Lanczos converged:  T threshold:   0.100E-02
     Est. extremal eigenvalues:    0.276E+01   0.179E+00
     Est. condition number :    0.154E+02
     NS sqrt iter    1 1.00000000   0.704E+00       0.001       44.787
     NS sqrt iter    2 1.00000000   0.330E+00       0.002       71.018
     NS sqrt iter    3 1.00000000   0.760E-01       0.002       70.709
     NS sqrt iter    4 1.00000000   0.191E-02       0.002       72.198
     NS sqrt iter    5 1.00000000   0.634E-07       0.001       53.084
     Final NS sqrt iter    5 1.00000000   0.448E-09

     Est. extremal eigenvalues     -0.93916     1.72234  converged:  T
     TRS4 it   1 1.00000000   0.880E+00       0.001       16.128   0.100E-07
     TRS4 it   2 1.00000000   0.624E+00       0.001       29.172   0.100E-07
     TRS4 it   3 1.00000000   0.427E+00       0.001       31.135   0.100E-07
     TRS4 it   4 1.00000000   0.220E+00       0.001       31.028   0.100E-07
     TRS4 it   5 1.00000000   0.718E-01       0.001       29.824   0.100E-07
     TRS4 it   6 1.00000000   0.970E-02       0.001       29.302   0.100E-07
     TRS4 it   7 1.00000000   0.240E-03       0.001       29.346   0.100E-07
     TRS4 it   8 1.00000000   0.208E-06       0.001       27.489   0.100E-07
     TRS4 it   9 1.00000000   0.190E-12       0.001       27.981   0.100E-07
     Final TRS4 iteration    9 1.00000000   0.190E-12
     Chemical potential (mu):       0.00875
 
 PAO| energy:  -7.8220841080005803      penalty:   1.3777369390761814E-005
 PAO|LS| adapt:  T T F
 PAO|LS| adapt: scan_steps:    0.0000000000000000       0.44462620211621928        0.0000000000000000     
 PAO|LS| adapt: energies:   -7.8220346013506461       -7.8220841080005803        0.0000000000000000     
 PAO| ======================= Iteration:        24 =============================

     Lanczos converged:  T threshold:   0.100E-02
     Est. extremal eigenvalues:    0.276E+01   0.179E+00
     Est. condition number :    0.154E+02
     NS sqrt iter    1 1.00000000   0.704E+00       0.002       40.515
     NS sqrt iter    2 1.00000000   0.330E+00       0.002       62.480
     NS sqrt iter    3 1.00000000   0.760E-01       0.002       64.051
     NS sqrt iter    4 1.00000000   0.191E-02       0.002       63.721
     NS sqrt iter    5 1.00000000   0.634E-07       0.002       47.360
     Final NS sqrt iter    5 1.00000000   0.450E-09

     Est. extremal eigenvalues     -0.93916     1.72190  converged:  T
     TRS4 it   1 1.00000000   0.880E+00       0.001       16.128   0.100E-07
     TRS4 it   2 1.00000000   0.624E+00       0.001       32.256   0.100E-07
     TRS4 it   3 1.00000000   0.427E+00       0.001       32.256   0.100E-07
     TRS4 it   4 1.00000000   0.220E+00       0.001       32.256   0.100E-07
     TRS4 it   5 1.00000000   0.719E-01       0.001       32.256   0.100E-07
     TRS4 it   6 1.00000000   0.974E-02       0.001       25.310   0.100E-07
     TRS4 it   7 1.00000000   0.243E-03       0.001       32.256   0.100E-07
     TRS4 it   8 1.00000000   0.214E-06       0.001       32.256   0.100E-07
     TRS4 it   9 1.00000000   0.200E-12       0.001       32.256   0.100E-07
     Final TRS4 iteration    9 1.00000000   0.200E-12
     Chemical potential (mu):       0.00839
 
 PAO| energy:  -7.8220348304087324      penalty:   1.3125959050226611E-005
 PAO|LS| adapt:  T T T
 PAO|LS| adapt: scan_steps:    0.0000000000000000       0.44462620211621928       0.88925240423243856     
 PAO|LS| adapt: energies:   -7.8220346013506461       -7.8220841080005803       -7.8220348304087324     
 PAO|LS| adapt: suggested step_size:   0.44514169540304160     
 PAO|LS| adapt: predicted energy  -7.8220841080669716     
 PAO| ======================= Iteration:        25 =============================

     Lanczos converged:  T threshold:   0.100E-02
     Est. extremal eigenvalues:    0.276E+01   0.179E+00
     Est. condition number :    0.154E+02
     NS sqrt iter    1 1.00000000   0.704E+00       0.001       44.726
     NS sqrt iter    2 1.00000000   0.330E+00       0.002       70.106
     NS sqrt iter    3 1.00000000   0.760E-01       0.002       71.930
     NS sqrt iter    4 1.00000000   0.191E-02       0.002       71.418
     NS sqrt iter    5 1.00000000   0.634E-07       0.001       53.281
     Final NS sqrt iter    5 1.00000000   0.448E-09

     Est. extremal eigenvalues     -0.93916     1.72234  converged:  T
     TRS4 it   1 1.00000000   0.880E+00       0.001       16.128   0.100E-07
     TRS4 it   2 1.00000000   0.624E+00       0.001       32.256   0.100E-07
     TRS4 it   3 1.00000000   0.427E+00       0.001       32.256   0.100E-07
     TRS4 it   4 1.00000000   0.220E+00       0.001       32.256   0.100E-07
     TRS4 it   5 1.00000000   0.718E-01       0.001       32.256   0.100E-07
     TRS4 it   6 1.00000000   0.970E-02       0.001       32.256   0.100E-07
     TRS4 it   7 1.00000000   0.240E-03       0.001       32.256   0.100E-07
     TRS4 it   8 1.00000000   0.208E-06       0.001       32.256   0.100E-07
     TRS4 it   9 1.00000000   0.189E-12       0.001       30.628   0.100E-07
     Final TRS4 iteration    9 1.00000000   0.189E-12
     Chemical potential (mu):       0.00875
 
 PAO| energy:  -7.8220841082443275      penalty:   1.3776597852349002E-005
 PAO|CG| trace_G_new    7.9532431851458521E-005
 PAO|CG| trace_G_prev    2.2120186834788524E-004
 PAO|CG| trace_G_mix    6.7895780339832414E-007
 PAO|CG| trace_D    3.1188619071895635E-004
 PAO|CG| trace_D_Gnew  -3.4427348819659783E-007
 PAO|CG| beta:   0.35647743229748380     
 PAO| norm of gradient:   8.9180957525392453E-003
 PAO| energy improvement:  -4.9506893681439124E-005
 PAO| step     25                   -7.822084108  0.557E-03  0.445E+00     0.082
 PAO|LS| adapt:  T F F
 PAO|LS| adapt: scan_steps:    0.0000000000000000        0.0000000000000000        0.0000000000000000     
 PAO|LS| adapt: energies:   -7.8220841082443275        0.0000000000000000        0.0000000000000000     
 PAO| ======================= Iteration:        26 =============================

     Lanczos converged:  T threshold:   0.100E-02
     Est. extremal eigenvalues:    0.276E+01   0.179E+00
     Est. condition number :    0.154E+02
     NS sqrt iter    1 1.00000000   0.704E+00       0.002       39.229
     NS sqrt iter    2 1.00000000   0.329E+00       0.002       62.727
     NS sqrt iter    3 1.00000000   0.759E-01       0.002       63.327
     NS sqrt iter    4 1.00000000   0.191E-02       0.002       63.173
     NS sqrt iter    5 1.00000000   0.625E-07       0.002       46.835
     Final NS sqrt iter    5 1.00000000   0.443E-09

     Est. extremal eigenvalues     -0.93916     1.72165  converged:  T
     TRS4 it   1 1.00000000   0.880E+00       0.001       16.128   0.100E-07
     TRS4 it   2 1.00000000   0.624E+00       0.001       32.256   0.100E-07
     TRS4 it   3 1.00000000   0.427E+00       0.001       32.256   0.100E-07
     TRS4 it   4 1.00000000   0.219E+00       0.001       32.256   0.100E-07
     TRS4 it   5 1.00000000   0.717E-01       0.001       32.256   0.100E-07
     TRS4 it   6 1.00000000   0.968E-02       0.001       32.256   0.100E-07
     TRS4 it   7 1.00000000   0.239E-03       0.001       32.256   0.100E-07
     TRS4 it   8 1.00000000   0.206E-06       0.001       32.256   0.100E-07
     TRS4 it   9 1.00000000   0.185E-12       0.001       32.256   0.100E-07
     Final TRS4 iteration    9 1.00000000   0.185E-12
     Chemical potential (mu):       0.00884
 
 PAO| energy:  -7.8220878150951032      penalty:   1.3051185842446545E-005
 PAO|LS| adapt:  T T F
 PAO|LS| adapt: scan_steps:    0.0000000000000000       0.44514169540304160        0.0000000000000000     
 PAO|LS| adapt: energies:   -7.8220841082443275       -7.8220878150951032        0.0000000000000000     
 PAO| ======================= Iteration:        27 =============================

     Lanczos converged:  T threshold:   0.100E-02
     Est. extremal eigenvalues:    0.276E+01   0.179E+00
     Est. condition number :    0.154E+02
     NS sqrt iter    1 1.00000000   0.704E+00       0.002       39.444
     NS sqrt iter    2 1.00000000   0.329E+00       0.002       62.308
     NS sqrt iter    3 1.00000000   0.758E-01       0.002       62.962
     NS sqrt iter    4 1.00000000   0.190E-02       0.002       63.349
     NS sqrt iter    5 1.00000000   0.616E-07       0.002       46.007
     Final NS sqrt iter    5 1.00000000   0.860E-09

     Est. extremal eigenvalues     -0.93916     1.72097  converged:  T
     TRS4 it   1 1.00000000   0.880E+00       0.001       16.128   0.100E-07
     TRS4 it   2 1.00000000   0.624E+00       0.001       32.049   0.100E-07
     TRS4 it   3 1.00000000   0.427E+00       0.001       32.256   0.100E-07
     TRS4 it   4 1.00000000   0.219E+00       0.001       32.084   0.100E-07
     TRS4 it   5 1.00000000   0.716E-01       0.001       32.256   0.100E-07
     TRS4 it   6 1.00000000   0.965E-02       0.001       32.135   0.100E-07
     TRS4 it   7 1.00000000   0.237E-03       0.001       30.606   0.100E-07
     TRS4 it   8 1.00000000   0.203E-06       0.001       29.455   0.100E-07
     TRS4 it   9 1.00000000   0.180E-12       0.001       29.934   0.100E-07
     Final TRS4 iteration    9 1.00000000   0.180E-12
     Chemical potential (mu):       0.00892
 
 PAO| energy:  -7.8220279160287536      penalty:   1.2349786934048085E-005
 PAO|LS| adapt:  T T T
 PAO|LS| adapt: scan_steps:    0.0000000000000000       0.44514169540304160       0.89028339080608321     
 PAO|LS| adapt: energies:   -7.8220841082443275       -7.8220878150951032       -7.8220279160287536     
 PAO|LS| adapt: suggested step_size:   0.24851299134886579     
 PAO|LS| adapt: predicted energy  -7.8220940204240126     
 PAO| ======================= Iteration:        28 =============================

     Lanczos converged:  T threshold:   0.100E-02
     Est. extremal eigenvalues:    0.276E+01   0.179E+00
     Est. condition number :    0.154E+02
     NS sqrt iter    1 1.00000000   0.704E+00       0.002       41.493
     NS sqrt iter    2 1.00000000   0.330E+00       0.002       55.268
     NS sqrt iter    3 1.00000000   0.759E-01       0.002       54.078
     NS sqrt iter    4 1.00000000   0.191E-02       0.002       63.777
     NS sqrt iter    5 1.00000000   0.629E-07       0.002       47.464
     Final NS sqrt iter    5 1.00000000   0.445E-09

     Est. extremal eigenvalues     -0.93916     1.72196  converged:  T
     TRS4 it   1 1.00000000   0.880E+00       0.001       16.128   0.100E-07
     TRS4 it   2 1.00000000   0.624E+00       0.001       32.256   0.100E-07
     TRS4 it   3 1.00000000   0.427E+00       0.001       32.256   0.100E-07
     TRS4 it   4 1.00000000   0.219E+00       0.001       32.256   0.100E-07
     TRS4 it   5 1.00000000   0.717E-01       0.001       32.256   0.100E-07
     TRS4 it   6 1.00000000   0.969E-02       0.001       32.256   0.100E-07
     TRS4 it   7 1.00000000   0.239E-03       0.001       32.256   0.100E-07
     TRS4 it   8 1.00000000   0.207E-06       0.001       32.256   0.100E-07
     TRS4 it   9 1.00000000   0.187E-12       0.001       32.256   0.100E-07
     Final TRS4 iteration    9 1.00000000   0.187E-12
     Chemical potential (mu):       0.00880
 
 PAO| energy:  -7.8220940111940473      penalty:   1.3368635307218621E-005
 PAO|CG| trace_G_new    3.1717711180263458E-005
 PAO|CG| trace_G_prev    7.9532431851458521E-005
 PAO|CG| trace_G_mix    4.7347262154590373E-008
 PAO|CG| trace_D    1.1941118270131287E-004
 PAO|CG| trace_D_Gnew  -2.4415758676252385E-008
 PAO|CG| beta:   0.39820690982087792     
 PAO| norm of gradient:   5.6318479365358807E-003
 PAO| energy improvement:  -9.9029497198088734E-006
 PAO| step     28                   -7.822094011  0.352E-03  0.249E+00     0.084
 PAO|LS| adapt:  T F F
 PAO|LS| adapt: scan_steps:    0.0000000000000000        0.0000000000000000        0.0000000000000000     
 PAO|LS| adapt: energies:   -7.8220940111940473        0.0000000000000000        0.0000000000000000     
 PAO| ======================= Iteration:        29 =============================

     Lanczos converged:  T threshold:   0.100E-02
     Est. extremal eigenvalues:    0.276E+01   0.179E+00
     Est. condition number :    0.154E+02
     NS sqrt iter    1 1.00000000   0.704E+00       0.001       44.964
     NS sqrt iter    2 1.00000000   0.329E+00       0.002       70.671
     NS sqrt iter    3 1.00000000   0.759E-01       0.002       72.010
     NS sqrt iter    4 1.00000000   0.191E-02       0.002       71.475
     NS sqrt iter    5 1.00000000   0.625E-07       0.001       52.824
     Final NS sqrt iter    5 1.00000000   0.442E-09

     Est. extremal eigenvalues     -0.93916     1.72169  converged:  T
     TRS4 it   1 1.00000000   0.880E+00       0.001       16.128   0.100E-07
     TRS4 it   2 1.00000000   0.624E+00       0.001       32.256   0.100E-07
     TRS4 it   3 1.00000000   0.427E+00       0.001       32.256   0.100E-07
     TRS4 it   4 1.00000000   0.219E+00       0.001       32.256   0.100E-07
     TRS4 it   5 1.00000000   0.716E-01       0.001       32.256   0.100E-07
     TRS4 it   6 1.00000000   0.966E-02       0.001       32.256   0.100E-07
     TRS4 it   7 1.00000000   0.238E-03       0.001       32.256   0.100E-07
     TRS4 it   8 1.00000000   0.204E-06       0.001       32.256   0.100E-07
     TRS4 it   9 1.00000000   0.182E-12       0.001       29.086   0.100E-07
     Final TRS4 iteration    9 1.00000000   0.182E-12
     Chemical potential (mu):       0.00892
 
 PAO| energy:  -7.8221009409755222      penalty:   1.2940756893306407E-005
 PAO|LS| adapt:  T T F
 PAO|LS| adapt: scan_steps:    0.0000000000000000       0.24851299134886579        0.0000000000000000     
 PAO|LS| adapt: energies:   -7.8220940111940473       -7.8221009409755222        0.0000000000000000     
 PAO| ======================= Iteration:        30 =============================

     Lanczos converged:  T threshold:   0.100E-02
     Est. extremal eigenvalues:    0.276E+01   0.179E+00
     Est. condition number :    0.154E+02
     NS sqrt iter    1 1.00000000   0.704E+00       0.002       40.796
     NS sqrt iter    2 1.00000000   0.329E+00       0.002       63.098
     NS sqrt iter    3 1.00000000   0.758E-01       0.002       64.582
     NS sqrt iter    4 1.00000000   0.190E-02       0.002       64.842
     NS sqrt iter    5 1.00000000   0.621E-07       0.002       45.018
     Final NS sqrt iter    5 1.00000000   0.631E-09

     Est. extremal eigenvalues     -0.93917     1.72143  converged:  T
     TRS4 it   1 1.00000000   0.880E+00       0.001       16.128   0.100E-07
     TRS4 it   2 1.00000000   0.624E+00       0.001       31.650   0.100E-07
     TRS4 it   3 1.00000000   0.427E+00       0.001       32.256   0.100E-07
     TRS4 it   4 1.00000000   0.219E+00       0.001       32.256   0.100E-07
     TRS4 it   5 1.00000000   0.715E-01       0.001       32.133   0.100E-07
     TRS4 it   6 1.00000000   0.964E-02       0.001       26.599   0.100E-07
     TRS4 it   7 1.00000000   0.236E-03       0.001       32.013   0.100E-07
     TRS4 it   8 1.00000000   0.202E-06       0.001       26.723   0.100E-07
     TRS4 it   9 1.00000000   0.178E-12       0.001       31.970   0.100E-07
     Final TRS4 iteration    9 1.00000000   0.178E-12
     Chemical potential (mu):       0.00903
 
 PAO| energy:  -7.8221059613139019      penalty:   1.2520624951040794E-005
 PAO|LS| adapt:  T T F
 PAO|LS| adapt: scan_steps:    0.0000000000000000       0.49702598269773157        0.0000000000000000     
 PAO|LS| adapt: energies:   -7.8220940111940473       -7.8221059613139019        0.0000000000000000     
 PAO| ======================= Iteration:        31 =============================

     Lanczos converged:  T threshold:   0.100E-02
     Est. extremal eigenvalues:    0.276E+01   0.179E+00
     Est. condition number :    0.154E+02
     NS sqrt iter    1 1.00000000   0.703E+00       0.002       38.511
     NS sqrt iter    2 1.00000000   0.329E+00       0.002       61.124
     NS sqrt iter    3 1.00000000   0.757E-01       0.002       61.275
     NS sqrt iter    4 1.00000000   0.189E-02       0.002       61.501
     NS sqrt iter    5 1.00000000   0.612E-07       0.002       44.647
     Final NS sqrt iter    5 1.00000000   0.845E-09

     Est. extremal eigenvalues     -0.93917     1.72090  converged:  T
     TRS4 it   1 1.00000000   0.880E+00       0.001       16.128   0.100E-07
     TRS4 it   2 1.00000000   0.624E+00       0.001       32.092   0.100E-07
     TRS4 it   3 1.00000000   0.427E+00       0.001       32.256   0.100E-07
     TRS4 it   4 1.00000000   0.219E+00       0.001       31.738   0.100E-07
     TRS4 it   5 1.00000000   0.714E-01       0.001       32.256   0.100E-07
     TRS4 it   6 1.00000000   0.959E-02       0.001       32.256   0.100E-07
     TRS4 it   7 1.00000000   0.234E-03       0.001       32.104   0.100E-07
     TRS4 it   8 1.00000000   0.197E-06       0.001       32.256   0.100E-07
     TRS4 it   9 1.00000000   0.169E-12       0.001       32.256   0.100E-07
     Final TRS4 iteration    9 1.00000000   0.169E-12
     Chemical potential (mu):       0.00926
 
 PAO| energy:  -7.8221102747047926      penalty:   1.1703446538478831E-005
 PAO|LS| Need extra step
 PAO|LS| adapt:  T T F
 PAO|LS| adapt: scan_steps:    0.0000000000000000       0.99405196539546314        0.0000000000000000     
 PAO|LS| adapt: energies:   -7.8220940111940473       -7.8221102747047926        0.0000000000000000     
 PAO| ======================= Iteration:        32 =============================

     Lanczos converged:  T threshold:   0.100E-02
     Est. extremal eigenvalues:    0.275E+01   0.179E+00
     Est. condition number :    0.154E+02
     NS sqrt iter    1 1.00000000   0.703E+00       0.002       38.992
     NS sqrt iter    2 1.00000000   0.328E+00       0.002       61.221
     NS sqrt iter    3 1.00000000   0.754E-01       0.002       61.447
     NS sqrt iter    4 1.00000000   0.188E-02       0.002       61.116
     NS sqrt iter    5 1.00000000   0.596E-07       0.002       45.303
     Final NS sqrt iter    5 1.00000000   0.817E-09

     Est. extremal eigenvalues     -0.93917     1.71982  converged:  T
     TRS4 it   1 1.00000000   0.880E+00       0.001       16.128   0.100E-07
     TRS4 it   2 1.00000000   0.624E+00       0.001       31.307   0.100E-07
     TRS4 it   3 1.00000000   0.426E+00       0.001       32.256   0.100E-07
     TRS4 it   4 1.00000000   0.218E+00       0.001       32.256   0.100E-07
     TRS4 it   5 1.00000000   0.710E-01       0.001       32.256   0.100E-07
     TRS4 it   6 1.00000000   0.950E-02       0.001       32.256   0.100E-07
     TRS4 it   7 1.00000000   0.229E-03       0.001       32.256   0.100E-07
     TRS4 it   8 1.00000000   0.188E-06       0.001       32.256   0.100E-07
     TRS4 it   9 1.00000000   0.152E-12       0.001       32.256   0.100E-07
     Final TRS4 iteration    9 1.00000000   0.152E-12
     Chemical potential (mu):       0.00971
 
 PAO| energy:  -7.8220959931141900      penalty:   1.0160364884673150E-005
 PAO|LS| Need extra step
 PAO|LS| adapt:  T T T
 PAO|LS| adapt: scan_steps:    0.0000000000000000       0.99405196539546314        1.9881039307909263     
 PAO|LS| adapt: energies:   -7.8220940111940473       -7.8221102747047926       -7.8220959931141900     
 PAO|LS| adapt: suggested step_size:    1.0263015164878451     
 PAO|LS| adapt: predicted energy  -7.8221102907794133     
 PAO| ======================= Iteration:        33 =============================

     Lanczos converged:  T threshold:   0.100E-02
     Est. extremal eigenvalues:    0.276E+01   0.179E+00
     Est. condition number :    0.154E+02
     NS sqrt iter    1 1.00000000   0.703E+00       0.005       13.551
     NS sqrt iter    2 1.00000000   0.329E+00       0.002       44.485
     NS sqrt iter    3 1.00000000   0.756E-01       0.002       62.414
     NS sqrt iter    4 1.00000000   0.189E-02       0.002       62.817
     NS sqrt iter    5 1.00000000   0.612E-07       0.002       45.420
     Final NS sqrt iter    5 1.00000000   0.844E-09

     Est. extremal eigenvalues     -0.93917     1.72086  converged:  T
     TRS4 it   1 1.00000000   0.880E+00       0.001       16.128   0.100E-07
     TRS4 it   2 1.00000000   0.624E+00       0.001       32.167   0.100E-07
     TRS4 it   3 1.00000000   0.427E+00       0.001       32.256   0.100E-07
     TRS4 it   4 1.00000000   0.219E+00       0.001       32.256   0.100E-07
     TRS4 it   5 1.00000000   0.714E-01       0.001       32.256   0.100E-07
     TRS4 it   6 1.00000000   0.959E-02       0.001       32.256   0.100E-07
[...]
     NS sqrt iter    4 1.00000000   0.758E-03       0.001       81.281
     NS sqrt iter    5 1.00000000   0.577E-08       0.001       33.696
     Final NS sqrt iter    5 1.00000000   0.333E-09

     Est. extremal eigenvalues     -0.93886     1.62448  converged:  T
     TRS4 it   1 1.00000000   0.879E+00       0.000       16.128   0.100E-07
     TRS4 it   2 1.00000000   0.632E+00       0.001       32.256   0.100E-07
     TRS4 it   3 1.00000000   0.455E+00       0.001       32.256   0.100E-07
     TRS4 it   4 1.00000000   0.279E+00       0.001       32.256   0.100E-07
     TRS4 it   5 1.00000000   0.139E+00       0.001       32.256   0.100E-07
     TRS4 it   6 1.00000000   0.446E-01       0.001       32.256   0.100E-07
     TRS4 it   7 1.00000000   0.651E-02       0.001       32.256   0.100E-07
     TRS4 it   8 1.00000000   0.184E-03       0.001       32.256   0.100E-07
     TRS4 it   9 1.00000000   0.152E-06       0.001       32.256   0.100E-07
     TRS4 it  10 1.00000000   0.104E-12       0.001       32.256   0.100E-07
     Final TRS4 iteration   10 1.00000000   0.104E-12
     Chemical potential (mu):      -0.07915
 
 PAO| energy:  -7.8213423121317289      penalty:   2.6164707308656125E-008
 PAO|LS| Need extra step
 PAO|LS| adapt:  T T T
 PAO|LS| adapt: scan_steps:    0.0000000000000000       0.20000000000000001       0.40000000000000002     
 PAO|LS| adapt: energies:   -7.8213423085088012       -7.8213423135243110       -7.8213423121317289     
 PAO|LS| adapt: suggested step_size:   0.25653676365617123     
 PAO|LS| adapt: predicted energy  -7.8213423137803479     
 PAO| ======================= Iteration:       428 =============================

     Lanczos converged:  T threshold:   0.100E-02
     Est. extremal eigenvalues:    0.249E+01   0.190E+00
     Est. condition number :    0.131E+02
     NS sqrt iter    1 1.00000000   0.633E+00       0.001       57.577
     NS sqrt iter    2 1.00000000   0.274E+00       0.001       88.430
     NS sqrt iter    3 1.00000000   0.480E-01       0.001       83.113
     NS sqrt iter    4 1.00000000   0.758E-03       0.002       67.648
     NS sqrt iter    5 1.00000000   0.577E-08       0.001       28.479
     Final NS sqrt iter    5 1.00000000   0.333E-09

     Est. extremal eigenvalues     -0.93886     1.62448  converged:  T
     TRS4 it   1 1.00000000   0.879E+00       0.000       16.128   0.100E-07
     TRS4 it   2 1.00000000   0.632E+00       0.001       32.256   0.100E-07
     TRS4 it   3 1.00000000   0.455E+00       0.001       32.256   0.100E-07
     TRS4 it   4 1.00000000   0.279E+00       0.001       32.256   0.100E-07
     TRS4 it   5 1.00000000   0.139E+00       0.001       32.256   0.100E-07
     TRS4 it   6 1.00000000   0.446E-01       0.001       32.256   0.100E-07
     TRS4 it   7 1.00000000   0.651E-02       0.001       32.256   0.100E-07
     TRS4 it   8 1.00000000   0.184E-03       0.001       32.256   0.100E-07
     TRS4 it   9 1.00000000   0.152E-06       0.001       32.256   0.100E-07
     TRS4 it  10 1.00000000   0.104E-12       0.001       32.256   0.100E-07
     Final TRS4 iteration   10 1.00000000   0.104E-12
     Chemical potential (mu):      -0.07915
 
 PAO| energy:  -7.8213423137803524      penalty:   2.6470551696741167E-008
 PAO|CG| warming up with steepest descent
 PAO|CG| beta:    0.0000000000000000     
 PAO| norm of gradient:   1.2171984135173194E-004
 PAO| energy improvement:  -5.2715511955625516E-009
 PAO| step    428                   -7.821342314  0.761E-05  0.257E+00     0.091
 PAO| converged after          428  steps :-)
 PAO| Recalculating energy after mixing.

     Lanczos converged:  T threshold:   0.100E-02
     Est. extremal eigenvalues:    0.249E+01   0.190E+00
     Est. condition number :    0.131E+02
     NS sqrt iter    1 1.00000000   0.633E+00       0.001       56.274
     NS sqrt iter    2 1.00000000   0.274E+00       0.001       97.808
     NS sqrt iter    3 1.00000000   0.480E-01       0.001       99.899
     NS sqrt iter    4 1.00000000   0.758E-03       0.001       96.909
     NS sqrt iter    5 1.00000000   0.577E-08       0.001       38.272
     Final NS sqrt iter    5 1.00000000   0.333E-09

     Est. extremal eigenvalues     -0.93886     1.62448  converged:  T
     TRS4 it   1 1.00000000   0.879E+00       0.000       16.128   0.100E-07
     TRS4 it   2 1.00000000   0.632E+00       0.001       32.256   0.100E-07
     TRS4 it   3 1.00000000   0.455E+00       0.001       32.256   0.100E-07
     TRS4 it   4 1.00000000   0.279E+00       0.001       32.256   0.100E-07
     TRS4 it   5 1.00000000   0.139E+00       0.001       32.256   0.100E-07
     TRS4 it   6 1.00000000   0.446E-01       0.001       32.256   0.100E-07
     TRS4 it   7 1.00000000   0.651E-02       0.001       32.256   0.100E-07
     TRS4 it   8 1.00000000   0.184E-03       0.001       32.256   0.100E-07
     TRS4 it   9 1.00000000   0.152E-06       0.001       32.256   0.100E-07
     TRS4 it  10 1.00000000   0.104E-12       0.001       32.256   0.100E-07
     Final TRS4 iteration   10 1.00000000   0.104E-12
     Chemical potential (mu):      -0.07915
 
 PAO| energy:  -7.8213423124624439      penalty:   2.6745503292323872E-008
 PAO| Writing restart file.
     Est. extremal eigenvalues     -0.93886     1.62448  converged:  T
     TRS4 it   1 1.00000000   0.879E+00       0.000       16.128   0.100E-07
     TRS4 it   2 1.00000000   0.632E+00       0.001       32.256   0.100E-07
     TRS4 it   3 1.00000000   0.455E+00       0.001       32.256   0.100E-07
     TRS4 it   4 1.00000000   0.279E+00       0.001       32.256   0.100E-07
     TRS4 it   5 1.00000000   0.139E+00       0.001       32.256   0.100E-07
     TRS4 it   6 1.00000000   0.446E-01       0.001       32.256   0.100E-07
     TRS4 it   7 1.00000000   0.651E-02       0.001       32.256   0.100E-07
     TRS4 it   8 1.00000000   0.184E-03       0.001       32.109   0.100E-07
     TRS4 it   9 1.00000000   0.152E-06       0.001       32.256   0.100E-07
     TRS4 it  10 1.00000000   0.104E-12       0.001       32.256   0.100E-07
     Final TRS4 iteration   10 1.00000000   0.104E-12
     Chemical potential (mu):      -0.07915

 SCF     1       -34.449509775       -34.449509775    1.937017

*********************************************************
 Using MIXING_FRACTION=0.450 to mix KS matrix:  iscf=  2
 KS_nw=0.450*KS + 0.550*KS_old
*********************************************************
     Est. extremal eigenvalues     -0.93886     1.62448  converged:  T
     TRS4 it   1 1.00000000   0.879E+00       0.001       16.128   0.100E-07
     TRS4 it   2 1.00000000   0.632E+00       0.002       15.224   0.100E-07
     TRS4 it   3 1.00000000   0.455E+00       0.001       26.495   0.100E-07
     TRS4 it   4 1.00000000   0.279E+00       0.001       29.869   0.100E-07
     TRS4 it   5 1.00000000   0.139E+00       0.001       31.092   0.100E-07
     TRS4 it   6 1.00000000   0.446E-01       0.001       29.194   0.100E-07
     TRS4 it   7 1.00000000   0.651E-02       0.001       32.256   0.100E-07
     TRS4 it   8 1.00000000   0.184E-03       0.001       32.256   0.100E-07
     TRS4 it   9 1.00000000   0.152E-06       0.001       32.256   0.100E-07
     TRS4 it  10 1.00000000   0.104E-12       0.001       24.247   0.100E-07
     Final TRS4 iteration   10 1.00000000   0.104E-12
     Chemical potential (mu):      -0.07915

 SCF     2       -34.449509776        -0.000000000    2.425697

 PAO| Storing density matrix for ASPC guess in slot:           1

 ENERGY| Total FORCE_EVAL ( QS ) energy (a.u.):              -34.449509775599893


 -------------------------------------------------------------------------------
 -                                                                             -
 -                                DBCSR STATISTICS                             -
 -                                                                             -
 -------------------------------------------------------------------------------
 COUNTER                                    TOTAL       BLAS       SMM       ACC
 flops     5 x     5 x     4                20000     100.0%      0.0%      0.0%
 flops    13 x     5 x     4                20800     100.0%      0.0%      0.0%
 flops     5 x    13 x     4                20800     100.0%      0.0%      0.0%
 flops    13 x    13 x     4                40560     100.0%      0.0%      0.0%
 flops     4 x     4 x     5              3360000     100.0%      0.0%      0.0%
 flops     5 x     4 x     5              4096000     100.0%      0.0%      0.0%
 flops     4 x     4 x    13              4368000     100.0%      0.0%      0.0%
 flops    13 x     4 x     5              5324800     100.0%      0.0%      0.0%
 flops     5 x     4 x    13              5324800     100.0%      0.0%      0.0%
 flops     5 x     4 x     4              6440000     100.0%      0.0%      0.0%
 flops    13 x     4 x    13              6922240     100.0%      0.0%      0.0%
 flops    13 x     4 x     4              8520512     100.0%      0.0%      0.0%
 flops     4 x     4 x     4            435361536     100.0%      0.0%      0.0%
 flops inhomo. stacks                           0       0.0%      0.0%      0.0%
 flops total                       479.820048E+06     100.0%      0.0%      0.0%
 flops max/rank                    479.820048E+06     100.0%      0.0%      0.0%
 matmuls inhomo. stacks                         0       0.0%      0.0%      0.0%
 matmuls total                            3539784     100.0%      0.0%      0.0%
 number of processed stacks                 28210     100.0%      0.0%      0.0%
 average stack size                                   125.5       0.0       0.0
 marketing flops                   780.515712E+06
 -------------------------------------------------------------------------------
 # multiplications                          23599
 max memory usage/rank             327.811072E+06
 # max total images/rank                        1
 # max 3D layers                                1
 # MPI messages exchanged                       0
 MPI messages size (bytes):
  total size                         0.000000E+00
  min size                           0.000000E+00
  max size                           0.000000E+00
  average size                       0.000000E+00
 MPI breakdown and total messages size (bytes):
             size <=      128                   0                        0
       128 < size <=     8192                   0                        0
      8192 < size <=    32768                   0                        0
     32768 < size <=   131072                   0                        0
    131072 < size <=  4194304                   0                        0
   4194304 < size <= 16777216                   0                        0
  16777216 < size                               0                        0
 -------------------------------------------------------------------------------

 MEMORY| Estimated peak process memory [MiB]                                 313

 -------------------------------------------------------------------------------
 -                                                                             -
 -                           R E F E R E N C E S                               -
 -                                                                             -
 -------------------------------------------------------------------------------
 
 CP2K version 7.0 (Development Version), the CP2K developers group (2018).
 CP2K is freely available from https://www.cp2k.org/ .

 Schuett, O; VandeVondele, J. 
 Journal of Chemical Theory and Computation, 14, (2018). 
 Machine Learning Adaptive Basis Sets for Efficient Large Scale Density Functional Theory Simulation.
 https://dx.doi.org/10.1021/acs.jctc.8b00378


 Schuett, Ole; Messmer, Peter; Hutter, Juerg; VandeVondele, Joost. 
 Electronic Structure Calculations on Graphics Processing Units, John Wiley & Sons, Ltd, 173-190 (2016). 
 GPU-Accelerated Sparse Matrix-Matrix Multiplication for Linear Scaling Density Functional Theory.
 https://dx.doi.org/10.1002/9781118670712.ch8


 Borstnik, U; VandeVondele, J; Weber, V; Hutter, J. 
 PARALLEL COMPUTING, 40 (5-6), 47-58 (2014). 
 Sparse matrix multiplication: The distributed block-compressed sparse
 row library.
 https://dx.doi.org/10.1016/j.parco.2014.03.012


 Hutter, J; Iannuzzi, M; Schiffmann, F; VandeVondele, J. 
 WILEY INTERDISCIPLINARY REVIEWS-COMPUTATIONAL MOLECULAR SCIENCE, 4 (1), 15-25 (2014). 
 CP2K: atomistic simulations of condensed matter systems.
 https://dx.doi.org/10.1002/wcms.1159


 VandeVondele, J; Borstnik, U; Hutter, J. 
 JOURNAL OF CHEMICAL THEORY AND COMPUTATION, 8 (10), 3565-3573 (2012). 
 Linear Scaling Self-Consistent Field Calculations with Millions of Atoms
 in the Condensed Phase.
 https://dx.doi.org/10.1021/ct200897x


 VandeVondele, J; Hutter, J. 
 JOURNAL OF CHEMICAL PHYSICS, 127 (11), 114105 (2007). 
 Gaussian basis sets for accurate calculations on molecular systems in
 gas and condensed phases.
 https://dx.doi.org/10.1063/1.2770708


 Krack, M. 
 THEORETICAL CHEMISTRY ACCOUNTS, 114 (1-3), 145-152 (2005). 
 Pseudopotentials for H to Kr optimized for gradient-corrected
 exchange-correlation functionals.
 https://dx.doi.org/10.1007/s00214-005-0655-y


 VandeVondele, J; Krack, M; Mohamed, F; Parrinello, M; Chassaing, T;
 Hutter, J. COMPUTER PHYSICS COMMUNICATIONS, 167 (2), 103-128 (2005). 
 QUICKSTEP: Fast and accurate density functional calculations using a
 mixed Gaussian and plane waves approach.
 https://dx.doi.org/10.1016/j.cpc.2004.12.014


 Frigo, M; Johnson, SG. 
 PROCEEDINGS OF THE IEEE, 93 (2), 216-231 (2005). 
 The design and implementation of FFTW3.
 https://dx.doi.org/10.1109/JPROC.2004.840301


 Niklasson, AMN; Tymczak, CJ; Challacombe, M. 
 JOURNAL OF CHEMICAL PHYSICS, 118 (19), 8611-8620 (2003). 
 Trace resetting density matrix purification in O(N)
 self-consistent-field theory.
 https://dx.doi.org/10.1063/1.1559913


 Hartwigsen, C; Goedecker, S; Hutter, J. 
 PHYSICAL REVIEW B, 58 (7), 3641-3662 (1998). 
 Relativistic separable dual-space Gaussian pseudopotentials from H to Rn.
 https://dx.doi.org/10.1103/PhysRevB.58.3641


 Lippert, G; Hutter, J; Parrinello, M. 
 MOLECULAR PHYSICS, 92 (3), 477-487 (1997). 
 A hybrid Gaussian and plane wave density functional scheme.
 https://dx.doi.org/10.1080/002689797170220


 Perdew, JP; Burke, K; Ernzerhof, M. 
 PHYSICAL REVIEW LETTERS, 77 (18), 3865-3868 (1996). 
 Generalized gradient approximation made simple.
 https://dx.doi.org/10.1103/PhysRevLett.77.3865


 Goedecker, S; Teter, M; Hutter, J. 
 PHYSICAL REVIEW B, 54 (3), 1703-1710 (1996). 
 Separable dual-space Gaussian pseudopotentials.
 https://dx.doi.org/10.1103/PhysRevB.54.1703


 -------------------------------------------------------------------------------
 -                                                                             -
 -                                T I M I N G                                  -
 -                                                                             -
 -------------------------------------------------------------------------------
 SUBROUTINE                       CALLS  ASD         SELF TIME        TOTAL TIME
                                MAXIMUM       AVERAGE  MAXIMUM  AVERAGE  MAXIMUM
 CP2K                                 1  1.0    0.031    0.031   33.088   33.088
 qs_energies                          1  2.0    0.000    0.000   32.621   32.621
 ls_scf                               1  3.0    0.000    0.000   32.422   32.422
 ls_scf_main                          4  4.0    0.001    0.001   19.279   19.279
 ls_scf_dm_to_ks                      9  5.0    0.000    0.000   19.164   19.164
 qs_ks_update_qs_env                 10  6.0    0.000    0.000   15.417   15.417
 rebuild_ks_matrix                   10  7.0    0.000    0.000   15.417   15.417
 qs_ks_build_kohn_sham_matrix        10  8.0    0.001    0.001   15.417   15.417
 pao_update                           4  4.0    0.010    0.010   10.637   10.637
 pao_calc_energy                    431  5.0    0.004    0.004    9.601    9.601
 qs_vxc_create                       10  9.0    0.000    0.000    9.376    9.376
 xc_vxc_pw_create                    10 10.0    0.125    0.125    9.376    9.376
 dbcsr_multiply_generic           23599  8.4    0.520    0.520    8.246    8.246
 pw_transfer                        191 10.6    0.013    0.013    6.610    6.610
 xc_rho_set_and_dset_create          10 11.0    0.033    0.033    6.606    6.606
 fft_wrap_pw1pw2                    171 11.7    0.002    0.002    6.517    6.517
 fft_wrap_pw1pw2_200                111 12.8    0.349    0.349    6.237    6.237
 qs_rho_update_rho                   10  6.0    0.000    0.000    6.142    6.142
 calculate_rho_elec                  10  7.0    4.807    4.807    6.142    6.142
 sum_up_and_integrate                10  9.0    0.020    0.020    5.120    5.120
 integrate_v_rspace                  10 10.0    4.324    4.324    5.100    5.100
 pao_dm_trs4                        431  6.0    0.003    0.003    4.964    4.964
 density_matrix_trs4                440  7.0    0.187    0.187    4.780    4.780
 ls_scf_init_matrix_S               435  7.0    0.004    0.004    4.634    4.634
 xc_functional_eval                  10 12.0    0.000    0.000    4.619    4.619
 pbe_lda_eval                        10 13.0    4.619    4.619    4.619    4.619
 pao_rebuild_S                      431  6.0    0.003    0.003    4.594    4.594
 matrix_sqrt_Newton_Schulz          435  8.0    0.115    0.115    4.183    4.183
 multiply_cannon                  23599  9.4    1.326    1.326    3.860    3.860
 fft3d_s                            172 13.6    3.374    3.374    3.393    3.393
 make_m2s                         47198  9.4    0.191    0.191    2.620    2.620
 pao_guess_initial_P                  1  4.0    0.000    0.000    2.401    2.401
 pao_read_preopt_dm                   1  5.0    0.000    0.000    2.401    2.401
 make_images                      47198 10.4    0.621    0.621    2.305    2.305
 pw_gather_s                         81 13.1    1.680    1.680    1.680    1.680
 multiply_cannon_multrec          23599 10.4    1.329    1.329    1.462    1.462
 density_rs2pw                       10  8.0    0.001    0.001    1.320    1.320
 arnoldi_extremal                   875  8.5    0.004    0.004    1.128    1.128
 arnoldi_normal_ev                  875  9.5    0.016    0.016    1.123    1.123
 pw_scatter_s                        90 14.2    1.080    1.080    1.080    1.080
 pao_calc_AB                        567  5.8    0.001    0.001    1.014    1.014
 pao_calc_AB_direct                 567  6.8    0.029    0.029    1.013    1.013
 pao_calc_grad_lnv_wrt_AB           135  7.0    0.008    0.008    0.955    0.955
 build_subspace                     875 10.5    0.061    0.061    0.839    0.839
 potential_pw2rs                     10 11.0    0.003    0.003    0.775    0.775
 dbcsr_finalize                   56323  9.6    0.127    0.127    0.768    0.768
 dbcsr_matrix_vector_mult         20988 11.5    0.129    0.129    0.754    0.754
 dbcsr_create_new                180468 10.7    0.388    0.388    0.720    0.720
 -------------------------------------------------------------------------------

 The number of warnings for this run is : 0
 
 -------------------------------------------------------------------------------
  **** **** ******  **  PROGRAM ENDED AT                 2019-03-28 17:34:35.484
 ***** ** ***  *** **   PROGRAM RAN ON            oleschuett.zrh.corp.google.com
 **    ****   ******    PROGRAM RAN BY                                oleschuett
 ***** **    ** ** **   PROGRAM PROCESS ID                                 35727
  **** **  *******  **  PROGRAM STOPPED IN /usr/local/google/home/oleschuett/git
                                           /pao_ml_equivar/2H2O_rotations/rand_0
                                           9
