 DBCSR| CPU Multiplication driver                                           XSMM (U)
 DBCSR| Multrec recursion limit                                              512 (U)
 DBCSR| Multiplication stack size                                           1000 (D)
 DBCSR| Maximum elements for images                                    UNLIMITED (U)
 DBCSR| Multiplicative factor virtual images                                   1 (U)
 DBCSR| Use multiplication densification                                       T (D)
 DBCSR| Multiplication size stacks                                             3 (U)
 DBCSR| Use memory pool for CPU allocation                                     F (U)
 DBCSR| OMP: Current number of threads                                         1
 DBCSR| OMP: Max number of threads                                             1
 DBCSR| Split modifier for TAS multiplication algorithm                  1.0E+00 (U)


  **** **** ******  **  PROGRAM STARTED AT               2023-02-01 10:43:54.932
 ***** ** ***  *** **   PROGRAM STARTED ON                                moritz
 **    ****   ******    PROGRAM STARTED BY                                   ole
 ***** **    ** ** **   PROGRAM PROCESS ID                                148506
  **** **  *******  **  PROGRAM STARTED IN /home/ole/git/pao_ml_equivar/2H2O_rot
                                           ations/rand_09

 CP2K| version string:                 CP2K version 2023.1 (Development Version)
 CP2K| source code revision number:                                  git:03b4147
 CP2K| cp2kflags: omp libint fftw3 libxc quip xsmm spglib libvori libbqb libtorc
 CP2K|            h
 CP2K| is freely available from                            https://www.cp2k.org/
 CP2K| Program compiled at                           Mi 01 Feb 2023 10:36:52 CET
 CP2K| Program compiled on                                                moritz
 CP2K| Program compiled for                                                local
 CP2K| Data directory path                               /home/ole/git/cp2k/data
 CP2K| Input file name                                            2H2O_pao44.inp

 GLOBAL| Force Environment number                                              1
 GLOBAL| Basis set file name                                        BASIS_MOLOPT
 GLOBAL| Potential file name                                      GTH_POTENTIALS
 GLOBAL| MM Potential file name                                     MM_POTENTIAL
 GLOBAL| Coordinate file name                                         coords.xyz
 GLOBAL| Method name                                                        CP2K
 GLOBAL| Project name                                                 2H2O_pao44
 GLOBAL| Run type                                                         ENERGY
 GLOBAL| FFT library                                                       FFTW3
 GLOBAL| Diagonalization library                                       ScaLAPACK
 GLOBAL| DGEMM library                                                      BLAS
 GLOBAL| Orthonormality check for eigenvectors                          DISABLED
 GLOBAL| Matrix multiplication library                                 ScaLAPACK
 GLOBAL| All-to-all communication in single precision                          F
 GLOBAL| FFTs using library dependent lengths                                  F
 GLOBAL| Grid backend                                                       AUTO
 GLOBAL| Global print level                                                  LOW
 GLOBAL| MPI I/O enabled                                                       T
 GLOBAL| Total number of message passing processes                             1
 GLOBAL| Number of threads for this process                                    1
 GLOBAL| This output is from process                                           0
 GLOBAL| Stack size for threads created by OpenMP (OMP_STACKSIZE)        default
 GLOBAL| CPU model name           AMD Ryzen Threadripper 3970X 32-Core Processor
 GLOBAL| CPUID                                                              1002
 GLOBAL| Compiled for CPUID                                                    0

 *** HINT in environment.F:884 :: The compiler target flags (generic) used ***
 *** to build this binary cannot exploit all extensions of this CPU model  ***
 *** (x86_avx2). Consider compiler target flags as part of FCFLAGS and     ***
 *** CFLAGS (ARCH file).                                                   ***


 MEMORY| system memory details [Kb]
 MEMORY|                        rank 0           min           max       average
 MEMORY| MemTotal            131773860     131773860     131773860     131773860
 MEMORY| MemFree             115349072     115349072     115349072     115349072
 MEMORY| Buffers                301492        301492        301492        301492
 MEMORY| Cached                7000768       7000768       7000768       7000768
 MEMORY| Slab                   776600        776600        776600        776600
 MEMORY| SReclaimable           330700        330700        330700        330700
 MEMORY| MemLikelyFree       122982032     122982032     122982032     122982032


 GENERATE|  Preliminary Number of Bonds generated:                             0
 GENERATE|  Achieved consistency in connectivity generation.

 *******************************************************************************
 *******************************************************************************
 **                                                                           **
 **     #####                         ##              ##                      **
 **    ##   ##            ##          ##              ##                      **
 **   ##     ##                       ##            ######                    **
 **   ##     ##  ##   ##  ##   #####  ##  ##   ####   ##    #####    #####    **
 **   ##     ##  ##   ##  ##  ##      ## ##   ##      ##   ##   ##  ##   ##   **
 **   ##  ## ##  ##   ##  ##  ##      ####     ###    ##   ######   ######    **
 **    ##  ###   ##   ##  ##  ##      ## ##      ##   ##   ##       ##        **
 **     #######   #####   ##   #####  ##  ##  ####    ##    #####   ##        **
 **           ##                                                    ##        **
 **                                                                           **
 **                                                ... make the atoms dance   **
 **                                                                           **
 **            Copyright (C) by CP2K developers group (2000-2023)             **
 **                      J. Chem. Phys. 152, 194103 (2020)                    **
 **                                                                           **
 *******************************************************************************


 TOTAL NUMBERS AND MAXIMUM NUMBERS

  Total number of            - Atomic kinds:                                   2
                             - Atoms:                                          6
                             - Shell sets:                                     6
                             - Shells:                                        22
                             - Primitive Cartesian functions:                 42
                             - Cartesian basis functions:                     48
                             - Spherical basis functions:                     46

  Maximum angular momentum of- Orbital basis functions:                        2
                             - Local part of the GTH pseudopotential:          2
                             - Non-local part of the GTH pseudopotential:      0

 ------------------------------ Linear scaling SCF -----------------------------
 eps_scf:                                                              0.100E-07
 eps_filter:                                                           0.100E-07
 mixing_fraction:                                                      0.450E+00
 max_scf:                                                                     25
 fixed chemical potential (mu)                                                 F
 has unit metric:                                                              F
 Computing inv(S):                                                             T
 Computing sqrt(S):                                                            T
 Computing S preconditioner                                                    F
 S sqrt method:                                                     NEWTONSCHULZ
 S sqrt order:                                                                 3
 Extrapolation order:                                                          1
 Use single precision matrices                                                 F
 S preconditioner type                                                      NONE
 Polarized Atomic Orbitals (PAO)                                               T
 Purification method                                   Trace resetting 4th order
 Cluster type                                                             ATOMIC
 Computing Chebyshev                                                       FALSE
 Using PAO                                                                     T
 -------------------------------------------------------------------------------

 
 PAO|                                  EPS_PAO                           0.1E-04
 PAO|                                  MIXING                            0.5E+00
 PAO|                                  MAX_PAO                              1000
 PAO|                                  MAX_CYCLES                           1000
 PAO|                                  PARAMETERIZATION              EQUIVARIANT
 PAO|                                  PRECONDITION                            F
 PAO|                                  REGULARIZATION                    0.0E+00
 PAO|                                  EPS_PGF                           0.1E-09
 PAO|                                  PENALTY_DISTANCE                  0.1E+00
 PAO|                                  PENALTY_STRENGTH                  0.5E-02
 PAO|                                  LINPOT_PRECONDITION_DELTA         0.0E+00
 PAO|                                  LINPOT_INITGUESS_DELT             0.0E+00
 PAO|                                  LINPOT_REGULARIZATION_DELTA       0.0E+00
 PAO|                                  LINPOT_REGULARIZATION_STRENGTH    0.0E+00
 PAO|                                  OPTIMIZER                              CG
 PAO|                                  CG_INIT_STEPS                           2
 PAO|                                  CG_RESET_LIMIT                    0.1E+00
 PAO|                                  CHECK_UNITARY_TOL                -0.1E+01
 PAO|                                  CHECK_GRADIENT_TOL               -0.1E+01
 PAO|                                  NUM_GRADIENT_ORDER                      2
 PAO|                                  NUM_GRADIENT_EPS                  0.1E-07
 PAO|                                  PRINT%RESTART%WRITE_CYCLES            100
 PAO|                                  RESTART_FILE 
 PAO|                                  PREOPT_DM_FILE 2H2O_ref_LS_DM_SPIN_1_RESTART.dm
 PAO|                                  MACHINE_LEARNING%METHOD       GAUSSIAN_PR
 PAO|                                  MACHINE_LEARNING%PRIOR               ZERO
 PAO|                                  MACHINE_LEARNING%DESCRIPTOR     POTENTIAL
 PAO|                                  MACHINE_LEARNING%TOLERANCE        0.1E-01
 PAO|                                  MACHINE_LEARNING%GP_NOISE_VAR     0.1E+00
 PAO|                                  MACHINE_LEARNING%GP_SCALE         0.5E-01
 

 Calculating atomic Fock matrix for atomic kind: O

 Electronic structure
    Total number of core electrons                                          2.00
    Total number of valence electrons                                       6.00
    Total number of electrons                                               8.00
    Multiplicity                                                   not specified
    S   [  2.00] 2.00
    P      4.00


 *******************************************************************************
                  Iteration          Convergence                     Energy [au]
 *******************************************************************************
                          1        0.708315                     -15.576645311500
                          2        0.608879                     -15.587933561584
                          3        0.102828E-01                 -15.656849565404
                          4        0.113889E-02                 -15.656866888140
                          5        0.434197E-03                 -15.656867072159
                          6        0.263771E-03                 -15.656867091904
                          7        0.478536E-06                 -15.656867103452

 Energy components [Hartree]           Total Energy ::          -15.656867103452
                                        Band Energy ::           -3.000198112285
                                     Kinetic Energy ::           11.759971203220
                                   Potential Energy ::          -27.416838306672
                                      Virial (-V/T) ::            2.331369510426
                                        Core Energy ::          -26.140716385623
                                          XC Energy ::           -3.154051012914
                                     Coulomb Energy ::           13.637900295084
                       Total Pseudopotential Energy ::          -37.935781716540
                       Local Pseudopotential Energy ::          -39.218907440693
                    Nonlocal Pseudopotential Energy ::            1.283125724153
                                        Confinement ::            0.350941276976

 Orbital energies  State     L     Occupation   Energy[a.u.]          Energy[eV]

                       1     0          2.000      -0.864471          -23.523463

                       1     1          4.000      -0.317814           -8.648154


 Total Electron Density at R=0:                                         0.000068

 Calculating atomic Fock matrix for atomic kind: H

 Electronic structure
    Total number of core electrons                                          0.00
    Total number of valence electrons                                       1.00
    Total number of electrons                                               1.00
    Multiplicity                                                   not specified
    S      1.00


 *******************************************************************************
                  Iteration          Convergence                     Energy [au]
 *******************************************************************************
                          1        0.437545E-02                  -0.424159432110
                          2        0.531356E-03                  -0.424178438213
                          3        0.259176E-06                  -0.424178722480

 Energy components [Hartree]           Total Energy ::           -0.424178722480
                                        Band Energy ::           -0.199015229016
                                     Kinetic Energy ::            0.464007633961
                                   Potential Energy ::           -0.888186356441
                                      Virial (-V/T) ::            1.914163240935
                                        Core Energy ::           -0.479160803564
                                          XC Energy ::           -0.244352904054
                                     Coulomb Energy ::            0.299334985138
                       Total Pseudopotential Energy ::           -0.962295316385
                       Local Pseudopotential Energy ::           -0.962295316385
                    Nonlocal Pseudopotential Energy ::            0.000000000000
                                        Confinement ::            0.191268788606

 Orbital energies  State     L     Occupation   Energy[a.u.]          Energy[eV]

                       1     0          1.000      -0.199015           -5.415480


 Total Electron Density at R=0:                                         0.242907
 PAO| Made initial guess for matrix_X with norm:   4.8989794855663558     

     Lanczos converged:  T threshold:   0.100E-02
     Est. extremal eigenvalues:    0.337E+01   0.111E+00
     Est. condition number :    0.302E+02

 Order=           3
     NS sqrt iter    1 1.00000000   0.822E+00       0.001       55.314
     NS sqrt iter    2 1.00000000   0.440E+00       0.001      110.592
     NS sqrt iter    3 1.00000000   0.171E+00       0.001      110.592
     NS sqrt iter    4 1.00000000   0.211E-01       0.001      110.592
     NS sqrt iter    5 1.00000000   0.613E-04       0.001       97.536
     Symmetrizing Results
     Final NS sqrt iter    5 1.00000000   0.545E-08

 PAO| Read restart DM 2H2O_ref_LS_DM_SPIN_1_RESTART.dm with checksum:    66.959949334672146     
 PAO| Quickstep energy from restart density:  -34.450065256797302     
 PAO| ======================= Iteration:         1 =============================

     Lanczos converged:  T threshold:   0.100E-02
     Est. extremal eigenvalues:    0.337E+01   0.111E+00
     Est. condition number :    0.302E+02

 Order=           3
     NS sqrt iter    1 1.00000000   0.822E+00       0.001       58.417
     NS sqrt iter    2 1.00000000   0.440E+00       0.001      100.992
     NS sqrt iter    3 1.00000000   0.171E+00       0.001      100.689
     NS sqrt iter    4 1.00000000   0.211E-01       0.001      100.768
     NS sqrt iter    5 1.00000000   0.613E-04       0.001       88.399
     Symmetrizing Results
     Final NS sqrt iter    5 1.00000000   0.545E-08

     Est. extremal eigenvalues     -0.92026     1.93353  converged:  T
     TRS4 it   1 1.00000000   0.900E+00       0.000       16.128   0.100E-07
     TRS4 it   2 1.00000000   0.705E+00       0.001       32.256   0.100E-07
     TRS4 it   3 1.00000000   0.504E+00       0.001       32.256   0.100E-07
     TRS4 it   4 1.00000000   0.317E+00       0.001       32.256   0.100E-07
     TRS4 it   5 1.00000000   0.158E+00       0.001       32.256   0.100E-07
     TRS4 it   6 1.00000000   0.504E-01       0.001       32.256   0.100E-07
     TRS4 it   7 1.00000000   0.709E-02       0.001       32.256   0.100E-07
     TRS4 it   8 1.00000000   0.199E-03       0.001       32.256   0.100E-07
     TRS4 it   9 1.00000000   0.177E-06       0.001       32.256   0.100E-07
     TRS4 it  10 1.00000000   0.141E-12       0.001       32.256   0.100E-07
     Final TRS4 iteration   10 1.00000000   0.141E-12
     Chemical potential (mu):      -0.06409
 
 PAO| energy:  -7.6185343746900021      penalty:   6.0397163055983729E-033
 PAO|CG| warming up with steepest descent
 PAO|CG| beta:    0.0000000000000000     
 PAO| norm of gradient:  0.78384916081372813     
 PAO|LS| adapt:  T F F
 PAO|LS| adapt: scan_steps:    0.0000000000000000        0.0000000000000000        0.0000000000000000     
 PAO|LS| adapt: energies:   -7.6185343746900021        0.0000000000000000        0.0000000000000000     
 PAO| ======================= Iteration:         2 =============================

     Lanczos converged:  T threshold:   0.100E-02
     Est. extremal eigenvalues:    0.328E+01   0.124E+00
     Est. condition number :    0.265E+02

 Order=           3
     NS sqrt iter    1 1.00000000   0.805E+00       0.001       59.498
     NS sqrt iter    2 1.00000000   0.424E+00       0.001       98.877
     NS sqrt iter    3 1.00000000   0.153E+00       0.001       99.203
     NS sqrt iter    4 1.00000000   0.147E-01       0.001       98.887
     NS sqrt iter    5 1.00000000   0.205E-04       0.001       77.361
     Symmetrizing Results
     Final NS sqrt iter    5 1.00000000   0.650E-09

     Est. extremal eigenvalues     -0.92393     1.87503  converged:  T
     TRS4 it   1 1.00000000   0.897E+00       0.000       16.128   0.100E-07
     TRS4 it   2 1.00000000   0.686E+00       0.001       32.256   0.100E-07
     TRS4 it   3 1.00000000   0.489E+00       0.001       32.256   0.100E-07
     TRS4 it   4 1.00000000   0.297E+00       0.001       32.256   0.100E-07
     TRS4 it   5 1.00000000   0.139E+00       0.001       32.256   0.100E-07
     TRS4 it   6 1.00000000   0.392E-01       0.001       32.256   0.100E-07
     TRS4 it   7 1.00000000   0.434E-02       0.001       32.256   0.100E-07
     TRS4 it   8 1.00000000   0.753E-04       0.001       32.256   0.100E-07
     TRS4 it   9 1.00000000   0.253E-07       0.001       32.256   0.100E-07
     Final TRS4 iteration    9 1.00000000   0.253E-07
     Chemical potential (mu):      -0.05225
 
 PAO| energy:  -7.6740702572677257      penalty:   2.2573065256187458E-008
 PAO|LS| adapt:  T T F
 PAO|LS| adapt: scan_steps:    0.0000000000000000       0.10000000000000001        0.0000000000000000     
 PAO|LS| adapt: energies:   -7.6185343746900021       -7.6740702572677257        0.0000000000000000     
 PAO| ======================= Iteration:         3 =============================

     Lanczos converged:  T threshold:   0.100E-02
     Est. extremal eigenvalues:    0.319E+01   0.135E+00
     Est. condition number :    0.236E+02

 Order=           3
     NS sqrt iter    1 1.00000000   0.787E+00       0.001       58.484
     NS sqrt iter    2 1.00000000   0.408E+00       0.001       98.638
     NS sqrt iter    3 1.00000000   0.136E+00       0.001       99.963
     NS sqrt iter    4 1.00000000   0.102E-01       0.001       98.379
     NS sqrt iter    5 1.00000000   0.709E-05       0.001       78.091
     Symmetrizing Results
     Final NS sqrt iter    5 1.00000000   0.781E-10

     Est. extremal eigenvalues     -0.92737     1.82684  converged:  T
     TRS4 it   1 1.00000000   0.894E+00       0.000       16.128   0.100E-07
     TRS4 it   2 1.00000000   0.668E+00       0.001       32.256   0.100E-07
     TRS4 it   3 1.00000000   0.473E+00       0.001       32.256   0.100E-07
     TRS4 it   4 1.00000000   0.278E+00       0.001       32.256   0.100E-07
     TRS4 it   5 1.00000000   0.121E+00       0.001       32.256   0.100E-07
     TRS4 it   6 1.00000000   0.295E-01       0.001       32.256   0.100E-07
     TRS4 it   7 1.00000000   0.246E-02       0.001       32.256   0.100E-07
     TRS4 it   8 1.00000000   0.243E-04       0.001       32.256   0.100E-07
     TRS4 it   9 1.00000000   0.263E-08       0.001       32.256   0.100E-07
     Final TRS4 iteration    9 1.00000000   0.263E-08
     Chemical potential (mu):      -0.03945
 
 PAO| energy:  -7.7171369705740576      penalty:   3.6116937107484801E-007
 PAO|LS| adapt:  T T F
 PAO|LS| adapt: scan_steps:    0.0000000000000000       0.20000000000000001        0.0000000000000000     
 PAO|LS| adapt: energies:   -7.6185343746900021       -7.7171369705740576        0.0000000000000000     
 PAO| ======================= Iteration:         4 =============================

     Lanczos converged:  T threshold:   0.100E-02
     Est. extremal eigenvalues:    0.299E+01   0.154E+00
     Est. condition number :    0.194E+02

 Order=           3
     NS sqrt iter    1 1.00000000   0.750E+00       0.001       59.224
     NS sqrt iter    2 1.00000000   0.373E+00       0.001       98.666
     NS sqrt iter    3 1.00000000   0.106E+00       0.001       99.133
     NS sqrt iter    4 1.00000000   0.498E-02       0.001       99.101
     NS sqrt iter    5 1.00000000   0.976E-06       0.001       78.199
     Symmetrizing Results
     Final NS sqrt iter    5 1.00000000   0.157E-11

     Est. extremal eigenvalues     -0.93269     1.75444  converged:  T
     TRS4 it   1 1.00000000   0.889E+00       0.000       16.128   0.100E-07
     TRS4 it   2 1.00000000   0.639E+00       0.001       32.256   0.100E-07
     TRS4 it   3 1.00000000   0.444E+00       0.001       32.256   0.100E-07
     TRS4 it   4 1.00000000   0.241E+00       0.001       32.256   0.100E-07
     TRS4 it   5 1.00000000   0.890E-01       0.001       32.256   0.100E-07
     TRS4 it   6 1.00000000   0.155E-01       0.001       32.256   0.100E-07
     TRS4 it   7 1.00000000   0.649E-03       0.001       32.256   0.100E-07
     TRS4 it   8 1.00000000   0.164E-05       0.001       32.256   0.100E-07
     TRS4 it   9 1.00000000   0.120E-10       0.001       32.256   0.100E-07
     Final TRS4 iteration    9 1.00000000   0.120E-10
     Chemical potential (mu):      -0.01123
 
 PAO| energy:  -7.7642864378168381      penalty:   5.7787125530066911E-006
 PAO|LS| Need extra step
 PAO|LS| adapt:  T T F
 PAO|LS| adapt: scan_steps:    0.0000000000000000       0.40000000000000002        0.0000000000000000     
 PAO|LS| adapt: energies:   -7.6185343746900021       -7.7642864378168381        0.0000000000000000     
 PAO| ======================= Iteration:         5 =============================

     Lanczos converged:  T threshold:   0.100E-02
     Est. extremal eigenvalues:    0.263E+01   0.184E+00
     Est. condition number :    0.143E+02

 Order=           3
     NS sqrt iter    1 1.00000000   0.684E+00       0.001       57.831
     NS sqrt iter    2 1.00000000   0.310E+00       0.001       99.717
     NS sqrt iter    3 1.00000000   0.654E-01       0.001       98.854
     NS sqrt iter    4 1.00000000   0.134E-02       0.001      100.707
     NS sqrt iter    5 1.00000000   0.219E-07       0.001       53.705
     Symmetrizing Results
     Final NS sqrt iter    5 1.00000000   0.333E-08

     Est. extremal eigenvalues     -0.93390     1.66950  converged:  T
     TRS4 it   1 1.00000000   0.881E+00       0.000       16.128   0.100E-07
     TRS4 it   2 1.00000000   0.599E+00       0.001       32.256   0.100E-07
     TRS4 it   3 1.00000000   0.394E+00       0.001       32.256   0.100E-07
     TRS4 it   4 1.00000000   0.182E+00       0.001       32.256   0.100E-07
     TRS4 it   5 1.00000000   0.475E-01       0.001       32.256   0.100E-07
     TRS4 it   6 1.00000000   0.402E-02       0.001       32.256   0.100E-07
     TRS4 it   7 1.00000000   0.372E-04       0.001       32.256   0.100E-07
     TRS4 it   8 1.00000000   0.401E-08       0.001       32.256   0.100E-07
     Final TRS4 iteration    8 1.00000000   0.401E-08
     Chemical potential (mu):       0.03789
 
 PAO| energy:  -7.7093536433727445      penalty:   9.2459421774588430E-005
 PAO|LS| Need extra step
 PAO|LS| adapt:  T T T
 PAO|LS| adapt: scan_steps:    0.0000000000000000       0.40000000000000002       0.80000000000000004     
 PAO|LS| adapt: energies:   -7.6185343746900021       -7.7642864378168381       -7.7093536433727445     
 PAO|LS| adapt: suggested step_size:   0.49050933865365848     
 PAO|LS| adapt: predicted energy  -7.7694239327827654     
 PAO| ======================= Iteration:         6 =============================

     Lanczos converged:  T threshold:   0.100E-02
     Est. extremal eigenvalues:    0.290E+01   0.162E+00
     Est. condition number :    0.179E+02

 Order=           3
     NS sqrt iter    1 1.00000000   0.733E+00       0.001       58.129
     NS sqrt iter    2 1.00000000   0.358E+00       0.001       98.435
     NS sqrt iter    3 1.00000000   0.950E-01       0.001       98.135
     NS sqrt iter    4 1.00000000   0.366E-02       0.001       97.509
     NS sqrt iter    5 1.00000000   0.410E-06       0.001       76.553
     Symmetrizing Results
     Final NS sqrt iter    5 1.00000000   0.966E-11

     Est. extremal eigenvalues     -0.93417     1.72962  converged:  T
     TRS4 it   1 1.00000000   0.887E+00       0.000       16.128   0.100E-07
     TRS4 it   2 1.00000000   0.629E+00       0.001       32.256   0.100E-07
     TRS4 it   3 1.00000000   0.431E+00       0.001       32.256   0.100E-07
     TRS4 it   4 1.00000000   0.225E+00       0.001       32.256   0.100E-07
     TRS4 it   5 1.00000000   0.769E-01       0.001       32.256   0.100E-07
     TRS4 it   6 1.00000000   0.113E-01       0.001       32.256   0.100E-07
     TRS4 it   7 1.00000000   0.332E-03       0.001       32.256   0.100E-07
     TRS4 it   8 1.00000000   0.412E-06       0.001       32.256   0.100E-07
     TRS4 it   9 1.00000000   0.749E-12       0.001       32.256   0.100E-07
     Final TRS4 iteration    9 1.00000000   0.749E-12
     Chemical potential (mu):       0.00239
 
 PAO| energy:  -7.7686716469413613      penalty:   1.3067132170237354E-005
 PAO|CG| warming up with steepest descent
 PAO|CG| beta:    0.0000000000000000     
 PAO| norm of gradient:  0.41629775914162559     
 PAO| energy improvement: -0.15013727225135920     
 PAO| step      6                   -7.768671647  0.260E-01  0.491E+00     0.092
 PAO|LS| adapt:  T F F
 PAO|LS| adapt: scan_steps:    0.0000000000000000        0.0000000000000000        0.0000000000000000     
 PAO|LS| adapt: energies:   -7.7686716469413613        0.0000000000000000        0.0000000000000000     
 PAO| ======================= Iteration:         7 =============================

     Lanczos converged:  T threshold:   0.100E-02
     Est. extremal eigenvalues:    0.281E+01   0.176E+00
     Est. condition number :    0.160E+02

 Order=           3
     NS sqrt iter    1 1.00000000   0.715E+00       0.001       58.053
     NS sqrt iter    2 1.00000000   0.337E+00       0.001       98.611
     NS sqrt iter    3 1.00000000   0.794E-01       0.001       99.150
     NS sqrt iter    4 1.00000000   0.223E-02       0.001       99.990
     NS sqrt iter    5 1.00000000   0.103E-06       0.001       73.277
     Symmetrizing Results
     Final NS sqrt iter    5 1.00000000   0.998E-09

     Est. extremal eigenvalues     -0.93587     1.71636  converged:  T
     TRS4 it   1 1.00000000   0.886E+00       0.000       16.128   0.100E-07
     TRS4 it   2 1.00000000   0.627E+00       0.001       32.256   0.100E-07
     TRS4 it   3 1.00000000   0.431E+00       0.001       32.256   0.100E-07
     TRS4 it   4 1.00000000   0.226E+00       0.001       32.256   0.100E-07
     TRS4 it   5 1.00000000   0.777E-01       0.001       32.256   0.100E-07
     TRS4 it   6 1.00000000   0.113E-01       0.001       32.256   0.100E-07
     TRS4 it   7 1.00000000   0.315E-03       0.001       32.256   0.100E-07
     TRS4 it   8 1.00000000   0.352E-06       0.001       32.256   0.100E-07
     TRS4 it   9 1.00000000   0.539E-12       0.001       32.256   0.100E-07
     Final TRS4 iteration    9 1.00000000   0.539E-12
     Chemical potential (mu):       0.00400
 
 PAO| energy:  -7.7627795083585447      penalty:   1.9706621911689130E-005
 PAO|LS| adapt:  T F T
 PAO|LS| adapt: scan_steps:    0.0000000000000000        0.0000000000000000       0.49050933865365848     
 PAO|LS| adapt: energies:   -7.7686716469413613        0.0000000000000000       -7.7627795083585447     
 PAO| ======================= Iteration:         8 =============================

     Lanczos converged:  T threshold:   0.100E-02
     Est. extremal eigenvalues:    0.286E+01   0.169E+00
     Est. condition number :    0.170E+02

 Order=           3
     NS sqrt iter    1 1.00000000   0.724E+00       0.001       59.125
     NS sqrt iter    2 1.00000000   0.347E+00       0.001       99.870
     NS sqrt iter    3 1.00000000   0.871E-01       0.001       98.852
     NS sqrt iter    4 1.00000000   0.287E-02       0.001       99.522
     NS sqrt iter    5 1.00000000   0.209E-06       0.001       76.289
     Symmetrizing Results
     Final NS sqrt iter    5 1.00000000   0.113E-08

     Est. extremal eigenvalues     -0.93598     1.72239  converged:  T
     TRS4 it   1 1.00000000   0.886E+00       0.000       16.128   0.100E-07
     TRS4 it   2 1.00000000   0.627E+00       0.001       32.256   0.100E-07
     TRS4 it   3 1.00000000   0.431E+00       0.001       32.256   0.100E-07
     TRS4 it   4 1.00000000   0.225E+00       0.001       32.256   0.100E-07
     TRS4 it   5 1.00000000   0.770E-01       0.001       32.256   0.100E-07
     TRS4 it   6 1.00000000   0.113E-01       0.001       32.256   0.100E-07
     TRS4 it   7 1.00000000   0.332E-03       0.001       32.256   0.100E-07
     TRS4 it   8 1.00000000   0.406E-06       0.001       32.256   0.100E-07
     TRS4 it   9 1.00000000   0.722E-12       0.001       32.256   0.100E-07
     Final TRS4 iteration    9 1.00000000   0.722E-12
     Chemical potential (mu):       0.00271
 
 PAO| energy:  -7.7882156790883252      penalty:   1.4154500683326098E-005
 PAO|LS| adapt:  T T T
 PAO|LS| adapt: scan_steps:    0.0000000000000000       0.24525466932682924       0.49050933865365848     
 PAO|LS| adapt: energies:   -7.7686716469413613       -7.7882156790883252       -7.7627795083585447     
 PAO|LS| adapt: suggested step_size:   0.22919121910500226     
 PAO|LS| adapt: predicted energy  -7.7883121584694157     
 PAO| ======================= Iteration:         9 =============================

     Lanczos converged:  T threshold:   0.100E-02
     Est. extremal eigenvalues:    0.286E+01   0.168E+00
     Est. condition number :    0.170E+02

 Order=           3
     NS sqrt iter    1 1.00000000   0.725E+00       0.001       59.452
     NS sqrt iter    2 1.00000000   0.348E+00       0.001       98.041
     NS sqrt iter    3 1.00000000   0.876E-01       0.001       99.735
     NS sqrt iter    4 1.00000000   0.292E-02       0.001       99.051
     NS sqrt iter    5 1.00000000   0.219E-06       0.001       74.996
     Symmetrizing Results
     Final NS sqrt iter    5 1.00000000   0.121E-08

     Est. extremal eigenvalues     -0.93592     1.72282  converged:  T
     TRS4 it   1 1.00000000   0.886E+00       0.000       16.128   0.100E-07
     TRS4 it   2 1.00000000   0.627E+00       0.001       32.256   0.100E-07
     TRS4 it   3 1.00000000   0.431E+00       0.001       32.256   0.100E-07
     TRS4 it   4 1.00000000   0.225E+00       0.001       32.256   0.100E-07
     TRS4 it   5 1.00000000   0.770E-01       0.001       32.256   0.100E-07
     TRS4 it   6 1.00000000   0.113E-01       0.001       32.256   0.100E-07
     TRS4 it   7 1.00000000   0.333E-03       0.001       32.256   0.100E-07
     TRS4 it   8 1.00000000   0.408E-06       0.001       32.256   0.100E-07
     TRS4 it   9 1.00000000   0.730E-12       0.001       32.256   0.100E-07
     Final TRS4 iteration    9 1.00000000   0.730E-12
     Chemical potential (mu):       0.00266
 
 PAO| energy:  -7.7883358128408631      penalty:   1.3984666158923292E-005
 PAO|CG| trace_G_new    3.6598036042612622E-002
 PAO|CG| trace_G_prev   0.17330382426633892     
 PAO|CG| trace_G_mix   -1.4251962887311285E-003
 PAO|CG| trace_D   0.17330382426633892     
 PAO|CG| trace_D_Gnew   1.4251962887311285E-003
 PAO|CG| beta:   0.21940215394732673     
 PAO| norm of gradient:  0.19130613174337258     
 PAO| energy improvement:  -1.9664165899501818E-002
 PAO| step      9                   -7.788335813  0.120E-01  0.229E+00     0.058
 PAO|LS| adapt:  T F F
 PAO|LS| adapt: scan_steps:    0.0000000000000000        0.0000000000000000        0.0000000000000000     
 PAO|LS| adapt: energies:   -7.7883358128408631        0.0000000000000000        0.0000000000000000     
 PAO| ======================= Iteration:        10 =============================

     Lanczos converged:  T threshold:   0.100E-02
     Est. extremal eigenvalues:    0.282E+01   0.174E+00
     Est. condition number :    0.162E+02

 Order=           3
     NS sqrt iter    1 1.00000000   0.717E+00       0.001       58.590
     NS sqrt iter    2 1.00000000   0.340E+00       0.001       99.382
     NS sqrt iter    3 1.00000000   0.819E-01       0.001       98.691
     NS sqrt iter    4 1.00000000   0.240E-02       0.001      101.348
     NS sqrt iter    5 1.00000000   0.121E-06       0.001       73.486
     Symmetrizing Results
     Final NS sqrt iter    5 1.00000000   0.117E-08

     Est. extremal eigenvalues     -0.93681     1.71615  converged:  T
     TRS4 it   1 1.00000000   0.884E+00       0.000       16.128   0.100E-07
     TRS4 it   2 1.00000000   0.625E+00       0.001       32.256   0.100E-07
     TRS4 it   3 1.00000000   0.428E+00       0.001       32.256   0.100E-07
     TRS4 it   4 1.00000000   0.222E+00       0.001       32.256   0.100E-07
     TRS4 it   5 1.00000000   0.748E-01       0.001       32.256   0.100E-07
     TRS4 it   6 1.00000000   0.106E-01       0.001       32.256   0.100E-07
     TRS4 it   7 1.00000000   0.289E-03       0.001       32.256   0.100E-07
     TRS4 it   8 1.00000000   0.300E-06       0.001       32.256   0.100E-07
     TRS4 it   9 1.00000000   0.391E-12       0.001       32.256   0.100E-07
     Final TRS4 iteration    9 1.00000000   0.391E-12
     Chemical potential (mu):       0.00570
 
 PAO| energy:  -7.7933220693632590      penalty:   1.4512219948893874E-005
 PAO|LS| adapt:  T T F
 PAO|LS| adapt: scan_steps:    0.0000000000000000       0.22919121910500226        0.0000000000000000     
 PAO|LS| adapt: energies:   -7.7883358128408631       -7.7933220693632590        0.0000000000000000     
 PAO| ======================= Iteration:        11 =============================

     Lanczos converged:  T threshold:   0.100E-02
     Est. extremal eigenvalues:    0.279E+01   0.180E+00
     Est. condition number :    0.155E+02

 Order=           3
     NS sqrt iter    1 1.00000000   0.709E+00       0.001       58.971
     NS sqrt iter    2 1.00000000   0.331E+00       0.001       98.911
     NS sqrt iter    3 1.00000000   0.766E-01       0.001       98.918
     NS sqrt iter    4 1.00000000   0.196E-02       0.001      101.044
     NS sqrt iter    5 1.00000000   0.652E-07       0.001       69.081
     Symmetrizing Results
     Final NS sqrt iter    5 1.00000000   0.720E-09

     Est. extremal eigenvalues     -0.93672     1.71057  converged:  T
     TRS4 it   1 1.00000000   0.882E+00       0.000       16.128   0.100E-07
     TRS4 it   2 1.00000000   0.623E+00       0.001       32.256   0.100E-07
     TRS4 it   3 1.00000000   0.426E+00       0.001       32.256   0.100E-07
     TRS4 it   4 1.00000000   0.219E+00       0.001       32.256   0.100E-07
     TRS4 it   5 1.00000000   0.726E-01       0.001       32.256   0.100E-07
     TRS4 it   6 1.00000000   0.998E-02       0.001       32.256   0.100E-07
     TRS4 it   7 1.00000000   0.250E-03       0.001       32.256   0.100E-07
     TRS4 it   8 1.00000000   0.218E-06       0.001       32.256   0.100E-07
     TRS4 it   9 1.00000000   0.203E-12       0.001       32.256   0.100E-07
     Final TRS4 iteration    9 1.00000000   0.203E-12
     Chemical potential (mu):       0.00888
 
 PAO| energy:  -7.7918910042341381      penalty:   1.5699752560205267E-005
 PAO|LS| adapt:  T T T
 PAO|LS| adapt: scan_steps:    0.0000000000000000       0.22919121910500226       0.45838243821000452     
 PAO|LS| adapt: energies:   -7.7883358128408631       -7.7933220693632590       -7.7918910042341381     
 PAO|LS| adapt: suggested step_size:   0.29267710105262945     
 PAO|LS| adapt: predicted energy  -7.7935682660347272     
 PAO| ======================= Iteration:        12 =============================

     Lanczos converged:  T threshold:   0.100E-02
     Est. extremal eigenvalues:    0.281E+01   0.176E+00
     Est. condition number :    0.160E+02

 Order=           3
     NS sqrt iter    1 1.00000000   0.715E+00       0.001       58.382
     NS sqrt iter    2 1.00000000   0.337E+00       0.001       98.926
     NS sqrt iter    3 1.00000000   0.804E-01       0.001       99.121
     NS sqrt iter    4 1.00000000   0.227E-02       0.001       97.280
     NS sqrt iter    5 1.00000000   0.102E-06       0.001       71.971
     Symmetrizing Results
     Final NS sqrt iter    5 1.00000000   0.968E-09

     Est. extremal eigenvalues     -0.93688     1.71450  converged:  T
     TRS4 it   1 1.00000000   0.883E+00       0.000       16.128   0.100E-07
     TRS4 it   2 1.00000000   0.625E+00       0.001       32.256   0.100E-07
     TRS4 it   3 1.00000000   0.428E+00       0.001       32.256   0.100E-07
     TRS4 it   4 1.00000000   0.221E+00       0.001       32.256   0.100E-07
     TRS4 it   5 1.00000000   0.742E-01       0.001       32.256   0.100E-07
     TRS4 it   6 1.00000000   0.105E-01       0.001       32.256   0.100E-07
     TRS4 it   7 1.00000000   0.277E-03       0.001       32.256   0.100E-07
     TRS4 it   8 1.00000000   0.275E-06       0.001       32.256   0.100E-07
     TRS4 it   9 1.00000000   0.327E-12       0.001       32.256   0.100E-07
     Final TRS4 iteration    9 1.00000000   0.327E-12
     Chemical potential (mu):       0.00657
 
 PAO| energy:  -7.7935523237686146      penalty:   1.4767616594004481E-005
 PAO|CG| trace_G_new    1.1710638073659524E-002
 PAO|CG| trace_G_prev    3.6598036042612622E-002
 PAO|CG| trace_G_mix   -4.5931861195693414E-004
 PAO|CG| trace_D    4.4315032845058382E-002
 PAO|CG| trace_D_Gnew   2.1057908000136514E-004
 PAO|CG| beta:   0.33253032133873167     
 PAO| norm of gradient:  0.10821570160406263     
 PAO| energy improvement:  -5.2165109277515498E-003
 PAO| step     12                   -7.793552324  0.676E-02  0.293E+00     0.058
 PAO|LS| adapt:  T F F
 PAO|LS| adapt: scan_steps:    0.0000000000000000        0.0000000000000000        0.0000000000000000     
 PAO|LS| adapt: energies:   -7.7935523237686146        0.0000000000000000        0.0000000000000000     
 PAO| ======================= Iteration:        13 =============================

     Lanczos converged:  T threshold:   0.100E-02
     Est. extremal eigenvalues:    0.278E+01   0.180E+00
     Est. condition number :    0.154E+02

 Order=           3
     NS sqrt iter    1 1.00000000   0.707E+00       0.001       58.820
     NS sqrt iter    2 1.00000000   0.330E+00       0.001       99.016
     NS sqrt iter    3 1.00000000   0.761E-01       0.001       99.974
     NS sqrt iter    4 1.00000000   0.193E-02       0.001      101.586
     NS sqrt iter    5 1.00000000   0.631E-07       0.001       69.164
     Symmetrizing Results
     Final NS sqrt iter    5 1.00000000   0.705E-09

     Est. extremal eigenvalues     -0.93736     1.70667  converged:  T
     TRS4 it   1 1.00000000   0.882E+00       0.000       16.128   0.100E-07
     TRS4 it   2 1.00000000   0.621E+00       0.001       32.256   0.100E-07
     TRS4 it   3 1.00000000   0.423E+00       0.001       32.256   0.100E-07
     TRS4 it   4 1.00000000   0.216E+00       0.001       32.256   0.100E-07
     TRS4 it   5 1.00000000   0.705E-01       0.001       32.256   0.100E-07
     TRS4 it   6 1.00000000   0.940E-02       0.001       32.256   0.100E-07
     TRS4 it   7 1.00000000   0.221E-03       0.001       32.256   0.100E-07
     TRS4 it   8 1.00000000   0.171E-06       0.001       32.256   0.100E-07
     TRS4 it   9 1.00000000   0.124E-12       0.001       32.256   0.100E-07
     Final TRS4 iteration    9 1.00000000   0.124E-12
     Chemical potential (mu):       0.01101
 
 PAO| energy:  -7.7956022753078216      penalty:   1.5061181847926945E-005
 PAO|LS| adapt:  T T F
 PAO|LS| adapt: scan_steps:    0.0000000000000000       0.29267710105262945        0.0000000000000000     
 PAO|LS| adapt: energies:   -7.7935523237686146       -7.7956022753078216        0.0000000000000000     
 PAO| ======================= Iteration:        14 =============================

     Lanczos converged:  T threshold:   0.100E-02
     Est. extremal eigenvalues:    0.274E+01   0.184E+00
     Est. condition number :    0.149E+02

 Order=           3
     NS sqrt iter    1 1.00000000   0.700E+00       0.001       59.348
     NS sqrt iter    2 1.00000000   0.323E+00       0.001       99.598
     NS sqrt iter    3 1.00000000   0.719E-01       0.001       99.755
     NS sqrt iter    4 1.00000000   0.164E-02       0.001      101.076
     NS sqrt iter    5 1.00000000   0.390E-07       0.001       65.194
     Symmetrizing Results
     Final NS sqrt iter    5 1.00000000   0.458E-09

     Est. extremal eigenvalues     -0.93735     1.69915  converged:  T
     TRS4 it   1 1.00000000   0.881E+00       0.000       16.128   0.100E-07
     TRS4 it   2 1.00000000   0.618E+00       0.001       32.256   0.100E-07
     TRS4 it   3 1.00000000   0.419E+00       0.001       32.256   0.100E-07
     TRS4 it   4 1.00000000   0.211E+00       0.001       32.256   0.100E-07
     TRS4 it   5 1.00000000   0.670E-01       0.001       32.256   0.100E-07
     TRS4 it   6 1.00000000   0.844E-02       0.001       32.256   0.100E-07
     TRS4 it   7 1.00000000   0.176E-03       0.001       32.256   0.100E-07
     TRS4 it   8 1.00000000   0.106E-06       0.001       32.256   0.100E-07
     TRS4 it   9 1.00000000   0.466E-13       0.001       32.256   0.100E-07
     Final TRS4 iteration    9 1.00000000   0.466E-13
     Chemical potential (mu):       0.01536
 
 PAO| energy:  -7.7949874662139687      penalty:   1.5824719540052832E-005
 PAO|LS| adapt:  T T T
 PAO|LS| adapt: scan_steps:    0.0000000000000000       0.29267710105262945       0.58535420210525890     
 PAO|LS| adapt: energies:   -7.7935523237686146       -7.7956022753078216       -7.7949874662139687     
 PAO|LS| adapt: suggested step_size:   0.37148968280814099     
 PAO|LS| adapt: predicted energy  -7.7956988897003541     
 PAO| ======================= Iteration:        15 =============================

     Lanczos converged:  T threshold:   0.100E-02
     Est. extremal eigenvalues:    0.277E+01   0.181E+00
     Est. condition number :    0.153E+02

 Order=           3
     NS sqrt iter    1 1.00000000   0.705E+00       0.001       58.638
     NS sqrt iter    2 1.00000000   0.328E+00       0.001       99.745
     NS sqrt iter    3 1.00000000   0.749E-01       0.001       99.709
     NS sqrt iter    4 1.00000000   0.185E-02       0.001      101.045
     NS sqrt iter    5 1.00000000   0.554E-07       0.001       68.024
     Symmetrizing Results
     Final NS sqrt iter    5 1.00000000   0.716E-09

     Est. extremal eigenvalues     -0.93740     1.70462  converged:  T
     TRS4 it   1 1.00000000   0.882E+00       0.000       16.128   0.100E-07
     TRS4 it   2 1.00000000   0.620E+00       0.001       32.256   0.100E-07
     TRS4 it   3 1.00000000   0.422E+00       0.001       32.256   0.100E-07
     TRS4 it   4 1.00000000   0.215E+00       0.001       32.256   0.100E-07
     TRS4 it   5 1.00000000   0.696E-01       0.001       32.256   0.100E-07
     TRS4 it   6 1.00000000   0.913E-02       0.001       32.256   0.100E-07
     TRS4 it   7 1.00000000   0.208E-03       0.001       32.256   0.100E-07
     TRS4 it   8 1.00000000   0.150E-06       0.001       32.256   0.100E-07
     TRS4 it   9 1.00000000   0.953E-13       0.001       32.256   0.100E-07
     Final TRS4 iteration    9 1.00000000   0.953E-13
     Chemical potential (mu):       0.01219
 
 PAO| energy:  -7.7956957920808003      penalty:   1.5217508400112838E-005
 PAO|CG| trace_G_new    2.6100431268311006E-003
 PAO|CG| trace_G_prev    1.1710638073659524E-002
 PAO|CG| trace_G_mix    6.2756123629751043E-005
 PAO|CG| trace_D    1.6470787660694378E-002
 PAO|CG| trace_D_Gnew   3.3259839686068006E-005
 PAO|CG| beta:   0.21751906148742697     
 PAO| norm of gradient:   5.1088581178489391E-002
 PAO| energy improvement:  -2.1434683121857034E-003
 PAO| step     15                   -7.795695792  0.319E-02  0.371E+00     0.058
 PAO|LS| adapt:  T F F
 PAO|LS| adapt: scan_steps:    0.0000000000000000        0.0000000000000000        0.0000000000000000     
 PAO|LS| adapt: energies:   -7.7956957920808003        0.0000000000000000        0.0000000000000000     
 PAO| ======================= Iteration:        16 =============================

     Lanczos converged:  T threshold:   0.100E-02
     Est. extremal eigenvalues:    0.276E+01   0.182E+00
     Est. condition number :    0.152E+02

 Order=           3
     NS sqrt iter    1 1.00000000   0.703E+00       0.001       58.892
     NS sqrt iter    2 1.00000000   0.327E+00       0.001       99.223
     NS sqrt iter    3 1.00000000   0.742E-01       0.001       98.594
     NS sqrt iter    4 1.00000000   0.179E-02       0.001      101.465
     NS sqrt iter    5 1.00000000   0.503E-07       0.001       66.341
     Symmetrizing Results
     Final NS sqrt iter    5 1.00000000   0.665E-09

     Est. extremal eigenvalues     -0.93743     1.70336  converged:  T
     TRS4 it   1 1.00000000   0.882E+00       0.000       16.128   0.100E-07
     TRS4 it   2 1.00000000   0.619E+00       0.001       32.256   0.100E-07
     TRS4 it   3 1.00000000   0.421E+00       0.001       32.256   0.100E-07
     TRS4 it   4 1.00000000   0.213E+00       0.001       32.256   0.100E-07
     TRS4 it   5 1.00000000   0.683E-01       0.001       32.256   0.100E-07
     TRS4 it   6 1.00000000   0.883E-02       0.001       32.256   0.100E-07
     TRS4 it   7 1.00000000   0.196E-03       0.001       32.256   0.100E-07
     TRS4 it   8 1.00000000   0.134E-06       0.001       32.256   0.100E-07
     TRS4 it   9 1.00000000   0.761E-13       0.001       32.256   0.100E-07
     Final TRS4 iteration    9 1.00000000   0.761E-13
     Chemical potential (mu):       0.01300
 
 PAO| energy:  -7.7958180470163549      penalty:   1.4995854058413664E-005
 PAO|LS| adapt:  T T F
 PAO|LS| adapt: scan_steps:    0.0000000000000000       0.37148968280814099        0.0000000000000000     
 PAO|LS| adapt: energies:   -7.7956957920808003       -7.7958180470163549        0.0000000000000000     
 PAO| ======================= Iteration:        17 =============================

     Lanczos converged:  T threshold:   0.100E-02
     Est. extremal eigenvalues:    0.275E+01   0.183E+00
     Est. condition number :    0.151E+02

 Order=           3
     NS sqrt iter    1 1.00000000   0.702E+00       0.001       58.817
     NS sqrt iter    2 1.00000000   0.326E+00       0.001       98.846
     NS sqrt iter    3 1.00000000   0.735E-01       0.001       98.925
     NS sqrt iter    4 1.00000000   0.174E-02       0.001      101.865
     NS sqrt iter    5 1.00000000   0.458E-07       0.001       66.258
     Symmetrizing Results
     Final NS sqrt iter    5 1.00000000   0.493E-09

     Est. extremal eigenvalues     -0.93734     1.70215  converged:  T
     TRS4 it   1 1.00000000   0.882E+00       0.000       16.128   0.100E-07
     TRS4 it   2 1.00000000   0.618E+00       0.001       32.256   0.100E-07
     TRS4 it   3 1.00000000   0.419E+00       0.001       32.256   0.100E-07
     TRS4 it   4 1.00000000   0.211E+00       0.001       32.256   0.100E-07
     TRS4 it   5 1.00000000   0.672E-01       0.001       32.256   0.100E-07
     TRS4 it   6 1.00000000   0.853E-02       0.001       32.256   0.100E-07
     TRS4 it   7 1.00000000   0.184E-03       0.001       32.256   0.100E-07
     TRS4 it   8 1.00000000   0.119E-06       0.001       32.256   0.100E-07
     TRS4 it   9 1.00000000   0.618E-13       0.001       32.256   0.100E-07
     Final TRS4 iteration    9 1.00000000   0.618E-13
     Chemical potential (mu):       0.01380
 
 PAO| energy:  -7.7942456429871374      penalty:   1.4900462145040889E-005
 PAO|LS| adapt:  T T T
 PAO|LS| adapt: scan_steps:    0.0000000000000000       0.37148968280814099       0.74297936561628197     
 PAO|LS| adapt: energies:   -7.7956957920808003       -7.7958180470163549       -7.7942456429871374     
 PAO|LS| adapt: suggested step_size:   0.21254459768248030     
 PAO|LS| adapt: predicted energy  -7.7959731617354198     
 PAO| ======================= Iteration:        18 =============================

     Lanczos converged:  T threshold:   0.100E-02
     Est. extremal eigenvalues:    0.276E+01   0.182E+00
     Est. condition number :    0.152E+02

 Order=           3
     NS sqrt iter    1 1.00000000   0.704E+00       0.001       58.250
     NS sqrt iter    2 1.00000000   0.328E+00       0.001       99.695
     NS sqrt iter    3 1.00000000   0.745E-01       0.001       99.817
     NS sqrt iter    4 1.00000000   0.182E-02       0.001      100.089
     NS sqrt iter    5 1.00000000   0.524E-07       0.001       67.256
     Symmetrizing Results
     Final NS sqrt iter    5 1.00000000   0.685E-09

     Est. extremal eigenvalues     -0.93744     1.70389  converged:  T
     TRS4 it   1 1.00000000   0.882E+00       0.000       16.128   0.100E-07
     TRS4 it   2 1.00000000   0.620E+00       0.001       32.256   0.100E-07
     TRS4 it   3 1.00000000   0.421E+00       0.001       32.256   0.100E-07
     TRS4 it   4 1.00000000   0.214E+00       0.001       32.256   0.100E-07
     TRS4 it   5 1.00000000   0.689E-01       0.001       32.256   0.100E-07
     TRS4 it   6 1.00000000   0.895E-02       0.001       32.256   0.100E-07
     TRS4 it   7 1.00000000   0.201E-03       0.001       32.256   0.100E-07
     TRS4 it   8 1.00000000   0.140E-06       0.001       32.256   0.100E-07
     TRS4 it   9 1.00000000   0.834E-13       0.001       32.256   0.100E-07
     Final TRS4 iteration    9 1.00000000   0.834E-13
     Chemical potential (mu):       0.01266
 
 PAO| energy:  -7.7959727220108688      penalty:   1.5075519967334010E-005
 PAO|CG| trace_G_new    7.1749902653616944E-004
 PAO|CG| trace_G_prev    2.6100431268311006E-003
 PAO|CG| trace_G_mix    1.1595570094435510E-006
 PAO|CG| trace_D    3.3748816049665340E-003
 PAO|CG| trace_D_Gnew  -1.6545063318990986E-006
 PAO|CG| beta:   0.27445503185859088     
 PAO| norm of gradient:   2.6786172300949783E-002
 PAO| energy improvement:  -2.7692993006844802E-004
 PAO| step     18                   -7.795972722  0.167E-02  0.213E+00     0.058
 PAO|LS| adapt:  T F F
 PAO|LS| adapt: scan_steps:    0.0000000000000000        0.0000000000000000        0.0000000000000000     
 PAO|LS| adapt: energies:   -7.7959727220108688        0.0000000000000000        0.0000000000000000     
 PAO| ======================= Iteration:        19 =============================

     Lanczos converged:  T threshold:   0.100E-02
     Est. extremal eigenvalues:    0.276E+01   0.181E+00
     Est. condition number :    0.152E+02

 Order=           3
     NS sqrt iter    1 1.00000000   0.704E+00       0.001       58.708
     NS sqrt iter    2 1.00000000   0.328E+00       0.001       99.013
     NS sqrt iter    3 1.00000000   0.747E-01       0.001      100.083
     NS sqrt iter    4 1.00000000   0.183E-02       0.001      102.444
     NS sqrt iter    5 1.00000000   0.531E-07       0.001       67.432
     Symmetrizing Results
     Final NS sqrt iter    5 1.00000000   0.699E-09

     Est. extremal eigenvalues     -0.93744     1.70413  converged:  T
     TRS4 it   1 1.00000000   0.882E+00       0.000       16.128   0.100E-07
     TRS4 it   2 1.00000000   0.620E+00       0.001       32.256   0.100E-07
     TRS4 it   3 1.00000000   0.421E+00       0.001       32.256   0.100E-07
     TRS4 it   4 1.00000000   0.214E+00       0.001       32.256   0.100E-07
     TRS4 it   5 1.00000000   0.688E-01       0.001       32.256   0.100E-07
     TRS4 it   6 1.00000000   0.895E-02       0.001       32.256   0.100E-07
     TRS4 it   7 1.00000000   0.202E-03       0.001       32.256   0.100E-07
     TRS4 it   8 1.00000000   0.143E-06       0.001       32.256   0.100E-07
     TRS4 it   9 1.00000000   0.873E-13       0.001       32.256   0.100E-07
     Final TRS4 iteration    9 1.00000000   0.873E-13
     Chemical potential (mu):       0.01236
 
 PAO| energy:  -7.7960891128309227      penalty:   1.4786798874606517E-005
 PAO|LS| adapt:  T T F
 PAO|LS| adapt: scan_steps:    0.0000000000000000       0.21254459768248030        0.0000000000000000     
 PAO|LS| adapt: energies:   -7.7959727220108688       -7.7960891128309227        0.0000000000000000     
 PAO| ======================= Iteration:        20 =============================

     Lanczos converged:  T threshold:   0.100E-02
     Est. extremal eigenvalues:    0.276E+01   0.181E+00
     Est. condition number :    0.153E+02

 Order=           3
     NS sqrt iter    1 1.00000000   0.704E+00       0.001       57.823
     NS sqrt iter    2 1.00000000   0.328E+00       0.001       98.409
     NS sqrt iter    3 1.00000000   0.749E-01       0.001      100.109
     NS sqrt iter    4 1.00000000   0.184E-02       0.001      100.465
     NS sqrt iter    5 1.00000000   0.538E-07       0.001       66.929
     Symmetrizing Results
     Final NS sqrt iter    5 1.00000000   0.714E-09

     Est. extremal eigenvalues     -0.93743     1.70437  converged:  T
     TRS4 it   1 1.00000000   0.882E+00       0.000       16.128   0.100E-07
     TRS4 it   2 1.00000000   0.620E+00       0.001       32.256   0.100E-07
     TRS4 it   3 1.00000000   0.421E+00       0.001       32.256   0.100E-07
     TRS4 it   4 1.00000000   0.214E+00       0.001       32.256   0.100E-07
     TRS4 it   5 1.00000000   0.687E-01       0.001       32.256   0.100E-07
     TRS4 it   6 1.00000000   0.894E-02       0.001       32.256   0.100E-07
     TRS4 it   7 1.00000000   0.203E-03       0.001       32.256   0.100E-07
     TRS4 it   8 1.00000000   0.145E-06       0.001       32.256   0.100E-07
     TRS4 it   9 1.00000000   0.912E-13       0.001       32.256   0.100E-07
     Final TRS4 iteration    9 1.00000000   0.912E-13
     Chemical potential (mu):       0.01206
 
 PAO| energy:  -7.7961327124616648      penalty:   1.4510387684634854E-005
 PAO|LS| adapt:  T T F
 PAO|LS| adapt: scan_steps:    0.0000000000000000       0.42508919536496059        0.0000000000000000     
 PAO|LS| adapt: energies:   -7.7959727220108688       -7.7961327124616648        0.0000000000000000     
 PAO| ======================= Iteration:        21 =============================

     Lanczos converged:  T threshold:   0.100E-02
     Est. extremal eigenvalues:    0.276E+01   0.181E+00
     Est. condition number :    0.153E+02

 Order=           3
     NS sqrt iter    1 1.00000000   0.704E+00       0.001       58.941
     NS sqrt iter    2 1.00000000   0.328E+00       0.001       99.053
     NS sqrt iter    3 1.00000000   0.754E-01       0.001       99.953
     NS sqrt iter    4 1.00000000   0.186E-02       0.001      101.121
     NS sqrt iter    5 1.00000000   0.553E-07       0.001       67.216
     Symmetrizing Results
     Final NS sqrt iter    5 1.00000000   0.741E-09

     Est. extremal eigenvalues     -0.93743     1.70487  converged:  T
     TRS4 it   1 1.00000000   0.882E+00       0.000       16.128   0.100E-07
     TRS4 it   2 1.00000000   0.620E+00       0.001       32.256   0.100E-07
     TRS4 it   3 1.00000000   0.421E+00       0.001       32.256   0.100E-07
     TRS4 it   4 1.00000000   0.213E+00       0.001       32.256   0.100E-07
     TRS4 it   5 1.00000000   0.685E-01       0.001       32.256   0.100E-07
     TRS4 it   6 1.00000000   0.893E-02       0.001       32.256   0.100E-07
     TRS4 it   7 1.00000000   0.204E-03       0.001       32.256   0.100E-07
     TRS4 it   8 1.00000000   0.150E-06       0.001       32.256   0.100E-07
     TRS4 it   9 1.00000000   0.982E-13       0.001       32.256   0.100E-07
     Final TRS4 iteration    9 1.00000000   0.982E-13
     Chemical potential (mu):       0.01147
 
 PAO| energy:  -7.7959992617769664      penalty:   1.3993913316554900E-005
 PAO|LS| Need extra step
 PAO|LS| adapt:  T T T
 PAO|LS| adapt: scan_steps:    0.0000000000000000       0.42508919536496059       0.85017839072992119     
 PAO|LS| adapt: energies:   -7.7959727220108688       -7.7961327124616648       -7.7959992617769664     
 PAO|LS| adapt: suggested step_size:   0.44431241673885896     
 PAO|LS| adapt: predicted energy  -7.7961330125044581     
 PAO| ======================= Iteration:        22 =============================

     Lanczos converged:  T threshold:   0.100E-02
     Est. extremal eigenvalues:    0.276E+01   0.181E+00
     Est. condition number :    0.153E+02

 Order=           3
     NS sqrt iter    1 1.00000000   0.704E+00       0.001       58.862
     NS sqrt iter    2 1.00000000   0.328E+00       0.001       98.847
     NS sqrt iter    3 1.00000000   0.750E-01       0.001       99.275
     NS sqrt iter    4 1.00000000   0.184E-02       0.001       99.790
     NS sqrt iter    5 1.00000000   0.538E-07       0.001       66.678
     Symmetrizing Results
     Final NS sqrt iter    5 1.00000000   0.713E-09

     Est. extremal eigenvalues     -0.93743     1.70439  converged:  T
     TRS4 it   1 1.00000000   0.882E+00       0.000       16.128   0.100E-07
     TRS4 it   2 1.00000000   0.620E+00       0.001       32.256   0.100E-07
     TRS4 it   3 1.00000000   0.421E+00       0.001       32.256   0.100E-07
     TRS4 it   4 1.00000000   0.214E+00       0.001       32.256   0.100E-07
     TRS4 it   5 1.00000000   0.687E-01       0.001       32.256   0.100E-07
     TRS4 it   6 1.00000000   0.894E-02       0.001       32.256   0.100E-07
     TRS4 it   7 1.00000000   0.203E-03       0.001       32.256   0.100E-07
     TRS4 it   8 1.00000000   0.145E-06       0.001       32.256   0.100E-07
     TRS4 it   9 1.00000000   0.913E-13       0.001       32.256   0.100E-07
     Final TRS4 iteration    9 1.00000000   0.913E-13
     Chemical potential (mu):       0.01203
 
 PAO| energy:  -7.7961330466654495      penalty:   1.4485989118170203E-005
 PAO|CG| trace_G_new    2.1716465689249111E-004
 PAO|CG| trace_G_prev    7.1749902653616944E-004
 PAO|CG| trace_G_mix    2.8418201929043013E-006
 PAO|CG| trace_D    9.7262206376918939E-004
 PAO|CG| trace_D_Gnew  -1.7747969077575052E-006
 PAO|CG| beta:   0.29870819161143863     
 PAO| norm of gradient:   1.4736507621973774E-002
 PAO| energy improvement:  -1.6032465458071243E-004
 PAO| step     22                   -7.796133047  0.921E-03  0.444E+00     0.075
 PAO|LS| adapt:  T F F
 PAO|LS| adapt: scan_steps:    0.0000000000000000        0.0000000000000000        0.0000000000000000     
 PAO|LS| adapt: energies:   -7.7961330466654495        0.0000000000000000        0.0000000000000000     
 PAO| ======================= Iteration:        23 =============================

     Lanczos converged:  T threshold:   0.100E-02
     Est. extremal eigenvalues:    0.276E+01   0.181E+00
     Est. condition number :    0.153E+02

 Order=           3
     NS sqrt iter    1 1.00000000   0.704E+00       0.001       58.721
     NS sqrt iter    2 1.00000000   0.328E+00       0.001       99.484
     NS sqrt iter    3 1.00000000   0.750E-01       0.001      100.784
     NS sqrt iter    4 1.00000000   0.184E-02       0.001      101.206
     NS sqrt iter    5 1.00000000   0.540E-07       0.001       66.836
     Symmetrizing Results
     Final NS sqrt iter    5 1.00000000   0.715E-09

     Est. extremal eigenvalues     -0.93743     1.70439  converged:  T
     TRS4 it   1 1.00000000   0.882E+00       0.000       16.128   0.100E-07
     TRS4 it   2 1.00000000   0.620E+00       0.001       32.256   0.100E-07
     TRS4 it   3 1.00000000   0.421E+00       0.001       32.256   0.100E-07
     TRS4 it   4 1.00000000   0.214E+00       0.001       32.256   0.100E-07
     TRS4 it   5 1.00000000   0.688E-01       0.001       32.256   0.100E-07
     TRS4 it   6 1.00000000   0.899E-02       0.001       32.256   0.100E-07
     TRS4 it   7 1.00000000   0.205E-03       0.001       32.256   0.100E-07
     TRS4 it   8 1.00000000   0.150E-06       0.001       32.256   0.100E-07
     TRS4 it   9 1.00000000   0.969E-13       0.001       32.256   0.100E-07
     Final TRS4 iteration    9 1.00000000   0.969E-13
     Chemical potential (mu):       0.01169
 
 PAO| energy:  -7.7961813956205281      penalty:   1.3806982062000631E-005
 PAO|LS| adapt:  T T F
 PAO|LS| adapt: scan_steps:    0.0000000000000000       0.44431241673885896        0.0000000000000000     
 PAO|LS| adapt: energies:   -7.7961330466654495       -7.7961813956205281        0.0000000000000000     
 PAO| ======================= Iteration:        24 =============================

     Lanczos converged:  T threshold:   0.100E-02
     Est. extremal eigenvalues:    0.277E+01   0.181E+00
     Est. condition number :    0.153E+02

 Order=           3
     NS sqrt iter    1 1.00000000   0.704E+00       0.001       58.800
     NS sqrt iter    2 1.00000000   0.328E+00       0.001       98.787
     NS sqrt iter    3 1.00000000   0.751E-01       0.001      102.049
     NS sqrt iter    4 1.00000000   0.184E-02       0.001      100.107
     NS sqrt iter    5 1.00000000   0.541E-07       0.001       66.328
     Symmetrizing Results
     Final NS sqrt iter    5 1.00000000   0.717E-09

     Est. extremal eigenvalues     -0.93743     1.70439  converged:  T
     TRS4 it   1 1.00000000   0.882E+00       0.000       16.128   0.100E-07
     TRS4 it   2 1.00000000   0.620E+00       0.001       32.256   0.100E-07
     TRS4 it   3 1.00000000   0.421E+00       0.001       32.256   0.100E-07
     TRS4 it   4 1.00000000   0.214E+00       0.001       32.256   0.100E-07
     TRS4 it   5 1.00000000   0.690E-01       0.001       32.256   0.100E-07
     TRS4 it   6 1.00000000   0.905E-02       0.001       32.256   0.100E-07
     TRS4 it   7 1.00000000   0.208E-03       0.001       32.256   0.100E-07
     TRS4 it   8 1.00000000   0.154E-06       0.001       32.256   0.100E-07
     TRS4 it   9 1.00000000   0.103E-12       0.001       32.256   0.100E-07
     Final TRS4 iteration    9 1.00000000   0.103E-12
     Chemical potential (mu):       0.01134
 
 PAO| energy:  -7.7961323957453299      penalty:   1.3155919262498771E-005
 PAO|LS| adapt:  T T T
 PAO|LS| adapt: scan_steps:    0.0000000000000000       0.44431241673885896       0.88862483347771792     
 PAO|LS| adapt: energies:   -7.7961330466654495       -7.7961813956205281       -7.7961323957453299     
 PAO|LS| adapt: suggested step_size:   0.44282697571911056     
 PAO|LS| adapt: predicted energy  -7.7961813961645730     
 PAO| ======================= Iteration:        25 =============================

     Lanczos converged:  T threshold:   0.100E-02
     Est. extremal eigenvalues:    0.276E+01   0.181E+00
     Est. condition number :    0.153E+02

 Order=           3
     NS sqrt iter    1 1.00000000   0.704E+00       0.001       58.779
     NS sqrt iter    2 1.00000000   0.328E+00       0.001       99.744
     NS sqrt iter    3 1.00000000   0.750E-01       0.001       99.786
     NS sqrt iter    4 1.00000000   0.184E-02       0.001       98.419
     NS sqrt iter    5 1.00000000   0.540E-07       0.001       67.415
     Symmetrizing Results
     Final NS sqrt iter    5 1.00000000   0.715E-09

     Est. extremal eigenvalues     -0.93743     1.70439  converged:  T
     TRS4 it   1 1.00000000   0.882E+00       0.000       16.128   0.100E-07
     TRS4 it   2 1.00000000   0.620E+00       0.001       32.256   0.100E-07
     TRS4 it   3 1.00000000   0.421E+00       0.001       32.256   0.100E-07
     TRS4 it   4 1.00000000   0.214E+00       0.001       32.256   0.100E-07
     TRS4 it   5 1.00000000   0.688E-01       0.001       32.256   0.100E-07
     TRS4 it   6 1.00000000   0.899E-02       0.001       32.256   0.100E-07
     TRS4 it   7 1.00000000   0.205E-03       0.001       32.256   0.100E-07
     TRS4 it   8 1.00000000   0.150E-06       0.001       32.256   0.100E-07
     TRS4 it   9 1.00000000   0.974E-13       0.001       32.256   0.100E-07
     Final TRS4 iteration    9 1.00000000   0.974E-13
     Chemical potential (mu):       0.01169
 
 PAO| energy:  -7.7961813956648784      penalty:   1.3809205250361637E-005
 PAO|CG| trace_G_new    7.6280740402868771E-005
 PAO|CG| trace_G_prev    2.1716465689249111E-004
 PAO|CG| trace_G_mix    6.4919469289529633E-007
 PAO|CG| trace_D    3.0500869365824359E-004
 PAO|CG| trace_D_Gnew  -3.3654367832741330E-007
 PAO|CG| beta:   0.34826820713932011     
 PAO| norm of gradient:   8.7338846112636950E-003
 PAO| energy improvement:  -4.8348999428959871E-005
 PAO| step     25                   -7.796181396  0.546E-03  0.443E+00     0.058
 PAO|LS| adapt:  T F F
 PAO|LS| adapt: scan_steps:    0.0000000000000000        0.0000000000000000        0.0000000000000000     
 PAO|LS| adapt: energies:   -7.7961813956648784        0.0000000000000000        0.0000000000000000     
 PAO| ======================= Iteration:        26 =============================

     Lanczos converged:  T threshold:   0.100E-02
     Est. extremal eigenvalues:    0.276E+01   0.181E+00
     Est. condition number :    0.152E+02

 Order=           3
     NS sqrt iter    1 1.00000000   0.704E+00       0.001       58.419
     NS sqrt iter    2 1.00000000   0.328E+00       0.001       99.374
     NS sqrt iter    3 1.00000000   0.749E-01       0.001      102.802
     NS sqrt iter    4 1.00000000   0.183E-02       0.001       98.674
     NS sqrt iter    5 1.00000000   0.534E-07       0.001       65.933
     Symmetrizing Results
     Final NS sqrt iter    5 1.00000000   0.703E-09

     Est. extremal eigenvalues     -0.93744     1.70408  converged:  T
     TRS4 it   1 1.00000000   0.882E+00       0.000       16.128   0.100E-07
     TRS4 it   2 1.00000000   0.620E+00       0.001       32.256   0.100E-07
     TRS4 it   3 1.00000000   0.421E+00       0.001       32.256   0.100E-07
     TRS4 it   4 1.00000000   0.214E+00       0.001       32.256   0.100E-07
     TRS4 it   5 1.00000000   0.688E-01       0.001       32.256   0.100E-07
     TRS4 it   6 1.00000000   0.898E-02       0.001       32.256   0.100E-07
     TRS4 it   7 1.00000000   0.205E-03       0.001       32.256   0.100E-07
     TRS4 it   8 1.00000000   0.148E-06       0.001       32.256   0.100E-07
     TRS4 it   9 1.00000000   0.947E-13       0.001       32.256   0.100E-07
     Final TRS4 iteration    9 1.00000000   0.947E-13
     Chemical potential (mu):       0.01178
 
 PAO| energy:  -7.7961845413328508      penalty:   1.3091442882424565E-005
 PAO|LS| adapt:  T T F
 PAO|LS| adapt: scan_steps:    0.0000000000000000       0.44282697571911056        0.0000000000000000     
 PAO|LS| adapt: energies:   -7.7961813956648784       -7.7961845413328508        0.0000000000000000     
 PAO| ======================= Iteration:        27 =============================

     Lanczos converged:  T threshold:   0.100E-02
     Est. extremal eigenvalues:    0.276E+01   0.181E+00
     Est. condition number :    0.152E+02

 Order=           3
     NS sqrt iter    1 1.00000000   0.704E+00       0.001       58.743
     NS sqrt iter    2 1.00000000   0.328E+00       0.001      100.274
     NS sqrt iter    3 1.00000000   0.748E-01       0.001      101.368
     NS sqrt iter    4 1.00000000   0.183E-02       0.001      100.466
     NS sqrt iter    5 1.00000000   0.528E-07       0.001       67.231
     Symmetrizing Results
     Final NS sqrt iter    5 1.00000000   0.689E-09

     Est. extremal eigenvalues     -0.93744     1.70378  converged:  T
     TRS4 it   1 1.00000000   0.882E+00       0.000       16.128   0.100E-07
     TRS4 it   2 1.00000000   0.620E+00       0.001       32.256   0.100E-07
     TRS4 it   3 1.00000000   0.421E+00       0.001       32.256   0.100E-07
     TRS4 it   4 1.00000000   0.214E+00       0.001       32.256   0.100E-07
     TRS4 it   5 1.00000000   0.687E-01       0.001       32.256   0.100E-07
     TRS4 it   6 1.00000000   0.897E-02       0.001       32.256   0.100E-07
     TRS4 it   7 1.00000000   0.204E-03       0.001       32.256   0.100E-07
     TRS4 it   8 1.00000000   0.147E-06       0.001       32.256   0.100E-07
     TRS4 it   9 1.00000000   0.931E-13       0.001       32.256   0.100E-07
     Final TRS4 iteration    9 1.00000000   0.931E-13
     Chemical potential (mu):       0.01187
 
 PAO| energy:  -7.7961262177630433      penalty:   1.2396890049235866E-005
 PAO|LS| adapt:  T T T
 PAO|LS| adapt: scan_steps:    0.0000000000000000       0.44282697571911056       0.88565395143822112     
 PAO|LS| adapt: energies:   -7.7961813956648784       -7.7961845413328508       -7.7961262177630433     
 PAO|LS| adapt: suggested step_size:   0.24407501230843590     
 PAO|LS| adapt: predicted energy  -7.7961907326428470     
 PAO| ======================= Iteration:        28 =============================

     Lanczos converged:  T threshold:   0.100E-02
     Est. extremal eigenvalues:    0.276E+01   0.181E+00
     Est. condition number :    0.152E+02

 Order=           3
     NS sqrt iter    1 1.00000000   0.704E+00       0.001       58.888
     NS sqrt iter    2 1.00000000   0.328E+00       0.001       98.586
     NS sqrt iter    3 1.00000000   0.749E-01       0.001       99.741
     NS sqrt iter    4 1.00000000   0.184E-02       0.001       99.952
     NS sqrt iter    5 1.00000000   0.536E-07       0.001       67.235
     Symmetrizing Results
     Final NS sqrt iter    5 1.00000000   0.707E-09

     Est. extremal eigenvalues     -0.93743     1.70422  converged:  T
     TRS4 it   1 1.00000000   0.882E+00       0.000       16.128   0.100E-07
     TRS4 it   2 1.00000000   0.620E+00       0.001       32.256   0.100E-07
     TRS4 it   3 1.00000000   0.421E+00       0.001       32.256   0.100E-07
     TRS4 it   4 1.00000000   0.214E+00       0.001       32.256   0.100E-07
     TRS4 it   5 1.00000000   0.688E-01       0.001       32.256   0.100E-07
     TRS4 it   6 1.00000000   0.899E-02       0.001       32.256   0.100E-07
     TRS4 it   7 1.00000000   0.205E-03       0.001       32.256   0.100E-07
     TRS4 it   8 1.00000000   0.149E-06       0.001       32.256   0.100E-07
     TRS4 it   9 1.00000000   0.960E-13       0.001       32.256   0.100E-07
     Final TRS4 iteration    9 1.00000000   0.960E-13
     Chemical potential (mu):       0.01174
 
 PAO| energy:  -7.7961907238074781      penalty:   1.3410703797445455E-005
 PAO|CG| trace_G_new    2.9088142881849923E-005
 PAO|CG| trace_G_prev    7.6280740402868771E-005
 PAO|CG| trace_G_mix    3.8719394838637994E-008
 PAO|CG| trace_D    1.1350988674182751E-004
 PAO|CG| trace_D_Gnew  -2.1817227500061431E-008
 PAO|CG| beta:   0.38082251605831025     
 PAO| norm of gradient:   5.3933424591666645E-003
 PAO| energy improvement:  -9.3281425996849521E-006
 PAO| step     28                   -7.796190724  0.337E-03  0.244E+00     0.058
 PAO|LS| adapt:  T F F
 PAO|LS| adapt: scan_steps:    0.0000000000000000        0.0000000000000000        0.0000000000000000     
 PAO|LS| adapt: energies:   -7.7961907238074781        0.0000000000000000        0.0000000000000000     
 PAO| ======================= Iteration:        29 =============================

     Lanczos converged:  T threshold:   0.100E-02
     Est. extremal eigenvalues:    0.276E+01   0.181E+00
     Est. condition number :    0.152E+02

 Order=           3
     NS sqrt iter    1 1.00000000   0.704E+00       0.001       58.370
     NS sqrt iter    2 1.00000000   0.328E+00       0.001      100.369
     NS sqrt iter    3 1.00000000   0.749E-01       0.001       99.898
     NS sqrt iter    4 1.00000000   0.183E-02       0.001      100.315
     NS sqrt iter    5 1.00000000   0.533E-07       0.001       67.266
     Symmetrizing Results
     Final NS sqrt iter    5 1.00000000   0.701E-09

     Est. extremal eigenvalues     -0.93744     1.70410  converged:  T
     TRS4 it   1 1.00000000   0.882E+00       0.000       16.128   0.100E-07
     TRS4 it   2 1.00000000   0.620E+00       0.001       32.256   0.100E-07
     TRS4 it   3 1.00000000   0.421E+00       0.001       32.256   0.100E-07
     TRS4 it   4 1.00000000   0.214E+00       0.001       32.256   0.100E-07
     TRS4 it   5 1.00000000   0.687E-01       0.001       32.256   0.100E-07
     TRS4 it   6 1.00000000   0.897E-02       0.001       32.256   0.100E-07
     TRS4 it   7 1.00000000   0.204E-03       0.001       32.256   0.100E-07
     TRS4 it   8 1.00000000   0.147E-06       0.001       32.256   0.100E-07
     TRS4 it   9 1.00000000   0.941E-13       0.001       32.256   0.100E-07
     Final TRS4 iteration    9 1.00000000   0.941E-13
     Chemical potential (mu):       0.01185
 
 PAO| energy:  -7.7961969822443500      penalty:   1.2997061582067356E-005
 PAO|LS| adapt:  T T F
 PAO|LS| adapt: scan_steps:    0.0000000000000000       0.24407501230843590        0.0000000000000000     
 PAO|LS| adapt: energies:   -7.7961907238074781       -7.7961969822443500        0.0000000000000000     
 PAO| ======================= Iteration:        30 =============================

     Lanczos converged:  T threshold:   0.100E-02
     Est. extremal eigenvalues:    0.276E+01   0.181E+00
     Est. condition number :    0.152E+02

 Order=           3
     NS sqrt iter    1 1.00000000   0.704E+00       0.001       58.739
     NS sqrt iter    2 1.00000000   0.328E+00       0.001      100.322
     NS sqrt iter    3 1.00000000   0.748E-01       0.001      100.843
     NS sqrt iter    4 1.00000000   0.183E-02       0.001      100.062
     NS sqrt iter    5 1.00000000   0.531E-07       0.001       67.142
     Symmetrizing Results
     Final NS sqrt iter    5 1.00000000   0.694E-09

     Est. extremal eigenvalues     -0.93744     1.70398  converged:  T
     TRS4 it   1 1.00000000   0.882E+00       0.000       16.128   0.100E-07
     TRS4 it   2 1.00000000   0.620E+00       0.001       32.256   0.100E-07
     TRS4 it   3 1.00000000   0.421E+00       0.001       32.256   0.100E-07
     TRS4 it   4 1.00000000   0.213E+00       0.001       32.256   0.100E-07
     TRS4 it   5 1.00000000   0.686E-01       0.001       32.256   0.100E-07
     TRS4 it   6 1.00000000   0.895E-02       0.001       32.256   0.100E-07
     TRS4 it   7 1.00000000   0.203E-03       0.001       32.256   0.100E-07
     TRS4 it   8 1.00000000   0.146E-06       0.001       32.256   0.100E-07
     TRS4 it   9 1.00000000   0.913E-13       0.001       32.256   0.100E-07
     Final TRS4 iteration    9 1.00000000   0.913E-13
     Chemical potential (mu):       0.01196
 
 PAO| energy:  -7.7962015538901692      penalty:   1.2590580400536832E-005
 PAO|LS| adapt:  T T F
 PAO|LS| adapt: scan_steps:    0.0000000000000000       0.48815002461687179        0.0000000000000000     
 PAO|LS| adapt: energies:   -7.7961907238074781       -7.7962015538901692        0.0000000000000000     
 PAO| ======================= Iteration:        31 =============================

     Lanczos converged:  T threshold:   0.100E-02
     Est. extremal eigenvalues:    0.276E+01   0.181E+00
     Est. condition number :    0.152E+02

 Order=           3
     NS sqrt iter    1 1.00000000   0.703E+00       0.001       59.037
     NS sqrt iter    2 1.00000000   0.328E+00       0.001      100.476
     NS sqrt iter    3 1.00000000   0.747E-01       0.001      101.238
     NS sqrt iter    4 1.00000000   0.182E-02       0.001       98.442
     NS sqrt iter    5 1.00000000   0.525E-07       0.001       66.606
     Symmetrizing Results
     Final NS sqrt iter    5 1.00000000   0.671E-09

     Est. extremal eigenvalues     -0.93744     1.70374  converged:  T
     TRS4 it   1 1.00000000   0.882E+00       0.000       16.128   0.100E-07
     TRS4 it   2 1.00000000   0.619E+00       0.001       32.256   0.100E-07
     TRS4 it   3 1.00000000   0.421E+00       0.001       32.256   0.100E-07
     TRS4 it   4 1.00000000   0.213E+00       0.001       32.256   0.100E-07
     TRS4 it   5 1.00000000   0.685E-01       0.001       32.256   0.100E-07
     TRS4 it   6 1.00000000   0.891E-02       0.001       32.256   0.100E-07
     TRS4 it   7 1.00000000   0.201E-03       0.001       32.256   0.100E-07
     TRS4 it   8 1.00000000   0.143E-06       0.001       32.256   0.100E-07
     TRS4 it   9 1.00000000   0.886E-13       0.001       32.256   0.100E-07
     Final TRS4 iteration    9 1.00000000   0.886E-13
     Chemical potential (mu):       0.01217
 
 PAO| energy:  -7.7962056358480893      penalty:   1.1798972599390083E-005
 PAO|LS| Need extra step
 PAO|LS| adapt:  T T F
 PAO|LS| adapt: scan_steps:    0.0000000000000000       0.97630004923374358        0.0000000000000000     
 PAO|LS| adapt: energies:   -7.7961907238074781       -7.7962056358480893        0.0000000000000000     
 PAO| ======================= Iteration:        32 =============================

     Lanczos converged:  T threshold:   0.100E-02
     Est. extremal eigenvalues:    0.276E+01   0.182E+00
     Est. condition number :    0.152E+02

 Order=           3
[...]
     Symmetrizing Results
     Final NS sqrt iter    5 1.00000000   0.322E-09

     Est. extremal eigenvalues     -0.93715     1.63162  converged:  T
     TRS4 it   1 1.00000000   0.885E+00       0.000       16.128   0.100E-07
     TRS4 it   2 1.00000000   0.634E+00       0.000       32.256   0.100E-07
     TRS4 it   3 1.00000000   0.455E+00       0.001       32.256   0.100E-07
     TRS4 it   4 1.00000000   0.278E+00       0.000       32.256   0.100E-07
     TRS4 it   5 1.00000000   0.138E+00       0.000       32.256   0.100E-07
     TRS4 it   6 1.00000000   0.432E-01       0.000       32.256   0.100E-07
     TRS4 it   7 1.00000000   0.590E-02       0.000       32.256   0.100E-07
     TRS4 it   8 1.00000000   0.148E-03       0.000       32.256   0.100E-07
     TRS4 it   9 1.00000000   0.991E-07       0.000       32.256   0.100E-07
     TRS4 it  10 1.00000000   0.447E-13       0.000       32.256   0.100E-07
     Final TRS4 iteration   10 1.00000000   0.447E-13
     Chemical potential (mu):      -0.07423
 
 PAO| energy:  -7.7954997948009792      penalty:   3.5023674921243620E-008
 PAO|CG| warming up with steepest descent
 PAO|CG| beta:    0.0000000000000000     
 PAO| norm of gradient:   1.4101307972486606E-004
 PAO| energy improvement:  -5.9749432068656461E-009
 PAO| step    414                   -7.795499795  0.881E-05  0.260E+00     0.057
 PAO| converged after          414  steps :-)
 PAO| Recalculating energy after mixing.

     Lanczos converged:  T threshold:   0.100E-02
     Est. extremal eigenvalues:    0.248E+01   0.191E+00
     Est. condition number :    0.130E+02

 Order=           3
     NS sqrt iter    1 1.00000000   0.629E+00       0.001       64.512
     NS sqrt iter    2 1.00000000   0.272E+00       0.001      110.592
     NS sqrt iter    3 1.00000000   0.477E-01       0.001      110.592
     NS sqrt iter    4 1.00000000   0.739E-03       0.001      110.592
     NS sqrt iter    5 1.00000000   0.534E-08       0.001       38.144
     Symmetrizing Results
     Final NS sqrt iter    5 1.00000000   0.322E-09

     Est. extremal eigenvalues     -0.93715     1.63161  converged:  T
     TRS4 it   1 1.00000000   0.885E+00       0.000       16.128   0.100E-07
     TRS4 it   2 1.00000000   0.634E+00       0.000       32.256   0.100E-07
     TRS4 it   3 1.00000000   0.455E+00       0.000       32.256   0.100E-07
     TRS4 it   4 1.00000000   0.278E+00       0.000       32.256   0.100E-07
     TRS4 it   5 1.00000000   0.138E+00       0.000       32.256   0.100E-07
     TRS4 it   6 1.00000000   0.432E-01       0.000       32.256   0.100E-07
     TRS4 it   7 1.00000000   0.590E-02       0.000       32.256   0.100E-07
     TRS4 it   8 1.00000000   0.148E-03       0.000       32.256   0.100E-07
     TRS4 it   9 1.00000000   0.991E-07       0.000       32.256   0.100E-07
     TRS4 it  10 1.00000000   0.439E-13       0.000       32.256   0.100E-07
     Final TRS4 iteration   10 1.00000000   0.439E-13
     Chemical potential (mu):      -0.07423
 
 PAO| energy:  -7.7954997933072230      penalty:   3.5392991728006208E-008
 PAO| Writing restart file.
     Est. extremal eigenvalues     -0.93715     1.63161  converged:  T
     TRS4 it   1 1.00000000   0.885E+00       0.000       16.128   0.100E-07
     TRS4 it   2 1.00000000   0.634E+00       0.000       32.256   0.100E-07
     TRS4 it   3 1.00000000   0.455E+00       0.000       32.256   0.100E-07
     TRS4 it   4 1.00000000   0.278E+00       0.000       32.256   0.100E-07
     TRS4 it   5 1.00000000   0.138E+00       0.000       32.256   0.100E-07
     TRS4 it   6 1.00000000   0.432E-01       0.000       32.256   0.100E-07
     TRS4 it   7 1.00000000   0.590E-02       0.000       32.256   0.100E-07
     TRS4 it   8 1.00000000   0.148E-03       0.000       32.256   0.100E-07
     TRS4 it   9 1.00000000   0.991E-07       0.000       32.256   0.100E-07
     TRS4 it  10 1.00000000   0.439E-13       0.000       32.256   0.100E-07
     Final TRS4 iteration   10 1.00000000   0.439E-13
     Chemical potential (mu):      -0.07423

 SCF     1       -34.449523501       -34.449523501    1.510749

*********************************************************
 Using MIXING_FRACTION=0.450 to mix KS matrix:  iscf=  2
 KS_nw=0.450*KS + 0.550*KS_old
*********************************************************
     Est. extremal eigenvalues     -0.93715     1.63162  converged:  T
     TRS4 it   1 1.00000000   0.885E+00       0.000       16.128   0.100E-07
     TRS4 it   2 1.00000000   0.634E+00       0.000       32.256   0.100E-07
     TRS4 it   3 1.00000000   0.455E+00       0.000       32.256   0.100E-07
     TRS4 it   4 1.00000000   0.278E+00       0.000       32.256   0.100E-07
     TRS4 it   5 1.00000000   0.138E+00       0.000       32.256   0.100E-07
     TRS4 it   6 1.00000000   0.432E-01       0.000       32.256   0.100E-07
     TRS4 it   7 1.00000000   0.590E-02       0.000       32.256   0.100E-07
     TRS4 it   8 1.00000000   0.148E-03       0.000       32.256   0.100E-07
     TRS4 it   9 1.00000000   0.991E-07       0.000       32.256   0.100E-07
     TRS4 it  10 1.00000000   0.445E-13       0.000       32.256   0.100E-07
     Final TRS4 iteration   10 1.00000000   0.445E-13
     Chemical potential (mu):      -0.07423

 SCF     2       -34.449523502        -0.000000000    1.020274


 SCF run converged in     2 steps.

 PAO| Storing density matrix for ASPC guess in slot:           1

 ENERGY| Total FORCE_EVAL ( QS ) energy [a.u.]:              -34.449523501660245

 -------------------------------------------------------------------------------
 -                                                                             -
 -                                DBCSR STATISTICS                             -
 -                                                                             -
 -------------------------------------------------------------------------------
 COUNTER                                    TOTAL       BLAS       SMM       ACC
 flops     5 x     5 x     4                20000       0.0%    100.0%      0.0%
 flops    13 x     5 x     4                20800       0.0%    100.0%      0.0%
 flops     5 x    13 x     4                20800       0.0%    100.0%      0.0%
 flops    13 x    13 x     4                40560       0.0%    100.0%      0.0%
 flops     4 x     4 x     5              3252480       0.0%    100.0%      0.0%
 flops     5 x     4 x     5              3968000       0.0%    100.0%      0.0%
 flops     4 x     4 x    13              4228224       0.0%    100.0%      0.0%
 flops    13 x     4 x     5              5158400       0.0%    100.0%      0.0%
 flops     5 x     4 x    13              5158400       0.0%    100.0%      0.0%
 flops     5 x     4 x     4              6302400       0.0%    100.0%      0.0%
 flops    13 x     4 x    13              6705920       0.0%    100.0%      0.0%
 flops    13 x     4 x     4              8373664       0.0%    100.0%      0.0%
 flops     4 x     4 x     4            420320128       0.0%    100.0%      0.0%
 flops inhomo. stacks                           0       0.0%      0.0%      0.0%
 flops total                       463.569776E+06       0.0%    100.0%      0.0%
 flops max/rank                    463.569776E+06       0.0%    100.0%      0.0%
 matmuls inhomo. stacks                         0       0.0%      0.0%      0.0%
 matmuls total                            3418612       0.0%    100.0%      0.0%
 number of processed stacks                 27280       0.0%    100.0%      0.0%
 average stack size                                     0.0     125.3       0.0
 marketing flops                   753.984384E+06
 -------------------------------------------------------------------------------
 # multiplications                          22783
 max memory usage/rank             505.888768E+06
 # max total images/rank                        1
 # max 3D layers                                1
 # MPI messages exchanged                       0
 -------------------------------------------------------------------------------

 -------------------------------------------------------------------------------
 -                                                                             -
 -                                DBM STATISTICS                               -
 -                                                                             -
 -------------------------------------------------------------------------------
    M  x    N  x    K                                          COUNT     PERCENT
 -------------------------------------------------------------------------------

 -------------------------------------------------------------------------------
 -                                                                             -
 -                                GRID STATISTICS                              -
 -                                                                             -
 -------------------------------------------------------------------------------
 LP    KERNEL             BACKEND                              COUNT     PERCENT
 2     collocate ortho    REF                                  38160      30.73%
 2     integrate ortho    REF                                  38160      30.73%
 3     collocate ortho    REF                                  19740      15.90%
 3     integrate ortho    REF                                  19740      15.90%
 4     collocate ortho    REF                                   4180       3.37%
 4     integrate ortho    REF                                   4180       3.37%
 0     collocate general  REF                                      6       0.00%
 -------------------------------------------------------------------------------

 MEMORY| Estimated peak process memory [MiB]                                 483

 -------------------------------------------------------------------------------
 -                                                                             -
 -                           R E F E R E N C E S                               -
 -                                                                             -
 -------------------------------------------------------------------------------
 
 CP2K version 2023.1 (Development Version), the CP2K developers group (2023).
 CP2K is freely available from https://www.cp2k.org/ .

 Kuehne,Thomas D.; Iannuzzi,Marcella; Del Ben,Mauro;
 Rybkin,Vladimir V.; Seewald,Patrick; Stein,Frederick; Laino,Teodoro;
 Khaliullin,Rustam Z.; Schuett,Ole; Schiffmann,Florian; Golze,Dorothea;
 Wilhelm,Jan; Chulkov,Sergey; Bani-Hashemian,Mohammad Hossein;
 Weber,Valery; Borstnik,Urban; Taillefumier,Mathieu;
 Jakobovits,Alice Shoshana; Lazzaro,Alfio; Pabst,Hans; Mueller,Tiziano;
 Schade,Robert; Guidon,Manuel; Andermatt,Samuel; Holmberg,Nico;
 Schenter,Gregory K.; Hehn,Anna; Bussy,Augustin; Belleflamme,Fabian;
 Tabacchi,Gloria; Gloess,Andreas; Lass,Michael; Bethune,Iain;
 Mundy,Christopher J.; Plessl,Christian; Watkins,Matt;
 VandeVondele,Joost; Krack,Matthias; Hutter,Juerg. 
 The Journal of Chemical Physics, 152 (19), (2020). 
 CP2K: An electronic structure and molecular dynamics software package -
 Quickstep: Efficient and accurate electronic structure calculations.
 https://doi.org/10.1063/5.0007045

 Schuett, O; VandeVondele, J. 
 Journal of Chemical Theory and Computation, 14, (2018). 
 Machine Learning Adaptive Basis Sets for Efficient Large Scale
 Density Functional Theory Simulation.
 https://doi.org/10.1021/acs.jctc.8b00378

 Schuett, Ole; Messmer, Peter; Hutter, Juerg; VandeVondele, Joost. 
 Electronic Structure Calculations on Graphics Processing Units, John
 Wiley & Sons, Ltd, 173-190 (2016). 
 GPU-Accelerated Sparse Matrix-Matrix Multiplication for
 Linear Scaling Density Functional Theory.
 https://doi.org/10.1002/9781118670712.ch8

 Heinecke, A; Henry, G; Hutchinson, M; Pabst, H. 
 Proceedings of Intl. Supercomputing Conference, 981-991 (2016). 
 LIBXSMM: Accelerating Small Matrix Multiplications
 by Runtime Code Generation.
 https://doi.org/10.1109/SC.2016.83

 Borstnik, U; VandeVondele, J; Weber, V; Hutter, J. 
 PARALLEL COMPUTING, 40 (5-6), 47-58 (2014). 
 Sparse matrix multiplication: The distributed block-compressed sparse
 row library.
 https://doi.org/10.1016/j.parco.2014.03.012

 Hutter, J; Iannuzzi, M; Schiffmann, F; VandeVondele, J. 
 WIREs Comput Mol Sci., 4 (1), 15-25 (2014). 
 CP2K: atomistic simulations of condensed matter systems.
 https://doi.org/10.1002/wcms.1159

 VandeVondele, J; Borstnik, U; Hutter, J. 
 JOURNAL OF CHEMICAL THEORY AND COMPUTATION, 8 (10), 3565-3573 (2012). 
 Linear Scaling Self-Consistent Field Calculations with Millions of Atoms
 in the Condensed Phase.
 https://doi.org/10.1021/ct200897x

 VandeVondele, J; Hutter, J. 
 JOURNAL OF CHEMICAL PHYSICS, 127 (11), 114105 (2007). 
 Gaussian basis sets for accurate calculations on molecular systems in
 gas and condensed phases.
 https://doi.org/10.1063/1.2770708

 Krack, M. 
 THEORETICAL CHEMISTRY ACCOUNTS, 114 (1-3), 145-152 (2005). 
 Pseudopotentials for H to Kr optimized for gradient-corrected
 exchange-correlation functionals.
 https://doi.org/10.1007/s00214-005-0655-y

 VandeVondele, J; Krack, M; Mohamed, F; Parrinello, M; Chassaing, T;
 Hutter, J. COMPUTER PHYSICS COMMUNICATIONS, 167 (2), 103-128 (2005). 
 QUICKSTEP: Fast and accurate density functional calculations using a
 mixed Gaussian and plane waves approach.
 https://doi.org/10.1016/j.cpc.2004.12.014

 Frigo, M; Johnson, SG. 
 PROCEEDINGS OF THE IEEE, 93 (2), 216-231 (2005). 
 The design and implementation of FFTW3.
 https://doi.org/10.1109/JPROC.2004.840301

 Niklasson, AMN; Tymczak, CJ; Challacombe, M. 
 JOURNAL OF CHEMICAL PHYSICS, 118 (19), 8611-8620 (2003). 
 Trace resetting density matrix purification in O(N)
 self-consistent-field theory.
 https://doi.org/10.1063/1.1559913

 Hartwigsen, C; Goedecker, S; Hutter, J. 
 PHYSICAL REVIEW B, 58 (7), 3641-3662 (1998). 
 Relativistic separable dual-space Gaussian pseudopotentials from H to Rn.
 https://doi.org/10.1103/PhysRevB.58.3641

 Lippert, G; Hutter, J; Parrinello, M. 
 MOLECULAR PHYSICS, 92 (3), 477-487 (1997). 
 A hybrid Gaussian and plane wave density functional scheme.
 https://doi.org/10.1080/002689797170220

 Perdew, JP; Burke, K; Ernzerhof, M. 
 PHYSICAL REVIEW LETTERS, 77 (18), 3865-3868 (1996). 
 Generalized gradient approximation made simple.
 https://doi.org/10.1103/PhysRevLett.77.3865

 Goedecker, S; Teter, M; Hutter, J. 
 PHYSICAL REVIEW B, 54 (3), 1703-1710 (1996). 
 Separable dual-space Gaussian pseudopotentials.
 https://doi.org/10.1103/PhysRevB.54.1703


 -------------------------------------------------------------------------------
 -                                                                             -
 -                                T I M I N G                                  -
 -                                                                             -
 -------------------------------------------------------------------------------
 SUBROUTINE                       CALLS  ASD         SELF TIME        TOTAL TIME
                                MAXIMUM       AVERAGE  MAXIMUM  AVERAGE  MAXIMUM
 CP2K                                 1  1.0    0.009    0.009   39.977   39.977
 qs_energies                          1  2.0    0.000    0.000   39.335   39.335
 ls_scf                               1  3.0    0.000    0.000   39.096   39.096
 ls_scf_main                          4  4.0    0.001    0.001   26.946   26.946
 ls_scf_dm_to_ks                      9  5.0    0.000    0.000   26.865   26.865
 qs_ks_update_qs_env                 10  6.0    0.000    0.000   24.007   24.007
 rebuild_ks_matrix                   10  7.0    0.000    0.000   24.006   24.006
 qs_ks_build_kohn_sham_matrix        10  8.0    0.003    0.003   24.006   24.006
 qs_vxc_create                       10  9.0    0.000    0.000   15.474   15.474
 xc_vxc_pw_create                    10 10.0    0.252    0.252   15.473   15.473
 pw_transfer                        191 11.1    0.034    0.034   14.334   14.334
 fft_wrap_pw1pw2                    171 12.3    0.004    0.004   13.923   13.923
 fft_wrap_pw1pw2_200                111 13.7    1.338    1.338   13.489   13.489
 xc_pw_derive                        60 12.0    0.002    0.002    9.961    9.961
 xc_rho_set_and_dset_create          10 11.0    0.297    0.297    8.420    8.420
 pao_update                           4  4.0    0.008    0.008    8.199    8.199
 pao_calc_energy                    417  5.0    0.003    0.003    7.433    7.433
 qs_rho_update_rho_low               10  6.0    0.000    0.000    6.761    6.761
 calculate_rho_elec                  10  7.0    0.050    0.050    6.761    6.761
 xc_pw_divergence                    10 11.0    0.001    0.001    6.606    6.606
 fft3d_s                            172 14.2    6.272    6.272    6.297    6.297
 dbcsr_multiply_generic           22783  8.4    0.369    0.369    5.886    5.886
 sum_up_and_integrate                10  9.0    0.199    0.199    5.842    5.842
 integrate_v_rspace                  10 10.0    0.001    0.001    5.643    5.643
 grid_integrate_task_list            10 11.0    4.347    4.347    4.347    4.347
 pao_guess_initial_P                  1  4.0    0.000    0.000    3.908    3.908
 pao_read_preopt_dm                   1  5.0    0.000    0.000    3.908    3.908
 pao_dm_trs4                        417  6.0    0.002    0.002    3.878    3.878
 grid_collocate_task_list            10  8.0    3.867    3.867    3.867    3.867
 density_matrix_trs4                426  7.0    0.120    0.120    3.733    3.733
 ls_scf_init_matrix_S               421  7.0    0.003    0.003    3.531    3.531
 pao_rebuild_S                      417  6.0    0.001    0.001    3.503    3.503
 pw_scatter_s                        90 14.7    3.439    3.439    3.439    3.439
 matrix_sqrt_Newton_Schulz          421  8.0    0.076    0.076    3.192    3.192
 density_rs2pw                       10  8.0    0.001    0.001    2.844    2.844
 pw_gather_s                         81 13.8    2.800    2.800    2.800    2.800
 xc_functional_eval                  10 12.0    0.000    0.000    2.767    2.767
 pbe_lda_eval                        10 13.0    2.767    2.767    2.767    2.767
 make_m2s                         45566  9.4    0.142    0.142    2.205    2.205
 multiply_cannon                  22783  9.4    0.904    0.904    2.192    2.192
 make_images                      45566 10.4    0.542    0.542    1.953    1.953
 pw_derive                           60 13.0    1.739    1.739    1.739    1.739
 potential_pw2rs                     10 11.0    0.004    0.004    1.295    1.295
 pw_copy                            120 11.8    1.235    1.235    1.235    1.235
 arnoldi_extremal                   847  8.5    0.003    0.003    1.167    1.167
 arnoldi_normal_ev                  847  9.5    0.009    0.009    1.164    1.164
 pw_poisson_solve                    10  9.0    0.195    0.195    1.024    1.024
 pw_axpy                             90 10.3    0.966    0.966    0.966    0.966
 build_subspace                     847 10.5    0.047    0.047    0.917    0.917
 dbcsr_matrix_vector_mult         20318 11.5    0.098    0.098    0.848    0.848
 -------------------------------------------------------------------------------

 The number of warnings for this run is : 0
 
 -------------------------------------------------------------------------------
  **** **** ******  **  PROGRAM ENDED AT                 2023-02-01 10:44:35.184
 ***** ** ***  *** **   PROGRAM RAN ON                                    moritz
 **    ****   ******    PROGRAM RAN BY                                       ole
 ***** **    ** ** **   PROGRAM PROCESS ID                                148506
  **** **  *******  **  PROGRAM STOPPED IN /home/ole/git/pao_ml_equivar/2H2O_rot
                                           ations/rand_09
