6
Properties=species:S:1:pos:R:3 i=0 time=0.0 E=-34.4504806384 pbc="F F F"
O      -4.34886532      -1.79420376      -4.55007852 
H      -3.82797357      -1.07802175      -4.92829024 
H      -3.82708223      -2.13099678      -3.81493100 
O      -6.93068241      -0.68744981      -3.49726598 
H      -7.68199815      -1.12266685      -3.90986237 
H      -6.14605440      -1.09999945      -3.89044621 
