 DBCSR| CPU Multiplication driver                                           XSMM (U)
 DBCSR| Multrec recursion limit                                              512 (U)
 DBCSR| Multiplication stack size                                           1000 (D)
 DBCSR| Maximum elements for images                                    UNLIMITED (U)
 DBCSR| Multiplicative factor virtual images                                   1 (U)
 DBCSR| Use multiplication densification                                       T (D)
 DBCSR| Multiplication size stacks                                             3 (U)
 DBCSR| Use memory pool for CPU allocation                                     F (U)
 DBCSR| Number of 3D layers                                               SINGLE (U)
 DBCSR| Use MPI memory allocation                                              F (U)
 DBCSR| Use RMA algorithm                                                      F (U)
 DBCSR| Use Communication thread                                               T (U)
 DBCSR| Communication thread load                                             87 (D)
 DBCSR| MPI: My process id                                                     0
 DBCSR| MPI: Number of processes                                              32
 DBCSR| OMP: Current number of threads                                         1
 DBCSR| OMP: Max number of threads                                             1
 DBCSR| Split modifier for TAS multiplication algorithm                  1.0E+00 (U)


  **** **** ******  **  PROGRAM STARTED AT               2024-09-24 03:30:17.289
 ***** ** ***  *** **   PROGRAM STARTED ON                                moritz
 **    ****   ******    PROGRAM STARTED BY                                   ole
 ***** **    ** ** **   PROGRAM PROCESS ID                                167815
  **** **  *******  **  PROGRAM STARTED IN /home/ole/git/pao_ml_equivar/64H2O_MD
                                           /Frame4200

 CP2K| version string:                 CP2K version 2024.3 (Development Version)
 CP2K| source code revision number:                                  git:3f890bb
 CP2K| cp2kflags: omp libint fftw3 libxc libgrpp pexsi elpa parallel scalapack c
 CP2K|            osma quip deepmd xsmm plumed2 spglib libdftd4 sirius libvori l
 CP2K|            libbqb libvdwxc hdf5
 CP2K| is freely available from                            https://www.cp2k.org/
 CP2K| Program compiled at                          Mo 23 Sep 2024 17:17:04 CEST
 CP2K| Program compiled on                                                moritz
 CP2K| Program compiled for                                                local
 CP2K| Data directory path                               /home/ole/git/cp2k/data
 CP2K| Input file name                                           64H2O_pao44.inp

 GLOBAL| Force Environment number                                              1
 GLOBAL| Basis set file name                                        BASIS_MOLOPT
 GLOBAL| Potential file name                                      GTH_POTENTIALS
 GLOBAL| MM Potential file name                                     MM_POTENTIAL
 GLOBAL| Coordinate file name                                         coords.xyz
 GLOBAL| Method name                                                        CP2K
 GLOBAL| Project name                                                64H2O_pao44
 GLOBAL| Run type                                                         ENERGY
 GLOBAL| FFT library                                                       FFTW3
 GLOBAL| Diagonalization library                                            ELPA
 GLOBAL| DGEMM library                                                      BLAS
 GLOBAL| Minimum number of eigenvectors for ELPA usage                        16
 GLOBAL| Orthonormality check for eigenvectors                          DISABLED
 GLOBAL| Matrix multiplication library                                     COSMA
 GLOBAL| All-to-all communication in single precision                          F
 GLOBAL| FFTs using library dependent lengths                                  F
 GLOBAL| Grid backend                                                       AUTO
 GLOBAL| Global print level                                                  LOW
 GLOBAL| MPI I/O enabled                                                       T
 GLOBAL| Total number of message passing processes                            32
 GLOBAL| Number of threads for this process                                    1
 GLOBAL| This output is from process                                           0
 GLOBAL| Stack size for threads created by OpenMP (OMP_STACKSIZE)        default
 GLOBAL| CPU model name           AMD Ryzen Threadripper 3970X 32-Core Processor
 GLOBAL| CPUID                                                              1002

 MEMORY| system memory details [Kb]
 MEMORY|                        rank 0           min           max       average
 MEMORY| MemTotal            131752136     131752136     131752136     131752136
 MEMORY| MemFree             114326196     114326196     114326196     114326196
 MEMORY| Buffers               2012896       2012896       2012896       2012896
 MEMORY| Cached                8678012       8678012       8678012       8678012
 MEMORY| Slab                  1642064       1642064       1642064       1642064
 MEMORY| SReclaimable          1144988       1144988       1144988       1144988
 MEMORY| MemLikelyFree       126162092     126162092     126162092     126162092


 GENERATE|  Preliminary Number of Bonds generated:                             0
 GENERATE|  Achieved consistency in connectivity generation.

 *******************************************************************************
 *******************************************************************************
 **                                                                           **
 **     #####                         ##              ##                      **
 **    ##   ##            ##          ##              ##                      **
 **   ##     ##                       ##            ######                    **
 **   ##     ##  ##   ##  ##   #####  ##  ##   ####   ##    #####    #####    **
 **   ##     ##  ##   ##  ##  ##      ## ##   ##      ##   ##   ##  ##   ##   **
 **   ##  ## ##  ##   ##  ##  ##      ####     ###    ##   ######   ######    **
 **    ##  ###   ##   ##  ##  ##      ## ##      ##   ##   ##       ##        **
 **     #######   #####   ##   #####  ##  ##  ####    ##    #####   ##        **
 **           ##                                                    ##        **
 **                                                                           **
 **                                                ... make the atoms dance   **
 **                                                                           **
 **            Copyright (C) by CP2K developers group (2000-2024)             **
 **                      J. Chem. Phys. 152, 194103 (2020)                    **
 **                                                                           **
 *******************************************************************************


 TOTAL NUMBERS AND MAXIMUM NUMBERS

  Total number of            - Atomic kinds:                                   2
                             - Atoms:                                        192
                             - Shell sets:                                   192
                             - Shells:                                       704
                             - Primitive Cartesian functions:               1344
                             - Cartesian basis functions:                   1536
                             - Spherical basis functions:                   1472

  Maximum angular momentum of- Orbital basis functions:                        2
                             - Local part of the GTH pseudopotential:          2
                             - Non-local part of the GTH pseudopotential:      0

 ------------------------------ Linear scaling SCF -----------------------------
 eps_scf:                                                              0.100E-07
 eps_filter:                                                           0.100E-11
 mixing_fraction:                                                      0.450E+00
 max_scf:                                                                     25
 fixed chemical potential (mu)                                                 F
 has unit metric:                                                              F
 Computing inv(S):                                                             T
 Computing sqrt(S):                                                            T
 Computing S preconditioner                                                    F
 S sqrt method:                                                     NEWTONSCHULZ
 S sqrt order:                                                                 3
 Extrapolation order:                                                          1
 S preconditioner type                                                      NONE
 Polarized Atomic Orbitals (PAO)                                               T
 Purification method                                   Trace resetting 4th order
 Cluster type                                                             ATOMIC
 Computing Chebyshev                                                       FALSE
 Using PAO                                                                     T
 -------------------------------------------------------------------------------

 
 PAO|                                  EPS_PAO                           0.5E-06
 PAO|                                  MIXING                            0.5E+00
 PAO|                                  MAX_PAO                              1500
 PAO|                                  MAX_CYCLES                           1000
 PAO|                                  PARAMETERIZATION              EQUIVARIANT
 PAO|                                  PRECONDITION                            F
 PAO|                                  REGULARIZATION                    0.0E+00
 PAO|                                  EPS_PGF                           0.1E-09
 PAO|                                  PENALTY_DISTANCE                  0.1E+00
 PAO|                                  PENALTY_STRENGTH                  0.5E-02
 PAO|                                  LINPOT_PRECONDITION_DELTA         0.0E+00
 PAO|                                  LINPOT_INITGUESS_DELT             0.0E+00
 PAO|                                  LINPOT_REGULARIZATION_DELTA       0.0E+00
 PAO|                                  LINPOT_REGULARIZATION_STRENGTH    0.0E+00
 PAO|                                  OPTIMIZER                              CG
 PAO|                                  CG_INIT_STEPS                           2
 PAO|                                  CG_RESET_LIMIT                    0.1E+00
 PAO|                                  CHECK_UNITARY_TOL                -0.1E+01
 PAO|                                  CHECK_GRADIENT_TOL               -0.1E+01
 PAO|                                  NUM_GRADIENT_ORDER                      2
 PAO|                                  NUM_GRADIENT_EPS                  0.1E-07
 PAO|                                  PRINT%RESTART%WRITE_CYCLES            100
 PAO|                                  RESTART_FILE 
 PAO|                                  PREOPT_DM_FILE 64H2O_ref_LS_DM_SPIN_1_RESTART.dm
 PAO|                                  MACHINE_LEARNING%METHOD       GAUSSIAN_PR
 PAO|                                  MACHINE_LEARNING%PRIOR               ZERO
 PAO|                                  MACHINE_LEARNING%DESCRIPTOR     POTENTIAL
 PAO|                                  MACHINE_LEARNING%TOLERANCE        0.1E-01
 PAO|                                  MACHINE_LEARNING%GP_NOISE_VAR     0.1E+00
 PAO|                                  MACHINE_LEARNING%GP_SCALE         0.5E-01
 

 Calculating atomic Fock matrix for atomic kind: O

 Electronic structure
    Total number of core electrons                                          2.00
    Total number of valence electrons                                       6.00
    Total number of electrons                                               8.00
    Multiplicity                                                   not specified
    S   [  2.00] 2.00
    P      4.00


 *******************************************************************************
                  Iteration          Convergence                     Energy [au]
 *******************************************************************************
                          1        0.708315                     -15.576645311500
                          2        0.608879                     -15.587933561584
                          3        0.102828E-01                 -15.656849565404
                          4        0.113889E-02                 -15.656866888140
                          5        0.434197E-03                 -15.656867072159
                          6        0.263771E-03                 -15.656867091904
                          7        0.478536E-06                 -15.656867103452

 Energy components [Hartree]           Total Energy ::          -15.656867103452
                                        Band Energy ::           -3.000198112285
                                     Kinetic Energy ::           11.759971203220
                                   Potential Energy ::          -27.416838306672
                                      Virial (-V/T) ::            2.331369510426
                                        Core Energy ::          -26.140716385623
                                          XC Energy ::           -3.154051012914
                                     Coulomb Energy ::           13.637900295084
                       Total Pseudopotential Energy ::          -37.935781716540
                       Local Pseudopotential Energy ::          -39.218907440693
                    Nonlocal Pseudopotential Energy ::            1.283125724153
                                        Confinement ::            0.350941276976

 Orbital energies  State     L     Occupation   Energy[a.u.]          Energy[eV]

                       1     0          2.000      -0.864471          -23.523463

                       1     1          4.000      -0.317814           -8.648154


 Total Electron Density at R=0:                                         0.000068

 Calculating atomic Fock matrix for atomic kind: H

 Electronic structure
    Total number of core electrons                                          0.00
    Total number of valence electrons                                       1.00
    Total number of electrons                                               1.00
    Multiplicity                                                   not specified
    S      1.00


 *******************************************************************************
                  Iteration          Convergence                     Energy [au]
 *******************************************************************************
                          1        0.437545E-02                  -0.424159432110
                          2        0.531356E-03                  -0.424178438213
                          3        0.259176E-06                  -0.424178722480

 Energy components [Hartree]           Total Energy ::           -0.424178722480
                                        Band Energy ::           -0.199015229016
                                     Kinetic Energy ::            0.464007633961
                                   Potential Energy ::           -0.888186356441
                                      Virial (-V/T) ::            1.914163240935
                                        Core Energy ::           -0.479160803564
                                          XC Energy ::           -0.244352904054
                                     Coulomb Energy ::            0.299334985138
                       Total Pseudopotential Energy ::           -0.962295316385
                       Local Pseudopotential Energy ::           -0.962295316385
                    Nonlocal Pseudopotential Energy ::            0.000000000000
                                        Confinement ::            0.191268788606

 Orbital energies  State     L     Occupation   Energy[a.u.]          Energy[eV]

                       1     0          1.000      -0.199015           -5.415480


 Total Electron Density at R=0:                                         0.242907
 PAO| Made initial guess for matrix_X with norm:   27.712812921102035     

     Lanczos converged:  T threshold:   0.100E-02
     Est. extremal eigenvalues:    0.622E+01   0.912E-01
     Est. condition number :    0.682E+02

 Order=           3
     NS sqrt iter    1 1.00000000   0.152E+01       0.021     2684.469
     NS sqrt iter    2 1.00000000   0.826E+00       0.034     3371.990
     NS sqrt iter    3 1.00000000   0.331E+00       0.034     3370.833
     NS sqrt iter    4 1.00000000   0.917E-01       0.034     3353.486
     NS sqrt iter    5 1.00000000   0.329E-02       0.034     3347.360
     NS sqrt iter    6 1.00000000   0.312E-06       0.029     2909.727
     Symmetrizing Results
     Final NS sqrt iter    6 1.00000000   0.231E-12

 PAO| Read restart DM 64H2O_ref_LS_DM_SPIN_1_RESTART.dm with checksum:    6162.8294202768675     
 PAO| Quickstep energy from restart density:  -1103.1595495777333     
 PAO| ======================= Iteration:         1 =============================

     Lanczos converged:  T threshold:   0.100E-02
     Est. extremal eigenvalues:    0.622E+01   0.912E-01
     Est. condition number :    0.682E+02

 Order=           3
     NS sqrt iter    1 1.00000000   0.152E+01       0.021     2721.111
     NS sqrt iter    2 1.00000000   0.826E+00       0.033     3384.944
     NS sqrt iter    3 1.00000000   0.331E+00       0.033     3387.788
     NS sqrt iter    4 1.00000000   0.917E-01       0.034     3367.072
     NS sqrt iter    5 1.00000000   0.329E-02       0.034     3370.960
     NS sqrt iter    6 1.00000000   0.312E-06       0.029     2913.807
     Symmetrizing Results
     Final NS sqrt iter    6 1.00000000   0.231E-12

     Est. extremal eigenvalues     -0.82839     2.60496  converged:  T
     TRS4 it   1 1.00000000   0.273E+02       0.007     2110.714   0.100E-11
     TRS4 it   2 1.00000000   0.236E+02       0.013     2189.593   0.100E-11
     TRS4 it   3 1.00000000   0.161E+02       0.013     2190.380   0.100E-11
     TRS4 it   4 1.00000000   0.101E+02       0.013     2193.667   0.100E-11
     TRS4 it   5 1.00000000   0.489E+01       0.013     2170.855   0.100E-11
     TRS4 it   6 1.00000000   0.163E+01       0.013     2188.513   0.100E-11
     TRS4 it   7 1.00000000   0.325E+00       0.013     2185.359   0.100E-11
     TRS4 it   8 1.00000000   0.238E-01       0.013     2168.258   0.100E-11
     TRS4 it   9 1.00000000   0.236E-03       0.013     2168.800   0.100E-11
     TRS4 it  10 1.00000000   0.496E-07       0.013     2206.675   0.100E-11
     TRS4 it  11 1.00000000   0.711E-14       0.013     2204.515   0.100E-11
     Final TRS4 iteration   11 1.00000000   0.711E-14
     Chemical potential (mu):       0.01468
 
 PAO| energy:  -186.27186669507032      penalty:   1.2658752338468423E-031
 PAO|CG| warming up with steepest descent
 PAO|CG| beta:    0.0000000000000000     
 PAO| norm of gradient:   3.9483043505833435     
 PAO|LS| adapt:  T F F
 PAO|LS| adapt: scan_steps:    0.0000000000000000        0.0000000000000000        0.0000000000000000     
 PAO|LS| adapt: energies:   -186.27186669507032        0.0000000000000000        0.0000000000000000     
 PAO| ======================= Iteration:         2 =============================

     Lanczos converged:  F threshold:   0.100E-02
     Est. extremal eigenvalues:    0.600E+01   0.985E-01
     Est. condition number :    0.609E+02

 Order=           3
     NS sqrt iter    1 1.00000000   0.147E+01       0.021     2690.350
     NS sqrt iter    2 1.00000000   0.797E+00       0.034     3366.272
     NS sqrt iter    3 1.00000000   0.310E+00       0.034     3377.075
     NS sqrt iter    4 1.00000000   0.771E-01       0.034     3353.232
     NS sqrt iter    5 1.00000000   0.205E-02       0.034     3370.627
     NS sqrt iter    6 1.00000000   0.876E-07       0.029     2934.430
     Symmetrizing Results
     Final NS sqrt iter    6 1.00000000   0.257E-13

     Est. extremal eigenvalues     -0.83165     2.59808  converged:  T
     TRS4 it   1 1.00000000   0.275E+02       0.007     2142.706   0.100E-11
     TRS4 it   2 1.00000000   0.235E+02       0.013     2186.326   0.100E-11
     TRS4 it   3 1.00000000   0.160E+02       0.013     2222.472   0.100E-11
     TRS4 it   4 1.00000000   0.993E+01       0.013     2182.328   0.100E-11
     TRS4 it   5 1.00000000   0.468E+01       0.013     2197.105   0.100E-11
     TRS4 it   6 1.00000000   0.150E+01       0.013     2194.516   0.100E-11
     TRS4 it   7 1.00000000   0.279E+00       0.013     2197.519   0.100E-11
     TRS4 it   8 1.00000000   0.172E-01       0.013     2192.744   0.100E-11
     TRS4 it   9 1.00000000   0.113E-03       0.013     2212.775   0.100E-11
     TRS4 it  10 1.00000000   0.128E-07       0.013     2190.385   0.100E-11
     TRS4 it  11 1.00000000   0.266E-13       0.013     2192.856   0.100E-11
     Final TRS4 iteration   11 1.00000000   0.266E-13
     Chemical potential (mu):       0.02077
 
 PAO| energy:  -187.70442572256948      penalty:   4.5986777338956937E-007
 PAO|LS| adapt:  T T F
 PAO|LS| adapt: scan_steps:    0.0000000000000000       0.10000000000000001        0.0000000000000000     
 PAO|LS| adapt: energies:   -186.27186669507032       -187.70442572256948        0.0000000000000000     
 PAO| ======================= Iteration:         3 =============================

     Lanczos converged:  F threshold:   0.100E-02
     Est. extremal eigenvalues:    0.578E+01   0.105E+00
     Est. condition number :    0.551E+02

 Order=           3
     NS sqrt iter    1 1.00000000   0.143E+01       0.021     2703.893
     NS sqrt iter    2 1.00000000   0.767E+00       0.034     3371.226
     NS sqrt iter    3 1.00000000   0.290E+00       0.034     3377.104
     NS sqrt iter    4 1.00000000   0.646E-01       0.034     3359.534
     NS sqrt iter    5 1.00000000   0.130E-02       0.034     3353.896
     NS sqrt iter    6 1.00000000   0.258E-07       0.029     2919.693
     Symmetrizing Results
     Final NS sqrt iter    6 1.00000000   0.379E-14

     Est. extremal eigenvalues     -0.83479     2.59749  converged:  T
     TRS4 it   1 1.00000000   0.277E+02       0.007     2136.875   0.100E-11
     TRS4 it   2 1.00000000   0.235E+02       0.013     2214.624   0.100E-11
     TRS4 it   3 1.00000000   0.159E+02       0.013     2217.568   0.100E-11
     TRS4 it   4 1.00000000   0.974E+01       0.013     2213.212   0.100E-11
     TRS4 it   5 1.00000000   0.448E+01       0.013     2181.921   0.100E-11
     TRS4 it   6 1.00000000   0.138E+01       0.013     2192.114   0.100E-11
     TRS4 it   7 1.00000000   0.237E+00       0.013     2198.505   0.100E-11
     TRS4 it   8 1.00000000   0.120E-01       0.013     2201.668   0.100E-11
     TRS4 it   9 1.00000000   0.506E-04       0.013     2216.977   0.100E-11
     TRS4 it  10 1.00000000   0.293E-08       0.013     2193.258   0.100E-11
     TRS4 it  11 1.00000000   0.888E-14       0.013     2187.245   0.100E-11
     Final TRS4 iteration   11 1.00000000   0.888E-14
     Chemical potential (mu):       0.02787
 
 PAO| energy:  -188.86844557871208      penalty:   7.3578843742618193E-006
 PAO|LS| adapt:  T T F
 PAO|LS| adapt: scan_steps:    0.0000000000000000       0.20000000000000001        0.0000000000000000     
 PAO|LS| adapt: energies:   -186.27186669507032       -188.86844557871208        0.0000000000000000     
 PAO| ======================= Iteration:         4 =============================

     Lanczos converged:  F threshold:   0.100E-02
     Est. extremal eigenvalues:    0.536E+01   0.116E+00
     Est. condition number :    0.463E+02

 Order=           3
     NS sqrt iter    1 1.00000000   0.135E+01       0.021     2704.109
     NS sqrt iter    2 1.00000000   0.710E+00       0.033     3389.265
     NS sqrt iter    3 1.00000000   0.252E+00       0.034     3351.860
     NS sqrt iter    4 1.00000000   0.453E-01       0.033     3387.953
     NS sqrt iter    5 1.00000000   0.531E-03       0.034     3358.700
     NS sqrt iter    6 1.00000000   0.230E-08       0.029     2889.844
     Symmetrizing Results
     Final NS sqrt iter    6 1.00000000   0.157E-13

     Est. extremal eigenvalues     -0.84013     2.60593  converged:  T
     TRS4 it   1 1.00000000   0.282E+02       0.007     2098.184   0.100E-11
     TRS4 it   2 1.00000000   0.236E+02       0.013     2198.736   0.100E-11
     TRS4 it   3 1.00000000   0.158E+02       0.013     2210.592   0.100E-11
     TRS4 it   4 1.00000000   0.942E+01       0.013     2183.180   0.100E-11
     TRS4 it   5 1.00000000   0.413E+01       0.013     2193.124   0.100E-11
     TRS4 it   6 1.00000000   0.116E+01       0.013     2190.447   0.100E-11
     TRS4 it   7 1.00000000   0.170E+00       0.013     2206.352   0.100E-11
     TRS4 it   8 1.00000000   0.570E-02       0.013     2217.279   0.100E-11
     TRS4 it   9 1.00000000   0.967E-05       0.013     2197.766   0.100E-11
     TRS4 it  10 1.00000000   0.124E-09       0.013     2181.856   0.100E-11
     Final TRS4 iteration   10 1.00000000   0.124E-09
     Chemical potential (mu):       0.04408
 
 PAO| energy:  -190.35019119238214      penalty:   1.1772614998841817E-004
 PAO|LS| Need extra step
 PAO|LS| adapt:  T T F
 PAO|LS| adapt: scan_steps:    0.0000000000000000       0.40000000000000002        0.0000000000000000     
 PAO|LS| adapt: energies:   -186.27186669507032       -190.35019119238214        0.0000000000000000     
 PAO| ======================= Iteration:         5 =============================

     Lanczos converged:  T threshold:   0.100E-02
     Est. extremal eigenvalues:    0.469E+01   0.131E+00
     Est. condition number :    0.359E+02

 Order=           3
     NS sqrt iter    1 1.00000000   0.122E+01       0.021     2702.736
     NS sqrt iter    2 1.00000000   0.618E+00       0.034     3361.146
     NS sqrt iter    3 1.00000000   0.194E+00       0.034     3371.947
     NS sqrt iter    4 1.00000000   0.236E-01       0.034     3346.352
     NS sqrt iter    5 1.00000000   0.101E-03       0.034     3366.520
     NS sqrt iter    6 1.00000000   0.221E-10       0.018     2207.580
     Symmetrizing Results
     Final NS sqrt iter    6 1.00000000   0.205E-11

     Est. extremal eigenvalues     -0.84449     2.60937  converged:  T
     TRS4 it   1 1.00000000   0.288E+02       0.007     2141.393   0.100E-11
     TRS4 it   2 1.00000000   0.236E+02       0.013     2187.635   0.100E-11
     TRS4 it   3 1.00000000   0.155E+02       0.013     2193.418   0.100E-11
     TRS4 it   4 1.00000000   0.895E+01       0.013     2196.389   0.100E-11
     TRS4 it   5 1.00000000   0.362E+01       0.013     2197.768   0.100E-11
     TRS4 it   6 1.00000000   0.870E+00       0.013     2188.059   0.100E-11
     TRS4 it   7 1.00000000   0.937E-01       0.013     2204.136   0.100E-11
     TRS4 it   8 1.00000000   0.160E-02       0.013     2200.749   0.100E-11
     TRS4 it   9 1.00000000   0.793E-06       0.013     2200.923   0.100E-11
     TRS4 it  10 1.00000000   0.103E-11       0.013     2200.016   0.100E-11
     Final TRS4 iteration   10 1.00000000   0.103E-11
     Chemical potential (mu):       0.06773
 
 PAO| energy:  -190.05327551609869      penalty:   1.8836183998165207E-003
 PAO|LS| Need extra step
 PAO|LS| adapt:  T T T
 PAO|LS| adapt: scan_steps:    0.0000000000000000       0.40000000000000002       0.80000000000000004     
 PAO|LS| adapt: energies:   -186.27186669507032       -190.35019119238214       -190.05327551609869     
 PAO|LS| adapt: suggested step_size:   0.57285491406160116     
 PAO|LS| adapt: predicted energy  -190.75871312787629     
 PAO| ======================= Iteration:         6 =============================

     Lanczos converged:  F threshold:   0.100E-02
     Est. extremal eigenvalues:    0.504E+01   0.123E+00
     Est. condition number :    0.411E+02

 Order=           3
     NS sqrt iter    1 1.00000000   0.128E+01       0.021     2703.334
     NS sqrt iter    2 1.00000000   0.666E+00       0.034     3345.552
     NS sqrt iter    3 1.00000000   0.224E+00       0.034     3353.871
     NS sqrt iter    4 1.00000000   0.337E-01       0.034     3343.641
     NS sqrt iter    5 1.00000000   0.252E-03       0.034     3354.446
     NS sqrt iter    6 1.00000000   0.293E-09       0.028     2652.854
     Symmetrizing Results
     Final NS sqrt iter    6 1.00000000   0.536E-12

     Est. extremal eigenvalues     -0.84320     2.60984  converged:  T
     TRS4 it   1 1.00000000   0.285E+02       0.007     2114.521   0.100E-11
     TRS4 it   2 1.00000000   0.236E+02       0.013     2180.796   0.100E-11
     TRS4 it   3 1.00000000   0.157E+02       0.013     2190.933   0.100E-11
     TRS4 it   4 1.00000000   0.919E+01       0.013     2192.751   0.100E-11
     TRS4 it   5 1.00000000   0.388E+01       0.013     2202.147   0.100E-11
     TRS4 it   6 1.00000000   0.101E+01       0.013     2187.930   0.100E-11
     TRS4 it   7 1.00000000   0.129E+00       0.013     2219.532   0.100E-11
     TRS4 it   8 1.00000000   0.310E-02       0.013     2177.429   0.100E-11
     TRS4 it   9 1.00000000   0.277E-05       0.013     2215.396   0.100E-11
     TRS4 it  10 1.00000000   0.110E-10       0.013     2188.545   0.100E-11
     Final TRS4 iteration   10 1.00000000   0.110E-10
     Chemical potential (mu):       0.05565
 
 PAO| energy:  -190.73199373838651      penalty:   4.9523524810428951E-004
 PAO|CG| warming up with steepest descent
 PAO|CG| beta:    0.0000000000000000     
 PAO| norm of gradient:   2.0527184995147509     
 PAO| energy improvement:  -4.4601270433161915     
 PAO| step      6                 -190.731993738  0.401E-02  0.573E+00     2.435
 PAO|LS| adapt:  T F F
 PAO|LS| adapt: scan_steps:    0.0000000000000000        0.0000000000000000        0.0000000000000000     
 PAO|LS| adapt: energies:   -190.73199373838651        0.0000000000000000        0.0000000000000000     
 PAO| ======================= Iteration:         7 =============================

     Lanczos converged:  F threshold:   0.100E-02
     Est. extremal eigenvalues:    0.489E+01   0.131E+00
     Est. condition number :    0.373E+02

 Order=           3
     NS sqrt iter    1 1.00000000   0.125E+01       0.021     2691.854
     NS sqrt iter    2 1.00000000   0.641E+00       0.033     3383.579
     NS sqrt iter    3 1.00000000   0.207E+00       0.034     3375.277
     NS sqrt iter    4 1.00000000   0.273E-01       0.034     3338.372
     NS sqrt iter    5 1.00000000   0.140E-03       0.034     3341.471
     NS sqrt iter    6 1.00000000   0.511E-10       0.022     2354.869
     Symmetrizing Results
     Final NS sqrt iter    6 1.00000000   0.211E-11

     Est. extremal eigenvalues     -0.84378     2.59742  converged:  T
     TRS4 it   1 1.00000000   0.286E+02       0.007     2121.049   0.100E-11
     TRS4 it   2 1.00000000   0.236E+02       0.013     2181.301   0.100E-11
     TRS4 it   3 1.00000000   0.157E+02       0.013     2190.624   0.100E-11
     TRS4 it   4 1.00000000   0.931E+01       0.013     2161.390   0.100E-11
     TRS4 it   5 1.00000000   0.397E+01       0.013     2193.897   0.100E-11
     TRS4 it   6 1.00000000   0.104E+01       0.013     2189.657   0.100E-11
     TRS4 it   7 1.00000000   0.130E+00       0.013     2178.251   0.100E-11
     TRS4 it   8 1.00000000   0.314E-02       0.013     2197.600   0.100E-11
     TRS4 it   9 1.00000000   0.300E-05       0.013     2179.475   0.100E-11
     TRS4 it  10 1.00000000   0.143E-10       0.013     2207.564   0.100E-11
     Final TRS4 iteration   10 1.00000000   0.143E-10
     Chemical potential (mu):       0.05795
 
 PAO| energy:  -189.80194353917352      penalty:   6.8579996060446474E-004
 PAO|LS| adapt:  T F T
 PAO|LS| adapt: scan_steps:    0.0000000000000000        0.0000000000000000       0.57285491406160116     
 PAO|LS| adapt: energies:   -190.73199373838651        0.0000000000000000       -189.80194353917352     
 PAO| ======================= Iteration:         8 =============================

     Lanczos converged:  F threshold:   0.100E-02
     Est. extremal eigenvalues:    0.496E+01   0.127E+00
     Est. condition number :    0.391E+02

 Order=           3
     NS sqrt iter    1 1.00000000   0.127E+01       0.021     2711.176
     NS sqrt iter    2 1.00000000   0.653E+00       0.034     3368.358
     NS sqrt iter    3 1.00000000   0.216E+00       0.034     3366.582
     NS sqrt iter    4 1.00000000   0.304E-01       0.034     3338.265
     NS sqrt iter    5 1.00000000   0.188E-03       0.034     3377.287
     NS sqrt iter    6 1.00000000   0.123E-09       0.026     2511.360
     Symmetrizing Results
     Final NS sqrt iter    6 1.00000000   0.145E-11

     Est. extremal eigenvalues     -0.84431     2.60427  converged:  T
     TRS4 it   1 1.00000000   0.285E+02       0.007     2105.370   0.100E-11
     TRS4 it   2 1.00000000   0.236E+02       0.013     2202.774   0.100E-11
     TRS4 it   3 1.00000000   0.157E+02       0.013     2206.364   0.100E-11
     TRS4 it   4 1.00000000   0.922E+01       0.013     2202.030   0.100E-11
     TRS4 it   5 1.00000000   0.390E+01       0.013     2186.857   0.100E-11
     TRS4 it   6 1.00000000   0.102E+01       0.013     2167.718   0.100E-11
     TRS4 it   7 1.00000000   0.128E+00       0.013     2222.458   0.100E-11
     TRS4 it   8 1.00000000   0.308E-02       0.013     2199.630   0.100E-11
     TRS4 it   9 1.00000000   0.280E-05       0.013     2197.753   0.100E-11
     TRS4 it  10 1.00000000   0.113E-10       0.013     2185.134   0.100E-11
     Final TRS4 iteration   10 1.00000000   0.113E-10
     Chemical potential (mu):       0.05555
 
 PAO| energy:  -191.08895850049441      penalty:   5.2329014412146903E-004
 PAO|LS| adapt:  T T T
 PAO|LS| adapt: scan_steps:    0.0000000000000000       0.28642745703080058       0.57285491406160116     
 PAO|LS| adapt: energies:   -190.73199373838651       -191.08895850049441       -189.80194353917352     
 PAO|LS| adapt: suggested step_size:   0.20540701934682498     
 PAO|LS| adapt: predicted energy  -191.15472827252455     
 PAO| ======================= Iteration:         9 =============================

     Lanczos converged:  F threshold:   0.100E-02
     Est. extremal eigenvalues:    0.499E+01   0.126E+00
     Est. condition number :    0.397E+02

 Order=           3
     NS sqrt iter    1 1.00000000   0.127E+01       0.021     2705.995
     NS sqrt iter    2 1.00000000   0.657E+00       0.034     3352.821
     NS sqrt iter    3 1.00000000   0.218E+00       0.034     3337.297
     NS sqrt iter    4 1.00000000   0.313E-01       0.034     3379.204
     NS sqrt iter    5 1.00000000   0.205E-03       0.034     3380.128
     NS sqrt iter    6 1.00000000   0.158E-09       0.027     2561.780
     Symmetrizing Results
     Final NS sqrt iter    6 1.00000000   0.116E-11

     Est. extremal eigenvalues     -0.84417     2.60600  converged:  T
     TRS4 it   1 1.00000000   0.285E+02       0.007     2132.022   0.100E-11
     TRS4 it   2 1.00000000   0.236E+02       0.013     2197.547   0.100E-11
     TRS4 it   3 1.00000000   0.157E+02       0.013     2181.655   0.100E-11
     TRS4 it   4 1.00000000   0.920E+01       0.013     2203.199   0.100E-11
     TRS4 it   5 1.00000000   0.389E+01       0.013     2203.639   0.100E-11
     TRS4 it   6 1.00000000   0.102E+01       0.013     2183.480   0.100E-11
     TRS4 it   7 1.00000000   0.128E+00       0.013     2215.069   0.100E-11
     TRS4 it   8 1.00000000   0.308E-02       0.013     2188.569   0.100E-11
     TRS4 it   9 1.00000000   0.277E-05       0.013     2198.155   0.100E-11
     TRS4 it  10 1.00000000   0.110E-10       0.013     2215.141   0.100E-11
     Final TRS4 iteration   10 1.00000000   0.110E-10
     Chemical potential (mu):       0.05532
 
 PAO| energy:  -191.15921842494089      penalty:   5.0618677486634280E-004
 PAO|CG| trace_G_new   0.70944552345238876     
 PAO|CG| trace_G_prev    4.2136532382500906     
 PAO|CG| trace_G_mix   -4.1791445863594345E-002
 PAO|CG| trace_D    4.2136532382500906     
 PAO|CG| trace_D_Gnew   4.1791445863594345E-002
 PAO|CG| beta:   0.17828637688942056     
 PAO| norm of gradient:  0.84228589175670554     
 PAO| energy improvement: -0.42722468655438206     
 PAO| step      9                 -191.159218425  0.165E-02  0.205E+00     1.504
 PAO|LS| adapt:  T F F
 PAO|LS| adapt: scan_steps:    0.0000000000000000        0.0000000000000000        0.0000000000000000     
 PAO|LS| adapt: energies:   -191.15921842494089        0.0000000000000000        0.0000000000000000     
 PAO| ======================= Iteration:        10 =============================

     Lanczos converged:  F threshold:   0.100E-02
     Est. extremal eigenvalues:    0.493E+01   0.129E+00
     Est. condition number :    0.382E+02

 Order=           3
     NS sqrt iter    1 1.00000000   0.126E+01       0.021     2698.025
     NS sqrt iter    2 1.00000000   0.649E+00       0.034     3364.592
     NS sqrt iter    3 1.00000000   0.212E+00       0.034     3343.662
     NS sqrt iter    4 1.00000000   0.291E-01       0.034     3310.683
     NS sqrt iter    5 1.00000000   0.165E-03       0.034     3352.847
     NS sqrt iter    6 1.00000000   0.815E-10       0.024     2461.452
     Symmetrizing Results
     Final NS sqrt iter    6 1.00000000   0.190E-11

     Est. extremal eigenvalues     -0.84464     2.59272  converged:  T
     TRS4 it   1 1.00000000   0.285E+02       0.007     2119.835   0.100E-11
     TRS4 it   2 1.00000000   0.235E+02       0.013     2197.262   0.100E-11
     TRS4 it   3 1.00000000   0.157E+02       0.013     2188.744   0.100E-11
     TRS4 it   4 1.00000000   0.918E+01       0.013     2180.839   0.100E-11
     TRS4 it   5 1.00000000   0.386E+01       0.013     2191.361   0.100E-11
     TRS4 it   6 1.00000000   0.100E+01       0.013     2194.080   0.100E-11
     TRS4 it   7 1.00000000   0.125E+00       0.013     2235.702   0.100E-11
     TRS4 it   8 1.00000000   0.292E-02       0.013     2205.892   0.100E-11
     TRS4 it   9 1.00000000   0.250E-05       0.013     2228.322   0.100E-11
     TRS4 it  10 1.00000000   0.906E-11       0.013     2218.641   0.100E-11
     Final TRS4 iteration   10 1.00000000   0.906E-11
     Chemical potential (mu):       0.05605
 
 PAO| energy:  -191.25637687477928      penalty:   5.0801900539664826E-004
 PAO|LS| adapt:  T T F
 PAO|LS| adapt: scan_steps:    0.0000000000000000       0.20540701934682498        0.0000000000000000     
 PAO|LS| adapt: energies:   -191.15921842494089       -191.25637687477928        0.0000000000000000     
 PAO| ======================= Iteration:        11 =============================

     Lanczos converged:  F threshold:   0.100E-02
     Est. extremal eigenvalues:    0.488E+01   0.132E+00
     Est. condition number :    0.369E+02

 Order=           3
     NS sqrt iter    1 1.00000000   0.125E+01       0.021     2677.833
     NS sqrt iter    2 1.00000000   0.640E+00       0.034     3363.514
     NS sqrt iter    3 1.00000000   0.207E+00       0.034     3341.912
     NS sqrt iter    4 1.00000000   0.271E-01       0.034     3350.776
     NS sqrt iter    5 1.00000000   0.132E-03       0.034     3375.864
     NS sqrt iter    6 1.00000000   0.417E-10       0.021     2305.141
     Symmetrizing Results
     Final NS sqrt iter    6 1.00000000   0.223E-11

     Est. extremal eigenvalues     -0.84492     2.57906  converged:  T
     TRS4 it   1 1.00000000   0.285E+02       0.007     2131.677   0.100E-11
     TRS4 it   2 1.00000000   0.235E+02       0.013     2190.864   0.100E-11
     TRS4 it   3 1.00000000   0.156E+02       0.013     2187.262   0.100E-11
     TRS4 it   4 1.00000000   0.916E+01       0.013     2198.303   0.100E-11
     TRS4 it   5 1.00000000   0.384E+01       0.013     2177.852   0.100E-11
     TRS4 it   6 1.00000000   0.988E+00       0.013     2187.356   0.100E-11
     TRS4 it   7 1.00000000   0.121E+00       0.013     2199.895   0.100E-11
     TRS4 it   8 1.00000000   0.275E-02       0.013     2211.002   0.100E-11
     TRS4 it   9 1.00000000   0.225E-05       0.013     2187.997   0.100E-11
     TRS4 it  10 1.00000000   0.736E-11       0.013     2212.824   0.100E-11
     Final TRS4 iteration   10 1.00000000   0.736E-11
     Chemical potential (mu):       0.05687
 
 PAO| energy:  -191.26202528967301      penalty:   5.1952245908018990E-004
 PAO|LS| adapt:  T T F
 PAO|LS| adapt: scan_steps:    0.0000000000000000       0.41081403869364996        0.0000000000000000     
 PAO|LS| adapt: energies:   -191.15921842494089       -191.26202528967301        0.0000000000000000     
 PAO| ======================= Iteration:        12 =============================

     Lanczos converged:  F threshold:   0.100E-02
     Est. extremal eigenvalues:    0.478E+01   0.139E+00
     Est. condition number :    0.344E+02

 Order=           3
     NS sqrt iter    1 1.00000000   0.123E+01       0.021     2691.884
     NS sqrt iter    2 1.00000000   0.624E+00       0.034     3356.978
     NS sqrt iter    3 1.00000000   0.197E+00       0.034     3366.418
     NS sqrt iter    4 1.00000000   0.234E-01       0.033     3381.775
     NS sqrt iter    5 1.00000000   0.846E-04       0.034     3347.589
     NS sqrt iter    6 1.00000000   0.106E-10       0.015     2131.085
     Symmetrizing Results
     Final NS sqrt iter    6 1.00000000   0.168E-11

     Est. extremal eigenvalues     -0.84494     2.55162  converged:  T
     TRS4 it   1 1.00000000   0.284E+02       0.007     2113.648   0.100E-11
     TRS4 it   2 1.00000000   0.233E+02       0.013     2204.209   0.100E-11
     TRS4 it   3 1.00000000   0.156E+02       0.013     2195.625   0.100E-11
     TRS4 it   4 1.00000000   0.910E+01       0.013     2193.172   0.100E-11
     TRS4 it   5 1.00000000   0.378E+01       0.013     2182.180   0.100E-11
     TRS4 it   6 1.00000000   0.957E+00       0.013     2185.253   0.100E-11
     TRS4 it   7 1.00000000   0.113E+00       0.013     2207.029   0.100E-11
     TRS4 it   8 1.00000000   0.240E-02       0.013     2190.120   0.100E-11
     TRS4 it   9 1.00000000   0.177E-05       0.013     2218.007   0.100E-11
     TRS4 it  10 1.00000000   0.476E-11       0.013     2180.350   0.100E-11
     Final TRS4 iteration   10 1.00000000   0.476E-11
     Chemical potential (mu):       0.05877
 
 PAO| energy:  -191.01497026742194      penalty:   5.7841071457922447E-004
 PAO|LS| Need extra step
 PAO|LS| adapt:  T T T
 PAO|LS| adapt: scan_steps:    0.0000000000000000       0.41081403869364996       0.82162807738729993     
 PAO|LS| adapt: energies:   -191.15921842494089       -191.26202528967301       -191.01497026742194     
 PAO|LS| adapt: suggested step_size:   0.32612466501613813     
 PAO|LS| adapt: predicted energy  -191.26945948432302     
 PAO| ======================= Iteration:        13 =============================

     Lanczos converged:  F threshold:   0.100E-02
     Est. extremal eigenvalues:    0.490E+01   0.131E+00
     Est. condition number :    0.374E+02

 Order=           3
     NS sqrt iter    1 1.00000000   0.126E+01       0.021     2678.874
     NS sqrt iter    2 1.00000000   0.644E+00       0.034     3364.115
     NS sqrt iter    3 1.00000000   0.209E+00       0.034     3353.686
     NS sqrt iter    4 1.00000000   0.279E-01       0.034     3374.106
     NS sqrt iter    5 1.00000000   0.145E-03       0.034     3355.255
     NS sqrt iter    6 1.00000000   0.550E-10       0.022     2360.754
     Symmetrizing Results
     Final NS sqrt iter    6 1.00000000   0.215E-11

     Est. extremal eigenvalues     -0.84482     2.58473  converged:  T
     TRS4 it   1 1.00000000   0.285E+02       0.007     2129.272   0.100E-11
     TRS4 it   2 1.00000000   0.235E+02       0.013     2178.159   0.100E-11
     TRS4 it   3 1.00000000   0.156E+02       0.013     2207.505   0.100E-11
     TRS4 it   4 1.00000000   0.917E+01       0.013     2199.341   0.100E-11
     TRS4 it   5 1.00000000   0.385E+01       0.013     2172.147   0.100E-11
     TRS4 it   6 1.00000000   0.994E+00       0.013     2193.948   0.100E-11
     TRS4 it   7 1.00000000   0.122E+00       0.013     2195.000   0.100E-11
     TRS4 it   8 1.00000000   0.282E-02       0.013     2169.072   0.100E-11
     TRS4 it   9 1.00000000   0.235E-05       0.013     2219.678   0.100E-11
     TRS4 it  10 1.00000000   0.800E-11       0.013     2207.014   0.100E-11
     Final TRS4 iteration   10 1.00000000   0.800E-11
     Chemical potential (mu):       0.05652
 
 PAO| energy:  -191.27053059792391      penalty:   5.1352859192024781E-004
 PAO|CG| trace_G_new   0.27275629018174807     
 PAO|CG| trace_G_prev   0.70944552345238876     
 PAO|CG| trace_G_mix   -1.1370224433109881E-002
 PAO|CG| trace_D   0.82847914996114302     
 PAO|CG| trace_D_Gnew   1.1473189415936013E-002
 PAO|CG| beta:   0.40049095416404557     
 PAO| norm of gradient:  0.52226074922566035     
 PAO| energy improvement: -0.11131217298301976     
 PAO| step     13                 -191.270530598  0.102E-02  0.326E+00     1.936
 PAO|LS| adapt:  T F F
 PAO|LS| adapt: scan_steps:    0.0000000000000000        0.0000000000000000        0.0000000000000000     
 PAO|LS| adapt: energies:   -191.27053059792391        0.0000000000000000        0.0000000000000000     
 PAO| ======================= Iteration:        14 =============================

     Lanczos converged:  F threshold:   0.100E-02
     Est. extremal eigenvalues:    0.483E+01   0.134E+00
     Est. condition number :    0.361E+02

 Order=           3
     NS sqrt iter    1 1.00000000   0.124E+01       0.021     2699.747
     NS sqrt iter    2 1.00000000   0.633E+00       0.034     3358.400
     NS sqrt iter    3 1.00000000   0.203E+00       0.034     3377.523
     NS sqrt iter    4 1.00000000   0.258E-01       0.034     3362.980
     NS sqrt iter    5 1.00000000   0.116E-03       0.034     3348.365
     NS sqrt iter    6 1.00000000   0.287E-10       0.019     2231.636
     Symmetrizing Results
     Final NS sqrt iter    6 1.00000000   0.216E-11

     Est. extremal eigenvalues     -0.84517     2.57817  converged:  T
     TRS4 it   1 1.00000000   0.285E+02       0.007     2106.346   0.100E-11
     TRS4 it   2 1.00000000   0.234E+02       0.013     2178.819   0.100E-11
     TRS4 it   3 1.00000000   0.156E+02       0.013     2207.493   0.100E-11
     TRS4 it   4 1.00000000   0.911E+01       0.013     2179.627   0.100E-11
     TRS4 it   5 1.00000000   0.379E+01       0.013     2181.135   0.100E-11
     TRS4 it   6 1.00000000   0.964E+00       0.013     2197.118   0.100E-11
     TRS4 it   7 1.00000000   0.115E+00       0.013     2196.050   0.100E-11
     TRS4 it   8 1.00000000   0.249E-02       0.013     2191.938   0.100E-11
     TRS4 it   9 1.00000000   0.187E-05       0.013     2201.781   0.100E-11
     TRS4 it  10 1.00000000   0.517E-11       0.013     2191.132   0.100E-11
     Final TRS4 iteration   10 1.00000000   0.517E-11
     Chemical potential (mu):       0.05833
 
 PAO| energy:  -191.32230178674340      penalty:   5.1464652301480118E-004
 PAO|LS| adapt:  T T F
 PAO|LS| adapt: scan_steps:    0.0000000000000000       0.32612466501613813        0.0000000000000000     
 PAO|LS| adapt: energies:   -191.27053059792391       -191.32230178674340        0.0000000000000000     
 PAO| ======================= Iteration:        15 =============================

     Lanczos converged:  F threshold:   0.100E-02
     Est. extremal eigenvalues:    0.477E+01   0.136E+00
     Est. condition number :    0.350E+02

 Order=           3
     NS sqrt iter    1 1.00000000   0.123E+01       0.021     2689.266
     NS sqrt iter    2 1.00000000   0.623E+00       0.034     3373.623
     NS sqrt iter    3 1.00000000   0.197E+00       0.034     3364.840
     NS sqrt iter    4 1.00000000   0.239E-01       0.034     3377.364
     NS sqrt iter    5 1.00000000   0.937E-04       0.034     3360.037
     NS sqrt iter    6 1.00000000   0.151E-10       0.016     2146.261
     Symmetrizing Results
     Final NS sqrt iter    6 1.00000000   0.193E-11

     Est. extremal eigenvalues     -0.84526     2.57140  converged:  T
     TRS4 it   1 1.00000000   0.285E+02       0.007     2126.170   0.100E-11
     TRS4 it   2 1.00000000   0.234E+02       0.013     2204.622   0.100E-11
     TRS4 it   3 1.00000000   0.156E+02       0.013     2177.657   0.100E-11
     TRS4 it   4 1.00000000   0.905E+01       0.013     2208.348   0.100E-11
     TRS4 it   5 1.00000000   0.373E+01       0.013     2191.893   0.100E-11
     TRS4 it   6 1.00000000   0.934E+00       0.013     2210.664   0.100E-11
     TRS4 it   7 1.00000000   0.108E+00       0.013     2203.996   0.100E-11
     TRS4 it   8 1.00000000   0.221E-02       0.013     2187.200   0.100E-11
     TRS4 it   9 1.00000000   0.149E-05       0.013     2190.649   0.100E-11
     TRS4 it  10 1.00000000   0.336E-11       0.013     2185.725   0.100E-11
     Final TRS4 iteration   10 1.00000000   0.336E-11
     Chemical potential (mu):       0.06003
 
 PAO| energy:  -191.30377343907224      penalty:   5.3042074671268168E-004
 PAO|LS| adapt:  T T T
 PAO|LS| adapt: scan_steps:    0.0000000000000000       0.32612466501613813       0.65224933003227625     
 PAO|LS| adapt: energies:   -191.27053059792391       -191.32230178674340       -191.30377343907224     
 PAO|LS| adapt: suggested step_size:   0.40323264449143509     
 PAO|LS| adapt: predicted energy  -191.32426674722319     
 PAO| ======================= Iteration:        16 =============================

     Lanczos converged:  F threshold:   0.100E-02
     Est. extremal eigenvalues:    0.482E+01   0.134E+00
     Est. condition number :    0.359E+02

 Order=           3
     NS sqrt iter    1 1.00000000   0.124E+01       0.021     2673.689
     NS sqrt iter    2 1.00000000   0.631E+00       0.033     3385.397
     NS sqrt iter    3 1.00000000   0.202E+00       0.033     3390.987
     NS sqrt iter    4 1.00000000   0.253E-01       0.034     3370.990
     NS sqrt iter    5 1.00000000   0.110E-03       0.034     3361.811
     NS sqrt iter    6 1.00000000   0.246E-10       0.019     2174.400
     Symmetrizing Results
     Final NS sqrt iter    6 1.00000000   0.216E-11

     Est. extremal eigenvalues     -0.84521     2.57658  converged:  T
     TRS4 it   1 1.00000000   0.285E+02       0.007     2117.425   0.100E-11
     TRS4 it   2 1.00000000   0.234E+02       0.013     2176.318   0.100E-11
     TRS4 it   3 1.00000000   0.156E+02       0.013     2221.950   0.100E-11
     TRS4 it   4 1.00000000   0.910E+01       0.013     2208.674   0.100E-11
     TRS4 it   5 1.00000000   0.378E+01       0.013     2193.422   0.100E-11
     TRS4 it   6 1.00000000   0.957E+00       0.013     2187.151   0.100E-11
     TRS4 it   7 1.00000000   0.114E+00       0.013     2206.032   0.100E-11
     TRS4 it   8 1.00000000   0.242E-02       0.013     2170.537   0.100E-11
     TRS4 it   9 1.00000000   0.177E-05       0.013     2187.556   0.100E-11
     TRS4 it  10 1.00000000   0.468E-11       0.013     2193.611   0.100E-11
     Final TRS4 iteration   10 1.00000000   0.468E-11
     Chemical potential (mu):       0.05874
 
 PAO| energy:  -191.32420625227743      penalty:   5.1700138794735274E-004
 PAO|CG| trace_G_new   0.10525152001488004     
 PAO|CG| trace_G_prev   0.27275629018174807     
 PAO|CG| trace_G_mix    4.2657104749363193E-003
 PAO|CG| trace_D   0.39644873294663663     
 PAO|CG| trace_D_Gnew   6.9406037286056342E-004
 PAO|CG| beta:   0.37024190889476083     
 PAO| norm of gradient:  0.32442490658838147     
 PAO| energy improvement:  -5.3675654353526170E-002
 PAO| step     16                 -191.324206252  0.634E-03  0.403E+00     1.483
 PAO|LS| adapt:  T F F
 PAO|LS| adapt: scan_steps:    0.0000000000000000        0.0000000000000000        0.0000000000000000     
 PAO|LS| adapt: energies:   -191.32420625227743        0.0000000000000000        0.0000000000000000     
 PAO| ======================= Iteration:        17 =============================

     Lanczos converged:  F threshold:   0.100E-02
     Est. extremal eigenvalues:    0.478E+01   0.135E+00
     Est. condition number :    0.353E+02

 Order=           3
     NS sqrt iter    1 1.00000000   0.123E+01       0.021     2677.362
     NS sqrt iter    2 1.00000000   0.626E+00       0.034     3370.061
     NS sqrt iter    3 1.00000000   0.199E+00       0.034     3351.286
     NS sqrt iter    4 1.00000000   0.245E-01       0.033     3392.437
     NS sqrt iter    5 1.00000000   0.100E-03       0.034     3364.799
     NS sqrt iter    6 1.00000000   0.185E-10       0.017     2168.351
     Symmetrizing Results
     Final NS sqrt iter    6 1.00000000   0.202E-11

     Est. extremal eigenvalues     -0.84530     2.57361  converged:  T
     TRS4 it   1 1.00000000   0.285E+02       0.007     2121.463   0.100E-11
     TRS4 it   2 1.00000000   0.234E+02       0.013     2188.601   0.100E-11
     TRS4 it   3 1.00000000   0.156E+02       0.013     2219.430   0.100E-11
     TRS4 it   4 1.00000000   0.904E+01       0.013     2205.673   0.100E-11
     TRS4 it   5 1.00000000   0.373E+01       0.013     2199.382   0.100E-11
     TRS4 it   6 1.00000000   0.935E+00       0.013     2205.606   0.100E-11
     TRS4 it   7 1.00000000   0.109E+00       0.013     2208.943   0.100E-11
     TRS4 it   8 1.00000000   0.223E-02       0.013     2194.117   0.100E-11
     TRS4 it   9 1.00000000   0.151E-05       0.013     2205.073   0.100E-11
     TRS4 it  10 1.00000000   0.345E-11       0.013     2218.185   0.100E-11
     Final TRS4 iteration   10 1.00000000   0.345E-11
     Chemical potential (mu):       0.05993
 
 PAO| energy:  -191.32794351043265      penalty:   5.0933718961918343E-004
 PAO|LS| adapt:  T T F
 PAO|LS| adapt: scan_steps:    0.0000000000000000       0.40323264449143509        0.0000000000000000     
 PAO|LS| adapt: energies:   -191.32420625227743       -191.32794351043265        0.0000000000000000     
 PAO| ======================= Iteration:        18 =============================

     Lanczos converged:  F threshold:   0.100E-02
     Est. extremal eigenvalues:    0.474E+01   0.136E+00
     Est. condition number :    0.348E+02

 Order=           3
     NS sqrt iter    1 1.00000000   0.122E+01       0.021     2713.951
     NS sqrt iter    2 1.00000000   0.621E+00       0.034     3354.147
     NS sqrt iter    3 1.00000000   0.196E+00       0.034     3368.498
     NS sqrt iter    4 1.00000000   0.237E-01       0.034     3366.533
     NS sqrt iter    5 1.00000000   0.916E-04       0.034     3374.530
     NS sqrt iter    6 1.00000000   0.140E-10       0.016     2142.470
     Symmetrizing Results
     Final NS sqrt iter    6 1.00000000   0.186E-11

     Est. extremal eigenvalues     -0.84524     2.57044  converged:  T
     TRS4 it   1 1.00000000   0.286E+02       0.007     2133.121   0.100E-11
     TRS4 it   2 1.00000000   0.234E+02       0.013     2207.576   0.100E-11
     TRS4 it   3 1.00000000   0.155E+02       0.013     2199.618   0.100E-11
     TRS4 it   4 1.00000000   0.900E+01       0.013     2199.847   0.100E-11
     TRS4 it   5 1.00000000   0.369E+01       0.013     2216.421   0.100E-11
     TRS4 it   6 1.00000000   0.914E+00       0.013     2199.489   0.100E-11
     TRS4 it   7 1.00000000   0.104E+00       0.013     2206.877   0.100E-11
     TRS4 it   8 1.00000000   0.205E-02       0.013     2191.241   0.100E-11
     TRS4 it   9 1.00000000   0.129E-05       0.013     2204.424   0.100E-11
     TRS4 it  10 1.00000000   0.260E-11       0.013     2188.911   0.100E-11
     Final TRS4 iteration   10 1.00000000   0.260E-11
     Chemical potential (mu):       0.06121
 
 PAO| energy:  -191.25425731821969      penalty:   5.0986041047651096E-004
 PAO|LS| adapt:  T T T
 PAO|LS| adapt: scan_steps:    0.0000000000000000       0.40323264449143509       0.80646528898287018     
 PAO|LS| adapt: energies:   -191.32420625227743       -191.32794351043265       -191.25425731821969     
 PAO|LS| adapt: suggested step_size:   0.22108050889597824     
 PAO|LS| adapt: predicted energy  -191.33584301205738     
 PAO| ======================= Iteration:        19 =============================

     Lanczos converged:  F threshold:   0.100E-02
     Est. extremal eigenvalues:    0.480E+01   0.135E+00
     Est. condition number :    0.355E+02

 Order=           3
     NS sqrt iter    1 1.00000000   0.123E+01       0.021     2672.001
     NS sqrt iter    2 1.00000000   0.628E+00       0.033     3387.495
     NS sqrt iter    3 1.00000000   0.200E+00       0.033     3380.971
     NS sqrt iter    4 1.00000000   0.249E-01       0.034     3372.913
     NS sqrt iter    5 1.00000000   0.105E-03       0.034     3380.389
     NS sqrt iter    6 1.00000000   0.210E-10       0.018     2181.336
     Symmetrizing Results
     Final NS sqrt iter    6 1.00000000   0.210E-11

     Est. extremal eigenvalues     -0.84528     2.57498  converged:  T
     TRS4 it   1 1.00000000   0.285E+02       0.007     2096.990   0.100E-11
     TRS4 it   2 1.00000000   0.234E+02       0.013     2174.453   0.100E-11
     TRS4 it   3 1.00000000   0.156E+02       0.013     2205.716   0.100E-11
     TRS4 it   4 1.00000000   0.907E+01       0.013     2203.506   0.100E-11
     TRS4 it   5 1.00000000   0.375E+01       0.013     2184.960   0.100E-11
     TRS4 it   6 1.00000000   0.945E+00       0.013     2172.610   0.100E-11
     TRS4 it   7 1.00000000   0.111E+00       0.013     2203.600   0.100E-11
     TRS4 it   8 1.00000000   0.231E-02       0.013     2179.917   0.100E-11
     TRS4 it   9 1.00000000   0.162E-05       0.013     2210.386   0.100E-11
     TRS4 it  10 1.00000000   0.395E-11       0.013     2188.475   0.100E-11
     Final TRS4 iteration   10 1.00000000   0.395E-11
     Chemical potential (mu):       0.05938
 
 PAO| energy:  -191.33582452449352      penalty:   5.1180168677238060E-004
 PAO|CG| trace_G_new    2.1864621842700365E-002
 PAO|CG| trace_G_prev   0.10525152001488004     
 PAO|CG| trace_G_mix   -3.6140235460568979E-004
 PAO|CG| trace_D   0.15908240359211206     
 PAO|CG| trace_D_Gnew  -5.6726409604254701E-005
 PAO|CG| beta:   0.21117057686353438     
 PAO| norm of gradient:  0.14786690584001669     
 PAO| energy improvement:  -1.1618272216082914E-002
 PAO| step     19                 -191.335824524  0.289E-03  0.221E+00     1.477
 PAO|LS| adapt:  T F F
 PAO|LS| adapt: scan_steps:    0.0000000000000000        0.0000000000000000        0.0000000000000000     
 PAO|LS| adapt: energies:   -191.33582452449352        0.0000000000000000        0.0000000000000000     
 PAO| ======================= Iteration:        20 =============================

     Lanczos converged:  F threshold:   0.100E-02
     Est. extremal eigenvalues:    0.479E+01   0.135E+00
     Est. condition number :    0.355E+02

 Order=           3
     NS sqrt iter    1 1.00000000   0.123E+01       0.021     2685.359
     NS sqrt iter    2 1.00000000   0.628E+00       0.033     3402.327
     NS sqrt iter    3 1.00000000   0.200E+00       0.033     3385.205
     NS sqrt iter    4 1.00000000   0.249E-01       0.034     3367.492
     NS sqrt iter    5 1.00000000   0.104E-03       0.033     3389.501
     NS sqrt iter    6 1.00000000   0.208E-10       0.018     2187.164
     Symmetrizing Results
     Final NS sqrt iter    6 1.00000000   0.209E-11

     Est. extremal eigenvalues     -0.84529     2.57344  converged:  T
     TRS4 it   1 1.00000000   0.285E+02       0.007     2117.514   0.100E-11
     TRS4 it   2 1.00000000   0.234E+02       0.013     2216.112   0.100E-11
     TRS4 it   3 1.00000000   0.156E+02       0.013     2179.800   0.100E-11
     TRS4 it   4 1.00000000   0.905E+01       0.013     2199.768   0.100E-11
     TRS4 it   5 1.00000000   0.374E+01       0.013     2208.372   0.100E-11
     TRS4 it   6 1.00000000   0.940E+00       0.013     2194.694   0.100E-11
     TRS4 it   7 1.00000000   0.110E+00       0.013     2193.496   0.100E-11
     TRS4 it   8 1.00000000   0.227E-02       0.013     2204.880   0.100E-11
     TRS4 it   9 1.00000000   0.157E-05       0.013     2204.682   0.100E-11
     TRS4 it  10 1.00000000   0.372E-11       0.013     2176.933   0.100E-11
     Final TRS4 iteration   10 1.00000000   0.372E-11
     Chemical potential (mu):       0.05959
 
 PAO| energy:  -191.33974071116404      penalty:   5.0193957438033634E-004
 PAO|LS| adapt:  T T F
 PAO|LS| adapt: scan_steps:    0.0000000000000000       0.22108050889597824        0.0000000000000000     
 PAO|LS| adapt: energies:   -191.33582452449352       -191.33974071116404        0.0000000000000000     
 PAO| ======================= Iteration:        21 =============================

     Lanczos converged:  F threshold:   0.100E-02
     Est. extremal eigenvalues:    0.479E+01   0.135E+00
     Est. condition number :    0.355E+02

 Order=           3
     NS sqrt iter    1 1.00000000   0.123E+01       0.021     2711.384
     NS sqrt iter    2 1.00000000   0.627E+00       0.034     3365.332
     NS sqrt iter    3 1.00000000   0.200E+00       0.034     3354.370
     NS sqrt iter    4 1.00000000   0.248E-01       0.034     3349.971
     NS sqrt iter    5 1.00000000   0.104E-03       0.034     3379.754
     NS sqrt iter    6 1.00000000   0.205E-10       0.018     2176.935
     Symmetrizing Results
     Final NS sqrt iter    6 1.00000000   0.208E-11

     Est. extremal eigenvalues     -0.84529     2.57188  converged:  T
     TRS4 it   1 1.00000000   0.285E+02       0.007     2102.527   0.100E-11
     TRS4 it   2 1.00000000   0.234E+02       0.013     2209.754   0.100E-11
     TRS4 it   3 1.00000000   0.156E+02       0.013     2191.658   0.100E-11
     TRS4 it   4 1.00000000   0.904E+01       0.013     2205.029   0.100E-11
     TRS4 it   5 1.00000000   0.373E+01       0.013     2202.381   0.100E-11
     TRS4 it   6 1.00000000   0.935E+00       0.013     2201.515   0.100E-11
     TRS4 it   7 1.00000000   0.109E+00       0.013     2167.377   0.100E-11
     TRS4 it   8 1.00000000   0.223E-02       0.013     2194.751   0.100E-11
     TRS4 it   9 1.00000000   0.152E-05       0.013     2192.905   0.100E-11
     TRS4 it  10 1.00000000   0.347E-11       0.013     2218.595   0.100E-11
     Final TRS4 iteration   10 1.00000000   0.347E-11
     Chemical potential (mu):       0.05981
 
 PAO| energy:  -191.34180259547483      penalty:   4.9252885785586490E-004
 PAO|LS| adapt:  T T F
 PAO|LS| adapt: scan_steps:    0.0000000000000000       0.44216101779195649        0.0000000000000000     
 PAO|LS| adapt: energies:   -191.33582452449352       -191.34180259547483        0.0000000000000000     
 PAO| ======================= Iteration:        22 =============================

     Lanczos converged:  F threshold:   0.100E-02
     Est. extremal eigenvalues:    0.478E+01   0.135E+00
     Est. condition number :    0.354E+02

 Order=           3
     NS sqrt iter    1 1.00000000   0.123E+01       0.021     2698.137
     NS sqrt iter    2 1.00000000   0.626E+00       0.034     3377.777
     NS sqrt iter    3 1.00000000   0.200E+00       0.034     3357.306
     NS sqrt iter    4 1.00000000   0.248E-01       0.034     3358.650
     NS sqrt iter    5 1.00000000   0.104E-03       0.033     3406.617
     NS sqrt iter    6 1.00000000   0.201E-10       0.017     2177.803
     Symmetrizing Results
     Final NS sqrt iter    6 1.00000000   0.206E-11

     Est. extremal eigenvalues     -0.84530     2.56871  converged:  T
     TRS4 it   1 1.00000000   0.285E+02       0.007     2139.729   0.100E-11
     TRS4 it   2 1.00000000   0.234E+02       0.013     2196.033   0.100E-11
     TRS4 it   3 1.00000000   0.155E+02       0.013     2204.530   0.100E-11
     TRS4 it   4 1.00000000   0.902E+01       0.013     2215.458   0.100E-11
     TRS4 it   5 1.00000000   0.371E+01       0.013     2177.669   0.100E-11
     TRS4 it   6 1.00000000   0.926E+00       0.013     2170.966   0.100E-11
     TRS4 it   7 1.00000000   0.107E+00       0.013     2175.345   0.100E-11
     TRS4 it   8 1.00000000   0.216E-02       0.013     2204.834   0.100E-11
     TRS4 it   9 1.00000000   0.142E-05       0.013     2198.629   0.100E-11
     TRS4 it  10 1.00000000   0.307E-11       0.013     2221.100   0.100E-11
     Final TRS4 iteration   10 1.00000000   0.307E-11
     Chemical potential (mu):       0.06024
 
 PAO| energy:  -191.34028059791618      penalty:   4.7503200872322788E-004
 PAO|LS| Need extra step
 PAO|LS| adapt:  T T T
 PAO|LS| adapt: scan_steps:    0.0000000000000000       0.44216101779195649       0.88432203558391298     
 PAO|LS| adapt: energies:   -191.33582452449352       -191.34180259547483       -191.34028059791618     
 PAO|LS| adapt: suggested step_size:   0.57351328140253388     
 PAO|LS| adapt: predicted energy  -191.34213353562293     
 PAO| ======================= Iteration:        23 =============================

     Lanczos converged:  F threshold:   0.100E-02
     Est. extremal eigenvalues:    0.478E+01   0.135E+00
     Est. condition number :    0.354E+02

 Order=           3
     NS sqrt iter    1 1.00000000   0.123E+01       0.021     2712.185
     NS sqrt iter    2 1.00000000   0.627E+00       0.034     3358.245
     NS sqrt iter    3 1.00000000   0.200E+00       0.034     3345.347
     NS sqrt iter    4 1.00000000   0.248E-01       0.033     3381.394
     NS sqrt iter    5 1.00000000   0.104E-03       0.034     3377.917
     NS sqrt iter    6 1.00000000   0.204E-10       0.018     2171.212
     Symmetrizing Results
     Final NS sqrt iter    6 1.00000000   0.207E-11

     Est. extremal eigenvalues     -0.84530     2.57094  converged:  T
     TRS4 it   1 1.00000000   0.285E+02       0.007     2124.085   0.100E-11
     TRS4 it   2 1.00000000   0.234E+02       0.013     2191.775   0.100E-11
     TRS4 it   3 1.00000000   0.156E+02       0.013     2200.849   0.100E-11
     TRS4 it   4 1.00000000   0.903E+01       0.013     2219.924   0.100E-11
     TRS4 it   5 1.00000000   0.372E+01       0.013     2210.458   0.100E-11
     TRS4 it   6 1.00000000   0.932E+00       0.013     2213.761   0.100E-11
     TRS4 it   7 1.00000000   0.108E+00       0.013     2195.593   0.100E-11
     TRS4 it   8 1.00000000   0.221E-02       0.013     2188.347   0.100E-11
     TRS4 it   9 1.00000000   0.149E-05       0.013     2202.503   0.100E-11
     TRS4 it  10 1.00000000   0.332E-11       0.013     2179.916   0.100E-11
     Final TRS4 iteration   10 1.00000000   0.332E-11
     Chemical potential (mu):       0.05994
 
 PAO| energy:  -191.34214104049573      penalty:   4.8714811265971773E-004
 PAO|CG| trace_G_new    1.7685622978289371E-002
 PAO|CG| trace_G_prev    2.1864621842700365E-002
 PAO|CG| trace_G_mix    1.1318940294780364E-004
 PAO|CG| trace_D    2.8982543357122810E-002
 PAO|CG| trace_D_Gnew  -4.6141946696194965E-005
 PAO|CG| beta:   0.80369254505118415     
 PAO| norm of gradient:  0.13298730382367097     
 PAO| energy improvement:  -6.3165160022151667E-003
 PAO| step     23                 -191.342141040  0.260E-03  0.574E+00     1.917
 PAO|LS| adapt:  T F F
 PAO|LS| adapt: scan_steps:    0.0000000000000000        0.0000000000000000        0.0000000000000000     
 PAO|LS| adapt: energies:   -191.34214104049573        0.0000000000000000        0.0000000000000000     
 PAO| ======================= Iteration:        24 =============================

     Lanczos converged:  F threshold:   0.100E-02
     Est. extremal eigenvalues:    0.477E+01   0.135E+00
     Est. condition number :    0.354E+02

 Order=           3
     NS sqrt iter    1 1.00000000   0.123E+01       0.021     2728.023
     NS sqrt iter    2 1.00000000   0.625E+00       0.033     3383.150
     NS sqrt iter    3 1.00000000   0.200E+00       0.034     3376.418
     NS sqrt iter    4 1.00000000   0.248E-01       0.034     3316.528
     NS sqrt iter    5 1.00000000   0.104E-03       0.034     3358.223
     NS sqrt iter    6 1.00000000   0.203E-10       0.017     2179.795
     Symmetrizing Results
     Final NS sqrt iter    6 1.00000000   0.206E-11

     Est. extremal eigenvalues     -0.84531     2.56690  converged:  T
     TRS4 it   1 1.00000000   0.285E+02       0.007     2119.750   0.100E-11
     TRS4 it   2 1.00000000   0.233E+02       0.013     2192.780   0.100E-11
     TRS4 it   3 1.00000000   0.155E+02       0.013     2202.885   0.100E-11
     TRS4 it   4 1.00000000   0.900E+01       0.013     2218.878   0.100E-11
     TRS4 it   5 1.00000000   0.370E+01       0.013     2173.229   0.100E-11
     TRS4 it   6 1.00000000   0.921E+00       0.013     2193.665   0.100E-11
     TRS4 it   7 1.00000000   0.106E+00       0.013     2196.152   0.100E-11
     TRS4 it   8 1.00000000   0.212E-02       0.013     2184.170   0.100E-11
     TRS4 it   9 1.00000000   0.138E-05       0.013     2200.742   0.100E-11
     TRS4 it  10 1.00000000   0.290E-11       0.013     2199.492   0.100E-11
     Final TRS4 iteration   10 1.00000000   0.290E-11
     Chemical potential (mu):       0.06040
 
 PAO| energy:  -191.34559418024321      penalty:   4.4805422119473156E-004
 PAO|LS| adapt:  T T F
 PAO|LS| adapt: scan_steps:    0.0000000000000000       0.57351328140253388        0.0000000000000000     
 PAO|LS| adapt: energies:   -191.34214104049573       -191.34559418024321        0.0000000000000000     
 PAO| ======================= Iteration:        25 =============================

     Lanczos converged:  F threshold:   0.100E-02
     Est. extremal eigenvalues:    0.475E+01   0.134E+00
     Est. condition number :    0.354E+02

 Order=           3
     NS sqrt iter    1 1.00000000   0.122E+01       0.021     2679.144
     NS sqrt iter    2 1.00000000   0.624E+00       0.034     3377.865
     NS sqrt iter    3 1.00000000   0.199E+00       0.034     3350.945
     NS sqrt iter    4 1.00000000   0.248E-01       0.034     3364.085
     NS sqrt iter    5 1.00000000   0.104E-03       0.034     3361.164
     NS sqrt iter    6 1.00000000   0.205E-10       0.017     2200.035
     Symmetrizing Results
     Final NS sqrt iter    6 1.00000000   0.204E-11

     Est. extremal eigenvalues     -0.84529     2.56262  converged:  T
     TRS4 it   1 1.00000000   0.285E+02       0.007     2127.136   0.100E-11
     TRS4 it   2 1.00000000   0.233E+02       0.013     2192.350   0.100E-11
     TRS4 it   3 1.00000000   0.155E+02       0.013     2222.050   0.100E-11
     TRS4 it   4 1.00000000   0.897E+01       0.013     2208.035   0.100E-11
     TRS4 it   5 1.00000000   0.367E+01       0.013     2172.627   0.100E-11
     TRS4 it   6 1.00000000   0.910E+00       0.013     2224.251   0.100E-11
     TRS4 it   7 1.00000000   0.104E+00       0.013     2180.058   0.100E-11
     TRS4 it   8 1.00000000   0.204E-02       0.013     2205.682   0.100E-11
     TRS4 it   9 1.00000000   0.128E-05       0.013     2210.980   0.100E-11
     TRS4 it  10 1.00000000   0.251E-11       0.013     2217.514   0.100E-11
     Final TRS4 iteration   10 1.00000000   0.251E-11
     Chemical potential (mu):       0.06086
 
 PAO| energy:  -191.33537686791607      penalty:   4.1346920746980373E-004
 PAO|LS| adapt:  T T T
 PAO|LS| adapt: scan_steps:    0.0000000000000000       0.57351328140253388        1.1470265628050678     
 PAO|LS| adapt: energies:   -191.34214104049573       -191.34559418024321       -191.33537686791607     
 PAO|LS| adapt: suggested step_size:   0.43162540560438750     
 PAO|LS| adapt: predicted energy  -191.34601254635172     
 PAO| ======================= Iteration:        26 =============================

     Lanczos converged:  F threshold:   0.100E-02
     Est. extremal eigenvalues:    0.477E+01   0.135E+00
     Est. condition number :    0.354E+02

 Order=           3
     NS sqrt iter    1 1.00000000   0.123E+01       0.021     2681.190
     NS sqrt iter    2 1.00000000   0.626E+00       0.034     3341.518
     NS sqrt iter    3 1.00000000   0.200E+00       0.034     3342.312
     NS sqrt iter    4 1.00000000   0.248E-01       0.034     3357.966
     NS sqrt iter    5 1.00000000   0.104E-03       0.034     3354.396
     NS sqrt iter    6 1.00000000   0.203E-10       0.017     2176.839
     Symmetrizing Results
     Final NS sqrt iter    6 1.00000000   0.206E-11

     Est. extremal eigenvalues     -0.84531     2.56792  converged:  T
     TRS4 it   1 1.00000000   0.285E+02       0.007     2135.942   0.100E-11
     TRS4 it   2 1.00000000   0.234E+02       0.013     2165.460   0.100E-11
     TRS4 it   3 1.00000000   0.155E+02       0.013     2226.877   0.100E-11
     TRS4 it   4 1.00000000   0.901E+01       0.013     2205.478   0.100E-11
     TRS4 it   5 1.00000000   0.370E+01       0.013     2199.118   0.100E-11
     TRS4 it   6 1.00000000   0.924E+00       0.013     2195.522   0.100E-11
     TRS4 it   7 1.00000000   0.107E+00       0.013     2236.934   0.100E-11
     TRS4 it   8 1.00000000   0.214E-02       0.013     2224.630   0.100E-11
     TRS4 it   9 1.00000000   0.141E-05       0.013     2210.958   0.100E-11
     TRS4 it  10 1.00000000   0.295E-11       0.013     2228.986   0.100E-11
     Final TRS4 iteration   10 1.00000000   0.295E-11
     Chemical potential (mu):       0.06029
 
 PAO| energy:  -191.34599800721614      penalty:   4.5729771214334192E-004
 PAO|CG| trace_G_new    1.4185439379816095E-002
 PAO|CG| trace_G_prev    1.7685622978289371E-002
 PAO|CG| trace_G_mix    2.9228345512322254E-004
 PAO|CG| trace_D    3.6480244733026565E-002
 PAO|CG| trace_D_Gnew  -8.8832210038140640E-005
 PAO|CG| beta:   0.78556214512476719     
 PAO| norm of gradient:  0.11910264220333693     
 PAO| energy improvement:  -3.8569667204058078E-003
 PAO| step     26                 -191.345998007  0.233E-03  0.432E+00     1.481
 PAO|LS| adapt:  T F F
 PAO|LS| adapt: scan_steps:    0.0000000000000000        0.0000000000000000        0.0000000000000000     
 PAO|LS| adapt: energies:   -191.34599800721614        0.0000000000000000        0.0000000000000000     
 PAO| ======================= Iteration:        27 =============================

     Lanczos converged:  F threshold:   0.100E-02
     Est. extremal eigenvalues:    0.476E+01   0.134E+00
     Est. condition number :    0.355E+02

 Order=           3
     NS sqrt iter    1 1.00000000   0.122E+01       0.021     2712.067
     NS sqrt iter    2 1.00000000   0.624E+00       0.034     3369.779
     NS sqrt iter    3 1.00000000   0.199E+00       0.034     3350.353
     NS sqrt iter    4 1.00000000   0.247E-01       0.034     3361.396
     NS sqrt iter    5 1.00000000   0.104E-03       0.034     3369.225
     NS sqrt iter    6 1.00000000   0.204E-10       0.017     2181.926
     Symmetrizing Results
     Final NS sqrt iter    6 1.00000000   0.206E-11

     Est. extremal eigenvalues     -0.84533     2.56559  converged:  T
     TRS4 it   1 1.00000000   0.285E+02       0.007     2110.435   0.100E-11
     TRS4 it   2 1.00000000   0.233E+02       0.013     2210.266   0.100E-11
     TRS4 it   3 1.00000000   0.155E+02       0.013     2192.732   0.100E-11
     TRS4 it   4 1.00000000   0.899E+01       0.013     2202.902   0.100E-11
     TRS4 it   5 1.00000000   0.368E+01       0.013     2203.277   0.100E-11
     TRS4 it   6 1.00000000   0.915E+00       0.013     2195.618   0.100E-11
     TRS4 it   7 1.00000000   0.105E+00       0.013     2182.473   0.100E-11
     TRS4 it   8 1.00000000   0.207E-02       0.013     2209.497   0.100E-11
     TRS4 it   9 1.00000000   0.132E-05       0.013     2206.988   0.100E-11
     TRS4 it  10 1.00000000   0.267E-11       0.013     2211.829   0.100E-11
     Final TRS4 iteration   10 1.00000000   0.267E-11
     Chemical potential (mu):       0.06070
 
 PAO| energy:  -191.34887897793561      penalty:   4.2050682159882106E-004
 PAO|LS| adapt:  T T F
 PAO|LS| adapt: scan_steps:    0.0000000000000000       0.43162540560438750        0.0000000000000000     
 PAO|LS| adapt: energies:   -191.34599800721614       -191.34887897793561        0.0000000000000000     
 PAO| ======================= Iteration:        28 =============================

     Lanczos converged:  F threshold:   0.100E-02
     Est. extremal eigenvalues:    0.474E+01   0.133E+00
     Est. condition number :    0.355E+02

 Order=           3
     NS sqrt iter    1 1.00000000   0.122E+01       0.021     2688.107
     NS sqrt iter    2 1.00000000   0.622E+00       0.033     3393.756
     NS sqrt iter    3 1.00000000   0.198E+00       0.034     3352.093
     NS sqrt iter    4 1.00000000   0.246E-01       0.034     3377.413
     NS sqrt iter    5 1.00000000   0.104E-03       0.034     3334.894
     NS sqrt iter    6 1.00000000   0.206E-10       0.018     2180.185
     Symmetrizing Results
     Final NS sqrt iter    6 1.00000000   0.204E-11

     Est. extremal eigenvalues     -0.84534     2.56309  converged:  T
     TRS4 it   1 1.00000000   0.286E+02       0.007     2117.079   0.100E-11
     TRS4 it   2 1.00000000   0.233E+02       0.013     2223.686   0.100E-11
     TRS4 it   3 1.00000000   0.155E+02       0.013     2185.116   0.100E-11
     TRS4 it   4 1.00000000   0.896E+01       0.013     2196.745   0.100E-11
     TRS4 it   5 1.00000000   0.366E+01       0.013     2195.889   0.100E-11
     TRS4 it   6 1.00000000   0.905E+00       0.013     2203.852   0.100E-11
     TRS4 it   7 1.00000000   0.103E+00       0.013     2208.903   0.100E-11
     TRS4 it   8 1.00000000   0.200E-02       0.013     2199.904   0.100E-11
     TRS4 it   9 1.00000000   0.124E-05       0.013     2196.282   0.100E-11
     TRS4 it  10 1.00000000   0.236E-11       0.013     2220.641   0.100E-11
     Final TRS4 iteration   10 1.00000000   0.236E-11
     Chemical potential (mu):       0.06111
 
 PAO| energy:  -191.34515313049994      penalty:   3.8706988251808295E-004
 PAO|LS| adapt:  T T T
 PAO|LS| adapt: scan_steps:    0.0000000000000000       0.43162540560438750       0.86325081120877500     
 PAO|LS| adapt: energies:   -191.34599800721614       -191.34887897793561       -191.34515313049994     
 PAO|LS| adapt: suggested step_size:   0.40402738135487065     
 PAO|LS| adapt: predicted energy  -191.34889248323893     
 PAO| ======================= Iteration:        29 =============================

     Lanczos converged:  F threshold:   0.100E-02
     Est. extremal eigenvalues:    0.476E+01   0.134E+00
     Est. condition number :    0.355E+02

 Order=           3
     NS sqrt iter    1 1.00000000   0.122E+01       0.021     2696.779
     NS sqrt iter    2 1.00000000   0.624E+00       0.034     3379.727
     NS sqrt iter    3 1.00000000   0.199E+00       0.034     3355.855
     NS sqrt iter    4 1.00000000   0.247E-01       0.033     3381.731
     NS sqrt iter    5 1.00000000   0.104E-03       0.034     3374.740
     NS sqrt iter    6 1.00000000   0.204E-10       0.018     2170.677
     Symmetrizing Results
     Final NS sqrt iter    6 1.00000000   0.206E-11

     Est. extremal eigenvalues     -0.84533     2.56575  converged:  T
     TRS4 it   1 1.00000000   0.285E+02       0.007     2167.725   0.100E-11
     TRS4 it   2 1.00000000   0.233E+02       0.013     2181.287   0.100E-11
     TRS4 it   3 1.00000000   0.155E+02       0.013     2225.299   0.100E-11
     TRS4 it   4 1.00000000   0.899E+01       0.013     2199.580   0.100E-11
     TRS4 it   5 1.00000000   0.368E+01       0.013     2197.395   0.100E-11
     TRS4 it   6 1.00000000   0.915E+00       0.013     2212.811   0.100E-11
     TRS4 it   7 1.00000000   0.105E+00       0.013     2217.512   0.100E-11
     TRS4 it   8 1.00000000   0.208E-02       0.013     2164.594   0.100E-11
     TRS4 it   9 1.00000000   0.132E-05       0.013     2207.379   0.100E-11
[...]
     TRS4 it   3 1.00000000   0.157E+02       0.013     2174.654   0.100E-11
     TRS4 it   4 1.00000000   0.931E+01       0.013     2190.164   0.100E-11
     TRS4 it   5 1.00000000   0.415E+01       0.013     2177.144   0.100E-11
     TRS4 it   6 1.00000000   0.127E+01       0.013     2197.444   0.100E-11
     TRS4 it   7 1.00000000   0.222E+00       0.013     2185.462   0.100E-11
     TRS4 it   8 1.00000000   0.114E-01       0.013     2189.187   0.100E-11
     TRS4 it   9 1.00000000   0.431E-04       0.013     2191.083   0.100E-11
     TRS4 it  10 1.00000000   0.216E-08       0.013     2179.782   0.100E-11
     TRS4 it  11 1.00000000   0.124E-13       0.013     2190.597   0.100E-11
     Final TRS4 iteration   11 1.00000000   0.124E-13
     Chemical potential (mu):       0.03015
 
 PAO| energy:  -190.94626264237502      penalty:   1.7263630230181269E-008
 PAO| Writing restart file.
     Est. extremal eigenvalues     -0.84577     2.55570  converged:  T
     TRS4 it   1 1.00000000   0.288E+02       0.007     2133.921   0.100E-11
     TRS4 it   2 1.00000000   0.235E+02       0.013     2183.284   0.100E-11
     TRS4 it   3 1.00000000   0.157E+02       0.013     2205.418   0.100E-11
     TRS4 it   4 1.00000000   0.931E+01       0.013     2165.179   0.100E-11
     TRS4 it   5 1.00000000   0.415E+01       0.013     2188.286   0.100E-11
     TRS4 it   6 1.00000000   0.127E+01       0.013     2178.841   0.100E-11
     TRS4 it   7 1.00000000   0.222E+00       0.013     2194.193   0.100E-11
     TRS4 it   8 1.00000000   0.114E-01       0.013     2160.498   0.100E-11
     TRS4 it   9 1.00000000   0.431E-04       0.013     2190.592   0.100E-11
     TRS4 it  10 1.00000000   0.216E-08       0.013     2190.252   0.100E-11
     TRS4 it  11 1.00000000   0.124E-13       0.013     2176.888   0.100E-11
     Final TRS4 iteration   11 1.00000000   0.124E-13
     Chemical potential (mu):       0.03015

 SCF     1     -1103.063024335     -1103.063024335    1.771346

*********************************************************
 Using MIXING_FRACTION=0.450 to mix KS matrix:  iscf=  2
 KS_nw=0.450*KS + 0.550*KS_old
*********************************************************
     Est. extremal eigenvalues     -0.84576     2.55570  converged:  T
     TRS4 it   1 1.00000000   0.288E+02       0.007     2150.318   0.100E-11
     TRS4 it   2 1.00000000   0.235E+02       0.013     2193.155   0.100E-11
     TRS4 it   3 1.00000000   0.157E+02       0.013     2185.915   0.100E-11
     TRS4 it   4 1.00000000   0.931E+01       0.013     2195.932   0.100E-11
     TRS4 it   5 1.00000000   0.415E+01       0.013     2170.120   0.100E-11
     TRS4 it   6 1.00000000   0.127E+01       0.013     2187.146   0.100E-11
     TRS4 it   7 1.00000000   0.222E+00       0.013     2182.940   0.100E-11
     TRS4 it   8 1.00000000   0.114E-01       0.013     2213.287   0.100E-11
     TRS4 it   9 1.00000000   0.431E-04       0.013     2201.895   0.100E-11
     TRS4 it  10 1.00000000   0.216E-08       0.013     2167.215   0.100E-11
     TRS4 it  11 1.00000000   0.711E-14       0.013     2187.982   0.100E-11
     Final TRS4 iteration   11 1.00000000   0.711E-14
     Chemical potential (mu):       0.03014

 SCF     2     -1103.063024335        -0.000000000    1.770077


 SCF run converged in     2 steps.

 PAO| Storing density matrix for ASPC guess in slot:           1

 ENERGY| Total FORCE_EVAL ( QS ) energy [a.u.]:            -1103.063024335335740

 -------------------------------------------------------------------------------
 -                                                                             -
 -                                DBCSR STATISTICS                             -
 -                                                                             -
 -------------------------------------------------------------------------------
 COUNTER                                    TOTAL       BLAS       SMM       ACC
 flops     5 x     5 x     4             23116800       0.0%    100.0%      0.0%     
 flops    13 x     5 x     4             29818880       0.0%    100.0%      0.0%     
 flops     5 x    13 x     4             29818880       0.0%    100.0%      0.0%     
 flops    13 x    13 x     4             39370240       0.0%    100.0%      0.0%     
 flops     4 x     4 x     5           6515589120       0.0%    100.0%      0.0%     
 flops     5 x     4 x     5           8054374400       0.0%    100.0%      0.0%     
 flops     4 x     4 x    13           8470265856       0.0%    100.0%      0.0%     
 flops    13 x     4 x     5          10470686720       0.0%    100.0%      0.0%     
 flops     5 x     4 x    13          10470686720       0.0%    100.0%      0.0%     
 flops    13 x     4 x    13          13611892736       0.0%    100.0%      0.0%     
 flops     5 x     4 x     4         406344179680       0.0%    100.0%      0.0%     
 flops    13 x     4 x     4         534702072736       0.0%    100.0%      0.0%     
 flops     4 x     4 x     4       29868196708608       0.0%    100.0%      0.0%     
 flops inhomo. stacks                           0       0.0%      0.0%      0.0%
 flops total                        30.866959E+12       0.0%    100.0%      0.0%
 flops max/rank                    974.570755E+09       0.0%    100.0%      0.0%
 matmuls inhomo. stacks                         0       0.0%      0.0%      0.0%
 matmuls total                       237322234182       0.0%    100.0%      0.0%
 number of processed stacks             242468915       0.0%    100.0%      0.0%
 average stack size                                     0.0     978.8       0.0
 marketing flops                    53.735003E+12
 -------------------------------------------------------------------------------
 # multiplications                          50435
 max memory usage/rank             617.091072E+06
 # max total images/rank                        2
 # max 3D layers                                1
 # MPI messages exchanged                20980960
 MPI messages size (bytes):
  total size                         2.480065E+12
  min size                           0.000000E+00
  max size                         541.696000E+03
  average size                     118.205492E+03
 MPI breakdown and total messages size (bytes):
             size <=      128              894300                    14208
       128 < size <=     8192              341103               1372049664
      8192 < size <=    32768               76464               1770056704
     32768 < size <=   131072             8978629             661201221504
    131072 < size <=  4194304            10690464            1816149670912
   4194304 < size <= 16777216                   0                        0
  16777216 < size                               0                        0
 -------------------------------------------------------------------------------

 *** WARNING in dbcsr_mm.F:301 :: Using a non-square number of MPI ranks ***
 *** might lead to poor performance. Used ranks: 32 Suggested: 36 64     ***

 -------------------------------------------------------------------------------
 -                                                                             -
 -                      DBCSR MESSAGE PASSING PERFORMANCE                      -
 -                                                                             -
 -------------------------------------------------------------------------------
 ROUTINE             CALLS      AVE VOLUME [Bytes]
 MP_Bcast               14                     12.
 MP_Allreduce       303734                     37.
 MP_Alltoall        130149                  14548.
 MP_ISend          1688228                  54953.
 MP_IRecv          1651074                  56278.
 -------------------------------------------------------------------------------

 -------------------------------------------------------------------------------
 -                                                                             -
 -                                DBM STATISTICS                               -
 -                                                                             -
 -------------------------------------------------------------------------------
    M  x    N  x    K                                          COUNT     PERCENT
 -------------------------------------------------------------------------------

 -------------------------------------------------------------------------------
 -                                                                             -
 -                                GRID STATISTICS                              -
 -                                                                             -
 -------------------------------------------------------------------------------
 LP    KERNEL             BACKEND                              COUNT     PERCENT
 2     collocate ortho    CPU                               11479146      28.83%
 2     integrate ortho    CPU                               11479146      28.83%
 3     collocate ortho    CPU                                7376348      18.53%
 3     integrate ortho    CPU                                7376348      18.53%
 4     collocate ortho    CPU                                1046794       2.63%
 4     integrate ortho    CPU                                1046794       2.63%
 0     collocate general  CPU                                   6144       0.02%
 -------------------------------------------------------------------------------

 MEMORY| Estimated peak process memory [MiB]                                 589

 -------------------------------------------------------------------------------
 -                                                                             -
 -                         MESSAGE PASSING PERFORMANCE                         -
 -                                                                             -
 -------------------------------------------------------------------------------

 ROUTINE             CALLS      AVE VOLUME [Bytes]
 MP_Group                5
 MP_Bcast           406688                   1845.
 MP_Allreduce      1010295                    514.
 MP_Sync                 5
 MP_Alltoall           369                8504958.
 MP_SendRecv          1302                  18832.
 MP_ISendRecv         1302                  18832.
 MP_Wait              3696
 MP_ISend             2166                 108220.
 MP_IRecv             2166                 108236.
 -------------------------------------------------------------------------------


 -------------------------------------------------------------------------------
 -                                                                             -
 -                           R E F E R E N C E S                               -
 -                                                                             -
 -------------------------------------------------------------------------------
 
 CP2K version 2024.3 (Development Version), the CP2K developers group (2024).
 CP2K is freely available from https://www.cp2k.org/ .
 
 T. D. Kuehne, M. Iannuzzi, M. Del Ben, V. V. Rybkin, P. Seewald, F. Stein, T. 
 Laino, R. Z. Khaliullin, O. Schuett, F. Schiffmann, D. Golze, J. Wilhelm, S. 
 Chulkov, M. H. Bani-Hashemian, V. Weber, U. Borstnik, M. Taillefumier, A. S. 
 Jakobovits, A. Lazzaro, H. Pabst, T. Mueller, R. Schade, M. Guidon, S. 
 Andermatt, N. Holmberg, G. K. Schenter, A. Hehn, A. Bussy, F. Belleflamme, G. 
 Tabacchi, A. Gloess, M. Lass, I. Bethune, C. J. Mundy, C. Plessl, M. Watkins, 
 J. VandeVondele, M. Krack, J. Hutter.
 J. Chem. Phys. 152, 194103 (2020).
 CP2K: An electronic structure and molecular dynamics software package - 
 Quickstep: Efficient and accurate electronic structure calculations.
 https://doi.org/10.1063/5.0007045

 O. Schuett, J. VandeVondele.
 J. Chem. Theory Comput. 14, 4168-4175 (2018).
 Machine Learning Adaptive Basis Sets for Efficient Large Scale Density 
 Functional Theory Simulation.
 https://doi.org/10.1021/acs.jctc.8b00378

 O. Schuett, P. Messmer, J. Hutter, J. VandeVondele.
 Electronic Structure Calculations on Graphics Processing Units, 173-190 (2016).
 GPU-Accelerated Sparse Matrix-Matrix Multiplication for Linear Scaling Density 
 Functional Theory.
 https://doi.org/10.1002/9781118670712.ch8

 A. Heinecke, G. Henry, M. Hutchinson, H. Pabst.
 Proceedings of Intl. Supercomputing Conference, 981-991 (2016).
 LIBXSMM: Accelerating Small Matrix Multiplications by Runtime Code Generation.
 https://doi.org/10.1109/SC.2016.83

 J. Hutter, M. Iannuzzi, F. Schiffmann, J. VandeVondele.
 WIREs Comput Mol Sci. 4, 15-25 (2014).
 CP2K: atomistic simulations of condensed matter systems.
 https://doi.org/10.1002/wcms.1159

 U. Borstnik, J. VandeVondele, V. Weber, J. Hutter.
 Parallel Comput. 40, 47-58 (2014).
 Sparse matrix multiplication: The distributed block-compressed sparse row 
 library.
 https://doi.org/10.1016/j.parco.2014.03.012

 A. Marek, V. Blum, R. Johanni, V. Havu, B. Lang, T. Auckenthaler, A. Heinecke, 
 H. Bungartz, H. Lederer.
 J. Phys. Condens. Matter 26, 213201 (2014).
 The ELPA library: scalable parallel eigenvalue solutions for electronic 
 structure theory and computational science.
 https://doi.org/10.1088/0953-8984/26/21/213201

 J. VandeVondele, U. Borstnik, J. Hutter.
 J. Chem. Theory Comput. 8, 3565-3573 (2012).
 Linear Scaling Self-Consistent Field Calculations with Millions of Atoms in the 
 Condensed Phase.
 https://doi.org/10.1021/ct200897x

 J. VandeVondele, J. Hutter.
 J. Chem. Phys. 127, 114105 (2007).
 Gaussian basis sets for accurate calculations on molecular systems in gas and 
 condensed phases.
 https://doi.org/10.1063/1.2770708

 J. VandeVondele, M. Krack, F. Mohamed, M. Parrinello, T. Chassaing, J. Hutter.
 Comput. Phys. Commun. 167, 103-128 (2005).
 QUICKSTEP: Fast and accurate density functional calculations using a mixed 
 Gaussian and plane waves approach.
 https://doi.org/10.1016/j.cpc.2004.12.014

 M. Krack.
 Theor. Chem. Acc. 114, 145-152 (2005).
 Pseudopotentials for H to Kr optimized for gradient-corrected 
 exchange-correlation functionals.
 https://doi.org/10.1007/s00214-005-0655-y

 M. Frigo, S. G. Johnson.
 Proc. IEEE 93, 216-231 (2005).
 The design and implementation of FFTW3.
 https://doi.org/10.1109/JPROC.2004.840301

 A. M. N. Niklasson, C. J. Tymczak, M. Challacombe.
 J. Chem. Phys. 118, 8611-8620 (2003).
 Trace resetting density matrix purification in O(N) self-consistent-field 
 theory.
 https://doi.org/10.1063/1.1559913

 C. Hartwigsen, S. Goedecker, J. Hutter.
 Phys. Rev. B 58, 3641-3662 (1998).
 Relativistic separable dual-space Gaussian pseudopotentials from H to Rn.
 https://doi.org/10.1103/PhysRevB.58.3641

 G. Lippert, J. Hutter, M. Parrinello.
 Mol. Phys. 92, 477-487 (1997).
 A hybrid Gaussian and plane wave density functional scheme.
 https://doi.org/10.1080/002689797170220

 S. Goedecker, M. Teter, J. Hutter.
 Phys. Rev. B 54, 1703-1710 (1996).
 Separable dual-space Gaussian pseudopotentials.
 https://doi.org/10.1103/PhysRevB.54.1703

 J. P. Perdew, K. Burke, M. Ernzerhof.
 Phys. Rev. Lett. 77, 3865-3868 (1996).
 Generalized gradient approximation made simple.
 https://doi.org/10.1103/PhysRevLett.77.3865


 -------------------------------------------------------------------------------
 -                                                                             -
 -                                T I M I N G                                  -
 -                                                                             -
 -------------------------------------------------------------------------------
 SUBROUTINE                       CALLS  ASD         SELF TIME        TOTAL TIME
                                MAXIMUM       AVERAGE  MAXIMUM  AVERAGE  MAXIMUM
 CP2K                                 1  1.0    0.012    0.015  450.515  450.517
 qs_energies                          1  2.0    0.000    0.000  450.365  450.367
 ls_scf                               1  3.0    0.000    0.000  449.274  449.276
 pao_update                           6  4.0    0.006    0.025  422.976  422.977
 pao_calc_energy                    819  5.0    0.003    0.019  379.753  379.755
 dbcsr_multiply_generic           50435  8.4    1.391    1.578  348.144  348.438
 multiply_cannon                  50435  9.4    2.617    2.931  280.172  284.844
 multiply_cannon_loop             50435 10.4    1.858    2.131  269.415  274.609
 ls_scf_init_matrix_S               825  7.0    0.008    0.010  211.889  211.979
 pao_rebuild_S                      819  6.0    0.003    0.003  210.337  210.425
 matrix_sqrt_Newton_Schulz          825  8.0    0.169    0.287  196.682  196.763
 multiply_cannon_multrec         403480 11.4  177.755  179.268  178.585  180.111
 pao_dm_trs4                        819  6.0    0.006    0.007  169.029  169.068
 density_matrix_trs4                832  7.0    0.216    0.368  163.009  163.091
 mp_waitall_1                   3229370 12.6   87.435   96.537   87.435   96.537
 multiply_cannon_metrocomm3      403480 11.4    0.699    0.765   69.806   76.759
 arnoldi_extremal                  1657  8.5    0.013    0.014   66.888   66.970
 arnoldi_normal_ev                 1657  9.5    0.039    0.067   66.872   66.953
 build_subspace                    6571 10.6    0.400    0.436   58.634   58.675
 dbcsr_matrix_vector_mult        200444 11.6    0.862    1.300   55.303   55.756
 make_m2s                        100870  9.4    0.549    0.729   51.232   52.419
 make_images                     100870 10.4    7.381    7.640   49.869   51.094
 dbcsr_matrix_vector_mult_local  200444 12.6   47.265   47.797   47.490   48.021
 pao_calc_AB                       1087  5.8    0.002    0.002   42.765   42.767
 pao_calc_AB_equi                  1087  6.8    0.040    0.099   42.763   42.765
 pao_calc_grad_lnv_wrt_AB           267  7.0    0.020    0.023   42.342   42.387
 make_images_data                100870 11.4    0.868    1.030   21.646   24.058
 ls_scf_main                          6  4.0    0.000    0.001   23.043   23.044
 hybrid_alltoall_any             102516 12.3    0.905    1.776   17.034   20.842
 ls_scf_dm_to_ks                     13  5.0    0.000    0.000   20.323   20.326
 matrix_qs_to_ls                   1657  7.5    0.016    0.020   17.089   17.230
 mp_sum_l                        206122  9.5    9.139   17.078    9.139   17.078
 calculate_norms                 753488 11.4   11.640   12.704   11.640   12.704
 dbcsr_multiply_generic_mpsum_f   37042  9.5    0.026    0.032    5.845   12.691
 qs_ks_update_qs_env                 14  6.0    0.000    0.000   12.212   12.215
 rebuild_ks_matrix                   14  7.0    0.000    0.000   12.202   12.205
 qs_ks_build_kohn_sham_matrix        14  8.0    0.002    0.003   12.202   12.205
 make_images_pack                100870 11.4   11.121   11.490   11.257   11.627
 qs_rho_update_rho_low               14  6.0    0.000    0.000    9.589    9.591
 calculate_rho_elec                  14  7.0    0.005    0.005    9.589    9.591
 sum_up_and_integrate                14  9.0    0.000    0.000    9.245    9.248
 integrate_v_rspace                  14 10.0    0.000    0.001    9.232    9.235
 -------------------------------------------------------------------------------

 The number of warnings for this run is : 1
 
 -------------------------------------------------------------------------------
  **** **** ******  **  PROGRAM ENDED AT                 2024-09-24 03:37:48.374
 ***** ** ***  *** **   PROGRAM RAN ON                                    moritz
 **    ****   ******    PROGRAM RAN BY                                       ole
 ***** **    ** ** **   PROGRAM PROCESS ID                                167815
  **** **  *******  **  PROGRAM STOPPED IN /home/ole/git/pao_ml_equivar/64H2O_MD
                                           /Frame4200
