 DBCSR| CPU Multiplication driver                                           BLAS
 DBCSR| Multrec recursion limit                                              512
 DBCSR| Multiplication stack size                                           1000
 DBCSR| Maximum elements for images                                    UNLIMITED
 DBCSR| Multiplicative factor virtual images                                   1
 DBCSR| Use multiplication densification                                       T
 DBCSR| Multiplication size stacks                                             3


  **** **** ******  **  PROGRAM STARTED AT               2019-03-28 17:32:18.645
 ***** ** ***  *** **   PROGRAM STARTED ON        oleschuett.zrh.corp.google.com
 **    ****   ******    PROGRAM STARTED BY                            oleschuett
 ***** **    ** ** **   PROGRAM PROCESS ID                                 30731
  **** **  *******  **  PROGRAM STARTED IN /usr/local/google/home/oleschuett/git
                                           /pao_ml_equivar/2H2O_rotations/phi_12

 CP2K| version string:                    CP2K version 7.0 (Development Version)
 CP2K| source code revision number:                                git:d9814d431
 CP2K| cp2kflags: libint fftw3 libxc libderiv_max_am1=5 libint_max_am=6         
 CP2K| is freely available from                            https://www.cp2k.org/
 CP2K| Program compiled at                          Mon Mar 25 16:50:07 CET 2019
 CP2K| Program compiled on                        oleschuett.zrh.corp.google.com
 CP2K| Program compiled for                                                local
 CP2K| Data directory path       /usr/local/google/home/oleschuett/git/cp2k/data
 CP2K| Input file name                                            2H2O_pao44.inp

 GLOBAL| Force Environment number                                              1
 GLOBAL| Basis set file name                                        BASIS_MOLOPT
 GLOBAL| Potential file name                                      GTH_POTENTIALS
 GLOBAL| MM Potential file name                                     MM_POTENTIAL
 GLOBAL| Coordinate file name                                         coords.xyz
 GLOBAL| Method name                                                        CP2K
 GLOBAL| Project name                                                 2H2O_pao44
 GLOBAL| Preferred FFT library                                             FFTW3
 GLOBAL| Preferred diagonalization lib.                                       SL
 GLOBAL| Run type                                                         ENERGY
 GLOBAL| All-to-all communication in single precision                          F
 GLOBAL| FFTs using library dependent lengths                                  F
 GLOBAL| Global print level                                                  LOW
 GLOBAL| MPI I/O enabled                                                       T
 GLOBAL| Total number of message passing processes                             1
 GLOBAL| Number of threads for this process                                    1
 GLOBAL| This output is from process                                           0
 GLOBAL| CPU model name :  Intel(R) Xeon(R) CPU E5-1650 v4 @ 3.60GHz

 MEMORY| system memory details [Kb]
 MEMORY|                        rank 0           min           max       average
 MEMORY| MemTotal             65953612      65953612      65953612      65953612
 MEMORY| MemFree               4823252       4823252       4823252       4823252
 MEMORY| Buffers               2548000       2548000       2548000       2548000
 MEMORY| Cached               25390988      25390988      25390988      25390988
 MEMORY| Slab                  3623568       3623568       3623568       3623568
 MEMORY| SReclaimable          2422904       2422904       2422904       2422904
 MEMORY| MemLikelyFree        35185144      35185144      35185144      35185144


 GENERATE|  Preliminary Number of Bonds generated:                             0
 GENERATE|  Achieved consistency in connectivity generation.

 *******************************************************************************
 *******************************************************************************
 **                                                                           **
 **     #####                         ##              ##                      **
 **    ##   ##            ##          ##              ##                      **
 **   ##     ##                       ##            ######                    **
 **   ##     ##  ##   ##  ##   #####  ##  ##   ####   ##    #####    #####    **
 **   ##     ##  ##   ##  ##  ##      ## ##   ##      ##   ##   ##  ##   ##   **
 **   ##  ## ##  ##   ##  ##  ##      ####     ###    ##   ######   ######    **
 **    ##  ###   ##   ##  ##  ##      ## ##      ##   ##   ##       ##        **
 **     #######   #####   ##   #####  ##  ##  ####    ##    #####   ##        **
 **           ##                                                    ##        **
 **                                                                           **
 **                                                ... make the atoms dance   **
 **                                                                           **
 **            Copyright (C) by CP2K developers group (2000 - 2018)           **
 **                                                                           **
 *******************************************************************************


 TOTAL NUMBERS AND MAXIMUM NUMBERS

  Total number of            - Atomic kinds:                                   2
                             - Atoms:                                          6
                             - Shell sets:                                     6
                             - Shells:                                        22
                             - Primitive Cartesian functions:                 42
                             - Cartesian basis functions:                     48
                             - Spherical basis functions:                     46

  Maximum angular momentum of- Orbital basis functions:                        2
                             - Local part of the GTH pseudopotential:          2
                             - Non-local part of the GTH pseudopotential:      0

 ------------------------------ Linear scaling SCF -----------------------------
 eps_scf:                                                              0.100E-07
 eps_filter:                                                           0.100E-07
 mixing_fraction:                                                      0.450E+00
 max_scf:                                                                     25
 fixed chemical potential (mu)                                                 F
 has unit metric:                                                              F
 Computing inv(S):                                                             T
 Computing sqrt(S):                                                            T
 Computing s preconditioner                                                    F
 sign sqrt order:                                                              3
 Extrapolation order:                                                          1
 Use single precision matrices                                                 F
 S preconditioner type                                                      NONE
 Polarized Atomic Orbitals (PAO)                                               T
 Purification method                                   Trace resetting 4th order
 Cluster type                                                             ATOMIC
 Computing Chebyshev                                                       FALSE
 Using PAO                                                                     T
 -------------------------------------------------------------------------------

 
 PAO|                                  EPS_PAO                           0.1E-04
 PAO|                                  MIXING                            0.5E+00
 PAO|                                  MAX_PAO                              1000
 PAO|                                  MAX_CYCLES                           1000
 PAO|                                  PARAMETERIZATION                   DIRECT
 PAO|                                  PRECONDITION                            F
 PAO|                                  REGULARIZATION                    0.0E+00
 PAO|                                  EPS_PGF                           0.1E-09
 PAO|                                  PENALTY_DISTANCE                  0.1E+00
 PAO|                                  PENALTY_STRENGTH                  0.5E-02
 PAO|                                  LINPOT_PRECONDITION_DELTA         0.0E+00
 PAO|                                  LINPOT_INITGUESS_DELT             0.0E+00
 PAO|                                  LINPOT_REGULARIZATION_DELTA       0.0E+00
 PAO|                                  LINPOT_REGULARIZATION_STRENGTH    0.0E+00
 PAO|                                  OPTIMIZER                              CG
 PAO|                                  CG_INIT_STEPS                           2
 PAO|                                  CG_RESET_LIMIT                    0.1E+00
 PAO|                                  CHECK_UNITARY_TOL                -0.1E+01
 PAO|                                  CHECK_GRADIENT_TOL               -0.1E+01
 PAO|                                  NUM_GRADIENT_ORDER                      2
 PAO|                                  NUM_GRADIENT_EPS                  0.1E-07
 PAO|                                  PRINT%RESTART%WRITE_CYCLES            100
 PAO|                                  RESTART_FILE 
 PAO|                                  PREOPT_DM_FILE 2H2O_ref_LS_DM_SPIN_1_RESTART.dm
 PAO|                                  MACHINE_LEARNING%METHOD        GAUSSIAN_P
 PAO|                                  MACHINE_LEARNING%PRIOR               ZERO
 PAO|                                  MACHINE_LEARNING%DESCRIPTOR     POTENTIAL
 PAO|                                  MACHINE_LEARNING%TOLERANCE        0.1E-01
 PAO|                                  MACHINE_LEARNING%GP_NOISE_VAR     0.1E+00
 PAO|                                  MACHINE_LEARNING%GP_SCALE         0.5E-01
 

 Calculating atomic Fock matrix for atomic kind: O

 Electronic structure
    Total number of core electrons                                          2.00
    Total number of valence electrons                                       6.00
    Total number of electrons                                               8.00
    Multiplicity                                                   not specified
    S   [  2.00] 2.00
    P      4.00


 *******************************************************************************
                  Iteration          Convergence                     Energy [au]
 *******************************************************************************
                          1        0.708315                     -15.576645311500
                          2        0.608879                     -15.587933561584
                          3        0.102828E-01                 -15.656849565404
                          4        0.113889E-02                 -15.656866888140
                          5        0.434197E-03                 -15.656867072159
                          6        0.263771E-03                 -15.656867091904
                          7        0.478536E-06                 -15.656867103452

 Energy components [Hartree]           Total Energy ::          -15.656867103452
                                        Band Energy ::           -3.000198112285
                                     Kinetic Energy ::           11.759971203220
                                   Potential Energy ::          -27.416838306672
                                      Virial (-V/T) ::            2.331369510426
                                        Core Energy ::          -26.140716385623
                                          XC Energy ::           -3.154051012914
                                     Coulomb Energy ::           13.637900295084
                       Total Pseudopotential Energy ::          -37.935781716540
                       Local Pseudopotential Energy ::          -39.218907440693
                    Nonlocal Pseudopotential Energy ::            1.283125724153
                                        Confinement ::            0.350941276976

 Orbital energies  State     L     Occupation   Energy[a.u.]          Energy[eV]

                       1     0          2.000      -0.864471          -23.523463

                       1     1          4.000      -0.317814           -8.648154


 Total Electron Density at R=0:                                         0.000068

 Calculating atomic Fock matrix for atomic kind: H

 Electronic structure
    Total number of core electrons                                          0.00
    Total number of valence electrons                                       1.00
    Total number of electrons                                               1.00
    Multiplicity                                                   not specified
    S      1.00


 *******************************************************************************
                  Iteration          Convergence                     Energy [au]
 *******************************************************************************
                          1        0.437545E-02                  -0.424159432110
                          2        0.531356E-03                  -0.424178438213
                          3        0.259176E-06                  -0.424178722480

 Energy components [Hartree]           Total Energy ::           -0.424178722480
                                        Band Energy ::           -0.199015229016
                                     Kinetic Energy ::            0.464007633961
                                   Potential Energy ::           -0.888186356441
                                      Virial (-V/T) ::            1.914163240935
                                        Core Energy ::           -0.479160803564
                                          XC Energy ::           -0.244352904054
                                     Coulomb Energy ::            0.299334985138
                       Total Pseudopotential Energy ::           -0.962295316385
                       Local Pseudopotential Energy ::           -0.962295316385
                    Nonlocal Pseudopotential Energy ::            0.000000000000
                                        Confinement ::            0.191268788606

 Orbital energies  State     L     Occupation   Energy[a.u.]          Energy[eV]

                       1     0          1.000      -0.199015           -5.415480


 Total Electron Density at R=0:                                         0.242907
 PAO| Made initial guess for matrix_X with norm:   4.8989794855663558     

     Lanczos converged:  T threshold:   0.100E-02
     Est. extremal eigenvalues:    0.336E+01   0.110E+00
     Est. condition number :    0.306E+02
     NS sqrt iter    1 1.00000000   0.820E+00       0.002       42.844
     NS sqrt iter    2 1.00000000   0.440E+00       0.002       67.556
     NS sqrt iter    3 1.00000000   0.171E+00       0.002       70.176
     NS sqrt iter    4 1.00000000   0.213E-01       0.002       67.420
     NS sqrt iter    5 1.00000000   0.641E-04       0.002       57.263
     Final NS sqrt iter    5 1.00000000   0.352E-08

 PAO| Read restart DM 2H2O_ref_LS_DM_SPIN_1_RESTART.dm with checksum:    72.071451191718296     
 PAO| Quickstep energy from restart density:  -34.450402251030752     
 PAO| ======================= Iteration:         1 =============================

     Lanczos converged:  T threshold:   0.100E-02
     Est. extremal eigenvalues:    0.336E+01   0.110E+00
     Est. condition number :    0.306E+02
     NS sqrt iter    1 1.00000000   0.820E+00       0.001       61.258
     NS sqrt iter    2 1.00000000   0.440E+00       0.001       95.933
     NS sqrt iter    3 1.00000000   0.171E+00       0.001       93.318
     NS sqrt iter    4 1.00000000   0.213E-01       0.001       83.337
     NS sqrt iter    5 1.00000000   0.641E-04       0.002       61.893
     Final NS sqrt iter    5 1.00000000   0.352E-08

     Est. extremal eigenvalues     -0.92043     1.96488  converged:  T
     TRS4 it   1 1.00000000   0.902E+00       0.001       16.128   0.100E-07
     TRS4 it   2 1.00000000   0.712E+00       0.001       32.256   0.100E-07
     TRS4 it   3 1.00000000   0.507E+00       0.001       32.256   0.100E-07
     TRS4 it   4 1.00000000   0.320E+00       0.001       32.256   0.100E-07
     TRS4 it   5 1.00000000   0.160E+00       0.001       32.256   0.100E-07
     TRS4 it   6 1.00000000   0.513E-01       0.001       32.256   0.100E-07
     TRS4 it   7 1.00000000   0.734E-02       0.001       32.256   0.100E-07
     TRS4 it   8 1.00000000   0.213E-03       0.001       32.256   0.100E-07
     TRS4 it   9 1.00000000   0.201E-06       0.001       32.256   0.100E-07
     TRS4 it  10 1.00000000   0.182E-12       0.001       32.256   0.100E-07
     Final TRS4 iteration   10 1.00000000   0.182E-12
     Chemical potential (mu):      -0.06604
 
 PAO| energy:  -7.6312029890064847      penalty:   3.6977854932234927E-033
 PAO|CG| warming up with steepest descent
 PAO|CG| beta:    0.0000000000000000     
 PAO| norm of gradient:  0.78344032365639138     
 PAO|LS| adapt:  T F F
 PAO|LS| adapt: scan_steps:    0.0000000000000000        0.0000000000000000        0.0000000000000000     
 PAO|LS| adapt: energies:   -7.6312029890064847        0.0000000000000000        0.0000000000000000     
 PAO| ======================= Iteration:         2 =============================

     Lanczos converged:  T threshold:   0.100E-02
     Est. extremal eigenvalues:    0.328E+01   0.122E+00
     Est. condition number :    0.268E+02
     NS sqrt iter    1 1.00000000   0.804E+00       0.001       53.917
     NS sqrt iter    2 1.00000000   0.425E+00       0.002       68.468
     NS sqrt iter    3 1.00000000   0.154E+00       0.001       81.834
     NS sqrt iter    4 1.00000000   0.149E-01       0.001       99.581
     NS sqrt iter    5 1.00000000   0.222E-04       0.001       78.631
     Final NS sqrt iter    5 1.00000000   0.776E-09

     Est. extremal eigenvalues     -0.92410     1.90873  converged:  T
     TRS4 it   1 1.00000000   0.900E+00       0.000       16.128   0.100E-07
     TRS4 it   2 1.00000000   0.694E+00       0.001       32.256   0.100E-07
     TRS4 it   3 1.00000000   0.493E+00       0.001       32.256   0.100E-07
     TRS4 it   4 1.00000000   0.301E+00       0.001       32.256   0.100E-07
     TRS4 it   5 1.00000000   0.142E+00       0.001       32.256   0.100E-07
     TRS4 it   6 1.00000000   0.403E-01       0.001       32.256   0.100E-07
     TRS4 it   7 1.00000000   0.458E-02       0.001       32.256   0.100E-07
     TRS4 it   8 1.00000000   0.834E-04       0.001       32.256   0.100E-07
     TRS4 it   9 1.00000000   0.309E-07       0.001       32.256   0.100E-07
     Final TRS4 iteration    9 1.00000000   0.309E-07
     Chemical potential (mu):      -0.05413
 
 PAO| energy:  -7.6866959213152048      penalty:   2.2502092811007354E-008
 PAO|LS| adapt:  T T F
 PAO|LS| adapt: scan_steps:    0.0000000000000000       0.10000000000000001        0.0000000000000000     
 PAO|LS| adapt: energies:   -7.6312029890064847       -7.6866959213152048        0.0000000000000000     
 PAO| ======================= Iteration:         3 =============================

     Lanczos converged:  T threshold:   0.100E-02
     Est. extremal eigenvalues:    0.318E+01   0.133E+00
     Est. condition number :    0.239E+02
     NS sqrt iter    1 1.00000000   0.786E+00       0.001       50.348
     NS sqrt iter    2 1.00000000   0.408E+00       0.002       73.415
     NS sqrt iter    3 1.00000000   0.137E+00       0.001       74.959
     NS sqrt iter    4 1.00000000   0.104E-01       0.001       96.792
     NS sqrt iter    5 1.00000000   0.801E-05       0.001       70.823
     Final NS sqrt iter    5 1.00000000   0.102E-09

     Est. extremal eigenvalues     -0.92753     1.86214  converged:  T
     TRS4 it   1 1.00000000   0.898E+00       0.000       16.128   0.100E-07
     TRS4 it   2 1.00000000   0.678E+00       0.001       32.256   0.100E-07
     TRS4 it   3 1.00000000   0.479E+00       0.001       32.256   0.100E-07
     TRS4 it   4 1.00000000   0.282E+00       0.001       32.256   0.100E-07
     TRS4 it   5 1.00000000   0.124E+00       0.001       32.256   0.100E-07
     TRS4 it   6 1.00000000   0.307E-01       0.001       32.256   0.100E-07
     TRS4 it   7 1.00000000   0.266E-02       0.001       32.256   0.100E-07
     TRS4 it   8 1.00000000   0.281E-04       0.001       32.256   0.100E-07
     TRS4 it   9 1.00000000   0.350E-08       0.001       32.256   0.100E-07
     Final TRS4 iteration    9 1.00000000   0.350E-08
     Chemical potential (mu):      -0.04124
 
 PAO| energy:  -7.7297599713143521      penalty:   3.6003374137101652E-007
 PAO|LS| adapt:  T T F
 PAO|LS| adapt: scan_steps:    0.0000000000000000       0.20000000000000001        0.0000000000000000     
 PAO|LS| adapt: energies:   -7.6312029890064847       -7.7297599713143521        0.0000000000000000     
 PAO| ======================= Iteration:         4 =============================

     Lanczos converged:  T threshold:   0.100E-02
     Est. extremal eigenvalues:    0.299E+01   0.151E+00
     Est. condition number :    0.198E+02
     NS sqrt iter    1 1.00000000   0.749E+00       0.001       47.365
     NS sqrt iter    2 1.00000000   0.374E+00       0.002       68.811
     NS sqrt iter    3 1.00000000   0.107E+00       0.002       66.987
     NS sqrt iter    4 1.00000000   0.522E-02       0.002       68.448
     NS sqrt iter    5 1.00000000   0.120E-05       0.001       56.600
     Final NS sqrt iter    5 1.00000000   0.243E-11

     Est. extremal eigenvalues     -0.93287     1.79116  converged:  T
     TRS4 it   1 1.00000000   0.895E+00       0.000       16.128   0.100E-07
     TRS4 it   2 1.00000000   0.650E+00       0.001       32.256   0.100E-07
     TRS4 it   3 1.00000000   0.452E+00       0.001       32.256   0.100E-07
     TRS4 it   4 1.00000000   0.247E+00       0.001       32.256   0.100E-07
     TRS4 it   5 1.00000000   0.928E-01       0.001       32.256   0.100E-07
     TRS4 it   6 1.00000000   0.166E-01       0.001       32.256   0.100E-07
     TRS4 it   7 1.00000000   0.739E-03       0.001       32.256   0.100E-07
     TRS4 it   8 1.00000000   0.210E-05       0.001       32.256   0.100E-07
     TRS4 it   9 1.00000000   0.195E-10       0.001       32.256   0.100E-07
     Final TRS4 iteration    9 1.00000000   0.195E-10
     Chemical potential (mu):      -0.01271
 
 PAO| energy:  -7.7769889921906419      penalty:   5.7605419131054684E-006
 PAO|LS| Need extra step
 PAO|LS| adapt:  T T F
 PAO|LS| adapt: scan_steps:    0.0000000000000000       0.40000000000000002        0.0000000000000000     
 PAO|LS| adapt: energies:   -7.6312029890064847       -7.7769889921906419        0.0000000000000000     
 PAO| ======================= Iteration:         5 =============================

     Lanczos converged:  T threshold:   0.100E-02
     Est. extremal eigenvalues:    0.264E+01   0.180E+00
     Est. condition number :    0.147E+02
     NS sqrt iter    1 1.00000000   0.686E+00       0.001       62.688
     NS sqrt iter    2 1.00000000   0.313E+00       0.001       93.841
     NS sqrt iter    3 1.00000000   0.668E-01       0.001       89.513
     NS sqrt iter    4 1.00000000   0.146E-02       0.001       98.906
     NS sqrt iter    5 1.00000000   0.314E-07       0.001       61.132
     Final NS sqrt iter    5 1.00000000   0.251E-08

     Est. extremal eigenvalues     -0.93411     1.70447  converged:  T
     TRS4 it   1 1.00000000   0.888E+00       0.001       16.128   0.100E-07
     TRS4 it   2 1.00000000   0.610E+00       0.001       32.256   0.100E-07
     TRS4 it   3 1.00000000   0.405E+00       0.001       32.256   0.100E-07
     TRS4 it   4 1.00000000   0.191E+00       0.001       32.256   0.100E-07
     TRS4 it   5 1.00000000   0.514E-01       0.001       32.256   0.100E-07
     TRS4 it   6 1.00000000   0.464E-02       0.001       32.256   0.100E-07
     TRS4 it   7 1.00000000   0.489E-04       0.001       32.256   0.100E-07
     TRS4 it   8 1.00000000   0.703E-08       0.001       32.256   0.100E-07
     Final TRS4 iteration    8 1.00000000   0.703E-08
     Chemical potential (mu):       0.03592
 
 PAO| energy:  -7.7222171228669758      penalty:   9.2168687019079866E-005
 PAO|LS| Need extra step
 PAO|LS| adapt:  T T T
 PAO|LS| adapt: scan_steps:    0.0000000000000000       0.40000000000000002       0.80000000000000004     
 PAO|LS| adapt: energies:   -7.6312029890064847       -7.7769889921906419       -7.7222171228669758     
 PAO|LS| adapt: suggested step_size:   0.49076096861462365     
 PAO|LS| adapt: predicted energy  -7.7821518240323915     
 PAO| ======================= Iteration:         6 =============================

     Lanczos converged:  T threshold:   0.100E-02
     Est. extremal eigenvalues:    0.290E+01   0.158E+00
     Est. condition number :    0.183E+02
     NS sqrt iter    1 1.00000000   0.733E+00       0.001       52.818
     NS sqrt iter    2 1.00000000   0.359E+00       0.001       96.681
     NS sqrt iter    3 1.00000000   0.961E-01       0.001       92.352
     NS sqrt iter    4 1.00000000   0.387E-02       0.001       97.774
     NS sqrt iter    5 1.00000000   0.521E-06       0.001       80.847
     Final NS sqrt iter    5 1.00000000   0.471E-12

     Est. extremal eigenvalues     -0.93436     1.76630  converged:  T
     TRS4 it   1 1.00000000   0.893E+00       0.000       16.128   0.100E-07
     TRS4 it   2 1.00000000   0.639E+00       0.001       32.256   0.100E-07
     TRS4 it   3 1.00000000   0.440E+00       0.001       32.256   0.100E-07
     TRS4 it   4 1.00000000   0.233E+00       0.001       32.256   0.100E-07
     TRS4 it   5 1.00000000   0.809E-01       0.001       32.256   0.100E-07
     TRS4 it   6 1.00000000   0.123E-01       0.001       32.256   0.100E-07
     TRS4 it   7 1.00000000   0.389E-03       0.001       32.256   0.100E-07
     TRS4 it   8 1.00000000   0.551E-06       0.001       32.256   0.100E-07
     TRS4 it   9 1.00000000   0.133E-11       0.001       32.256   0.100E-07
     Final TRS4 iteration    9 1.00000000   0.133E-11
     Chemical potential (mu):       0.00116
 
 PAO| energy:  -7.7814239467718780      penalty:   1.3052793397827884E-005
 PAO|CG| warming up with steepest descent
 PAO|CG| beta:    0.0000000000000000     
 PAO| norm of gradient:  0.41702326031435966     
 PAO| energy improvement: -0.15022095776539324     
 PAO| step      6                   -7.781423947  0.261E-01  0.491E+00     0.101
 PAO|LS| adapt:  T F F
 PAO|LS| adapt: scan_steps:    0.0000000000000000        0.0000000000000000        0.0000000000000000     
 PAO|LS| adapt: energies:   -7.7814239467718780        0.0000000000000000        0.0000000000000000     
 PAO| ======================= Iteration:         7 =============================

     Lanczos converged:  T threshold:   0.100E-02
     Est. extremal eigenvalues:    0.282E+01   0.172E+00
     Est. condition number :    0.164E+02
     NS sqrt iter    1 1.00000000   0.716E+00       0.002       40.659
     NS sqrt iter    2 1.00000000   0.338E+00       0.002       62.585
     NS sqrt iter    3 1.00000000   0.806E-01       0.002       65.192
     NS sqrt iter    4 1.00000000   0.238E-02       0.002       62.751
     NS sqrt iter    5 1.00000000   0.135E-06       0.002       50.462
     Final NS sqrt iter    5 1.00000000   0.113E-08

     Est. extremal eigenvalues     -0.93607     1.75071  converged:  T
     TRS4 it   1 1.00000000   0.891E+00       0.001       16.128   0.100E-07
     TRS4 it   2 1.00000000   0.636E+00       0.001       32.256   0.100E-07
     TRS4 it   3 1.00000000   0.439E+00       0.001       32.256   0.100E-07
     TRS4 it   4 1.00000000   0.233E+00       0.001       32.256   0.100E-07
     TRS4 it   5 1.00000000   0.815E-01       0.001       32.256   0.100E-07
     TRS4 it   6 1.00000000   0.123E-01       0.001       32.256   0.100E-07
     TRS4 it   7 1.00000000   0.365E-03       0.001       32.256   0.100E-07
     TRS4 it   8 1.00000000   0.460E-06       0.001       32.256   0.100E-07
     TRS4 it   9 1.00000000   0.905E-12       0.001       32.256   0.100E-07
     Final TRS4 iteration    9 1.00000000   0.905E-12
     Chemical potential (mu):       0.00309
 
 PAO| energy:  -7.7755135589945290      penalty:   1.9749369102756141E-005
 PAO|LS| adapt:  T F T
 PAO|LS| adapt: scan_steps:    0.0000000000000000        0.0000000000000000       0.49076096861462365     
 PAO|LS| adapt: energies:   -7.7814239467718780        0.0000000000000000       -7.7755135589945290     
 PAO| ======================= Iteration:         8 =============================

     Lanczos converged:  T threshold:   0.100E-02
     Est. extremal eigenvalues:    0.286E+01   0.165E+00
     Est. condition number :    0.173E+02
     NS sqrt iter    1 1.00000000   0.724E+00       0.001       53.101
     NS sqrt iter    2 1.00000000   0.349E+00       0.002       66.924
     NS sqrt iter    3 1.00000000   0.882E-01       0.001       80.736
     NS sqrt iter    4 1.00000000   0.305E-02       0.001       79.065
     NS sqrt iter    5 1.00000000   0.270E-06       0.002       54.152
     Final NS sqrt iter    5 1.00000000   0.629E-09

     Est. extremal eigenvalues     -0.93617     1.75792  converged:  T
     TRS4 it   1 1.00000000   0.892E+00       0.000       16.128   0.100E-07
     TRS4 it   2 1.00000000   0.637E+00       0.001       32.256   0.100E-07
     TRS4 it   3 1.00000000   0.439E+00       0.001       32.256   0.100E-07
     TRS4 it   4 1.00000000   0.232E+00       0.001       32.256   0.100E-07
     TRS4 it   5 1.00000000   0.809E-01       0.001       32.256   0.100E-07
     TRS4 it   6 1.00000000   0.124E-01       0.001       32.256   0.100E-07
     TRS4 it   7 1.00000000   0.386E-03       0.001       32.256   0.100E-07
     TRS4 it   8 1.00000000   0.534E-06       0.001       32.256   0.100E-07
     TRS4 it   9 1.00000000   0.124E-11       0.001       32.256   0.100E-07
     Final TRS4 iteration    9 1.00000000   0.124E-11
     Chemical potential (mu):       0.00164
 
 PAO| energy:  -7.8010450496016039      penalty:   1.4151726831077440E-005
 PAO|LS| adapt:  T T T
 PAO|LS| adapt: scan_steps:    0.0000000000000000       0.24538048430731182       0.49076096861462365     
 PAO|LS| adapt: energies:   -7.7814239467718780       -7.8010450496016039       -7.7755135589945290     
 PAO|LS| adapt: suggested step_size:   0.22932056720332694     
 PAO|LS| adapt: predicted energy  -7.8011417569029451     
 PAO| ======================= Iteration:         9 =============================

     Lanczos converged:  T threshold:   0.100E-02
     Est. extremal eigenvalues:    0.286E+01   0.165E+00
     Est. condition number :    0.174E+02
     NS sqrt iter    1 1.00000000   0.725E+00       0.001       59.886
     NS sqrt iter    2 1.00000000   0.349E+00       0.001       91.858
     NS sqrt iter    3 1.00000000   0.887E-01       0.002       67.658
     NS sqrt iter    4 1.00000000   0.310E-02       0.002       66.460
     NS sqrt iter    5 1.00000000   0.282E-06       0.002       52.954
     Final NS sqrt iter    5 1.00000000   0.658E-09

     Est. extremal eigenvalues     -0.93611     1.75843  converged:  T
     TRS4 it   1 1.00000000   0.892E+00       0.000       16.128   0.100E-07
     TRS4 it   2 1.00000000   0.637E+00       0.001       32.256   0.100E-07
     TRS4 it   3 1.00000000   0.439E+00       0.001       32.256   0.100E-07
     TRS4 it   4 1.00000000   0.232E+00       0.001       32.256   0.100E-07
     TRS4 it   5 1.00000000   0.809E-01       0.001       32.256   0.100E-07
     TRS4 it   6 1.00000000   0.124E-01       0.001       32.256   0.100E-07
     TRS4 it   7 1.00000000   0.387E-03       0.001       32.256   0.100E-07
     TRS4 it   8 1.00000000   0.538E-06       0.001       32.256   0.100E-07
     TRS4 it   9 1.00000000   0.126E-11       0.001       32.256   0.100E-07
     Final TRS4 iteration    9 1.00000000   0.126E-11
     Chemical potential (mu):       0.00158
 
 PAO| energy:  -7.8011656425873781      penalty:   1.3980455501027213E-005
 PAO|CG| trace_G_new    3.6848012913721036E-002
 PAO|CG| trace_G_prev   0.17390839964321819     
 PAO|CG| trace_G_mix   -1.4397700772356067E-003
 PAO|CG| trace_D   0.17390839964321819     
 PAO|CG| trace_D_Gnew   1.4397700772356067E-003
 PAO|CG| beta:   0.22016063093850527     
 PAO| norm of gradient:  0.19195836244800860     
 PAO| energy improvement:  -1.9741695815500115E-002
 PAO| step      9                   -7.801165643  0.120E-01  0.229E+00     0.068
 PAO|LS| adapt:  T F F
 PAO|LS| adapt: scan_steps:    0.0000000000000000        0.0000000000000000        0.0000000000000000     
 PAO|LS| adapt: energies:   -7.8011656425873781        0.0000000000000000        0.0000000000000000     
 PAO| ======================= Iteration:        10 =============================

     Lanczos converged:  T threshold:   0.100E-02
     Est. extremal eigenvalues:    0.283E+01   0.171E+00
     Est. condition number :    0.166E+02
     NS sqrt iter    1 1.00000000   0.717E+00       0.001       60.085
     NS sqrt iter    2 1.00000000   0.341E+00       0.001       97.601
     NS sqrt iter    3 1.00000000   0.831E-01       0.001       93.268
     NS sqrt iter    4 1.00000000   0.256E-02       0.001       90.964
     NS sqrt iter    5 1.00000000   0.157E-06       0.001       72.572
     Final NS sqrt iter    5 1.00000000   0.119E-08

     Est. extremal eigenvalues     -0.93700     1.75006  converged:  T
     TRS4 it   1 1.00000000   0.889E+00       0.001       16.128   0.100E-07
     TRS4 it   2 1.00000000   0.635E+00       0.001       32.256   0.100E-07
     TRS4 it   3 1.00000000   0.437E+00       0.001       32.256   0.100E-07
     TRS4 it   4 1.00000000   0.229E+00       0.001       32.256   0.100E-07
     TRS4 it   5 1.00000000   0.785E-01       0.001       32.256   0.100E-07
     TRS4 it   6 1.00000000   0.116E-01       0.001       32.256   0.100E-07
     TRS4 it   7 1.00000000   0.335E-03       0.001       32.256   0.100E-07
     TRS4 it   8 1.00000000   0.392E-06       0.001       32.256   0.100E-07
     TRS4 it   9 1.00000000   0.658E-12       0.001       32.256   0.100E-07
     Final TRS4 iteration    9 1.00000000   0.658E-12
     Chemical potential (mu):       0.00476
 
 PAO| energy:  -7.8061945308294369      penalty:   1.4517993108023772E-005
 PAO|LS| adapt:  T T F
 PAO|LS| adapt: scan_steps:    0.0000000000000000       0.22932056720332694        0.0000000000000000     
 PAO|LS| adapt: energies:   -7.8011656425873781       -7.8061945308294369        0.0000000000000000     
 PAO| ======================= Iteration:        11 =============================

     Lanczos converged:  T threshold:   0.100E-02
     Est. extremal eigenvalues:    0.279E+01   0.176E+00
     Est. condition number :    0.158E+02
     NS sqrt iter    1 1.00000000   0.710E+00       0.001       53.909
     NS sqrt iter    2 1.00000000   0.333E+00       0.001       95.322
     NS sqrt iter    3 1.00000000   0.777E-01       0.001       89.270
     NS sqrt iter    4 1.00000000   0.209E-02       0.001       96.022
     NS sqrt iter    5 1.00000000   0.855E-07       0.001       72.505
     Final NS sqrt iter    5 1.00000000   0.669E-09

     Est. extremal eigenvalues     -0.93691     1.74279  converged:  T
     TRS4 it   1 1.00000000   0.886E+00       0.000       16.128   0.100E-07
     TRS4 it   2 1.00000000   0.632E+00       0.001       32.256   0.100E-07
     TRS4 it   3 1.00000000   0.434E+00       0.001       32.256   0.100E-07
     TRS4 it   4 1.00000000   0.226E+00       0.001       32.256   0.100E-07
     TRS4 it   5 1.00000000   0.761E-01       0.001       32.256   0.100E-07
     TRS4 it   6 1.00000000   0.108E-01       0.001       32.256   0.100E-07
     TRS4 it   7 1.00000000   0.288E-03       0.001       32.256   0.100E-07
     TRS4 it   8 1.00000000   0.282E-06       0.001       32.256   0.100E-07
     TRS4 it   9 1.00000000   0.334E-12       0.001       32.256   0.100E-07
     Final TRS4 iteration    9 1.00000000   0.334E-12
     Chemical potential (mu):       0.00805
 
 PAO| energy:  -7.8047704432319094      penalty:   1.5723812676064293E-005
 PAO|LS| adapt:  T T T
 PAO|LS| adapt: scan_steps:    0.0000000000000000       0.22932056720332694       0.45864113440665388     
 PAO|LS| adapt: energies:   -7.8011656425873781       -7.8061945308294369       -7.8047704432319094     
 PAO|LS| adapt: suggested step_size:   0.29337279279726464     
 PAO|LS| adapt: predicted energy  -7.8064462477893688     
 PAO| ======================= Iteration:        12 =============================

     Lanczos converged:  T threshold:   0.100E-02
     Est. extremal eigenvalues:    0.282E+01   0.172E+00
     Est. condition number :    0.164E+02
     NS sqrt iter    1 1.00000000   0.715E+00       0.001       46.546
     NS sqrt iter    2 1.00000000   0.339E+00       0.002       70.881
     NS sqrt iter    3 1.00000000   0.816E-01       0.001       99.927
     NS sqrt iter    4 1.00000000   0.242E-02       0.002       73.544
     NS sqrt iter    5 1.00000000   0.133E-06       0.001       74.224
     Final NS sqrt iter    5 1.00000000   0.116E-08

     Est. extremal eigenvalues     -0.93707     1.74792  converged:  T
     TRS4 it   1 1.00000000   0.888E+00       0.000       16.128   0.100E-07
     TRS4 it   2 1.00000000   0.634E+00       0.001       32.256   0.100E-07
     TRS4 it   3 1.00000000   0.436E+00       0.001       32.256   0.100E-07
     TRS4 it   4 1.00000000   0.228E+00       0.001       32.256   0.100E-07
     TRS4 it   5 1.00000000   0.778E-01       0.001       32.256   0.100E-07
     TRS4 it   6 1.00000000   0.114E-01       0.001       32.256   0.100E-07
     TRS4 it   7 1.00000000   0.321E-03       0.001       32.256   0.100E-07
     TRS4 it   8 1.00000000   0.358E-06       0.001       32.256   0.100E-07
     TRS4 it   9 1.00000000   0.545E-12       0.001       32.256   0.100E-07
     Final TRS4 iteration    9 1.00000000   0.545E-12
     Chemical potential (mu):       0.00567
 
 PAO| energy:  -7.8064301242713308      penalty:   1.4779919800539464E-005
 PAO|CG| trace_G_new    1.1795457895868187E-002
 PAO|CG| trace_G_prev    3.6848012913721036E-002
 PAO|CG| trace_G_mix   -4.5959330540782154E-004
 PAO|CG| trace_D    4.4643513997025486E-002
 PAO|CG| trace_D_Gnew   2.1031787773777093E-004
 PAO|CG| beta:   0.33258377405508927     
 PAO| norm of gradient:  0.10860689617086103     
 PAO| energy improvement:  -5.2644816839526598E-003
 PAO| step     12                   -7.806430124  0.679E-02  0.293E+00     0.061
 PAO|LS| adapt:  T F F
 PAO|LS| adapt: scan_steps:    0.0000000000000000        0.0000000000000000        0.0000000000000000     
 PAO|LS| adapt: energies:   -7.8064301242713308        0.0000000000000000        0.0000000000000000     
 PAO| ======================= Iteration:        13 =============================

     Lanczos converged:  T threshold:   0.100E-02
     Est. extremal eigenvalues:    0.278E+01   0.176E+00
     Est. condition number :    0.158E+02
     NS sqrt iter    1 1.00000000   0.708E+00       0.001       47.874
     NS sqrt iter    2 1.00000000   0.332E+00       0.001       74.853
     NS sqrt iter    3 1.00000000   0.772E-01       0.001       74.949
     NS sqrt iter    4 1.00000000   0.207E-02       0.001       91.461
     NS sqrt iter    5 1.00000000   0.832E-07       0.001       69.443
     Final NS sqrt iter    5 1.00000000   0.654E-09

     Est. extremal eigenvalues     -0.93755     1.73975  converged:  T
     TRS4 it   1 1.00000000   0.887E+00       0.000       16.128   0.100E-07
     TRS4 it   2 1.00000000   0.631E+00       0.001       32.256   0.100E-07
     TRS4 it   3 1.00000000   0.432E+00       0.001       32.256   0.100E-07
     TRS4 it   4 1.00000000   0.223E+00       0.001       32.256   0.100E-07
     TRS4 it   5 1.00000000   0.741E-01       0.001       32.256   0.100E-07
     TRS4 it   6 1.00000000   0.102E-01       0.001       32.256   0.100E-07
     TRS4 it   7 1.00000000   0.258E-03       0.001       32.256   0.100E-07
     TRS4 it   8 1.00000000   0.224E-06       0.001       27.627   0.100E-07
     TRS4 it   9 1.00000000   0.210E-12       0.001       32.256   0.100E-07
     Final TRS4 iteration    9 1.00000000   0.210E-12
     Chemical potential (mu):       0.01023
 
 PAO| energy:  -7.8084935880645965      penalty:   1.5083984726780313E-005
 PAO|LS| adapt:  T T F
 PAO|LS| adapt: scan_steps:    0.0000000000000000       0.29337279279726464        0.0000000000000000     
 PAO|LS| adapt: energies:   -7.8064301242713308       -7.8084935880645965        0.0000000000000000     
 PAO| ======================= Iteration:        14 =============================

     Lanczos converged:  T threshold:   0.100E-02
     Est. extremal eigenvalues:    0.275E+01   0.181E+00
     Est. condition number :    0.152E+02
     NS sqrt iter    1 1.00000000   0.701E+00       0.001       43.341
     NS sqrt iter    2 1.00000000   0.325E+00       0.002       67.615
     NS sqrt iter    3 1.00000000   0.731E-01       0.002       65.891
     NS sqrt iter    4 1.00000000   0.176E-02       0.002       66.915
     NS sqrt iter    5 1.00000000   0.521E-07       0.001       49.365
     Final NS sqrt iter    5 1.00000000   0.689E-09

     Est. extremal eigenvalues     -0.93753     1.73194  converged:  T
     TRS4 it   1 1.00000000   0.886E+00       0.001       16.128   0.100E-07
     TRS4 it   2 1.00000000   0.627E+00       0.001       32.256   0.100E-07
     TRS4 it   3 1.00000000   0.428E+00       0.001       32.256   0.100E-07
     TRS4 it   4 1.00000000   0.218E+00       0.001       32.256   0.100E-07
     TRS4 it   5 1.00000000   0.706E-01       0.001       32.256   0.100E-07
     TRS4 it   6 1.00000000   0.924E-02       0.001       32.256   0.100E-07
     TRS4 it   7 1.00000000   0.207E-03       0.001       32.256   0.100E-07
     TRS4 it   8 1.00000000   0.140E-06       0.020        1.620   0.100E-07
     TRS4 it   9 1.00000000   0.803E-13       0.001       32.256   0.100E-07
     Final TRS4 iteration    9 1.00000000   0.803E-13
     Chemical potential (mu):       0.01469
 
 PAO| energy:  -7.8078536957604525      penalty:   1.5865332995338492E-005
 PAO|LS| adapt:  T T T
 PAO|LS| adapt: scan_steps:    0.0000000000000000       0.29337279279726464       0.58674558559452927     
 PAO|LS| adapt: energies:   -7.8064301242713308       -7.8084935880645965       -7.8078536957604525     
 PAO|LS| adapt: suggested step_size:   0.37061699009527960     
 PAO|LS| adapt: predicted energy  -7.8085872936157532     
 PAO| ======================= Iteration:        15 =============================

     Lanczos converged:  T threshold:   0.100E-02
     Est. extremal eigenvalues:    0.277E+01   0.177E+00
     Est. condition number :    0.156E+02
     NS sqrt iter    1 1.00000000   0.706E+00       0.001       43.448
     NS sqrt iter    2 1.00000000   0.330E+00       0.002       69.273
     NS sqrt iter    3 1.00000000   0.761E-01       0.018        6.224
     NS sqrt iter    4 1.00000000   0.198E-02       0.002       60.831
     NS sqrt iter    5 1.00000000   0.736E-07       0.002       45.317
     Final NS sqrt iter    5 1.00000000   0.585E-09

     Est. extremal eigenvalues     -0.93760     1.73766  converged:  T
     TRS4 it   1 1.00000000   0.887E+00       0.002        7.377   0.100E-07
     TRS4 it   2 1.00000000   0.630E+00       0.001       32.099   0.100E-07
     TRS4 it   3 1.00000000   0.431E+00       0.001       31.974   0.100E-07
     TRS4 it   4 1.00000000   0.222E+00       0.001       29.881   0.100E-07
     TRS4 it   5 1.00000000   0.732E-01       0.001       32.256   0.100E-07
     TRS4 it   6 1.00000000   0.997E-02       0.001       32.256   0.100E-07
     TRS4 it   7 1.00000000   0.243E-03       0.001       32.256   0.100E-07
     TRS4 it   8 1.00000000   0.198E-06       0.001       32.256   0.100E-07
     TRS4 it   9 1.00000000   0.163E-12       0.001       32.256   0.100E-07
     Final TRS4 iteration    9 1.00000000   0.163E-12
     Chemical potential (mu):       0.01141
 
 PAO| energy:  -7.8085842277390647      penalty:   1.5240374586728926E-005
 PAO|CG| trace_G_new    2.6204291995773591E-003
 PAO|CG| trace_G_prev    1.1795457895868187E-002
 PAO|CG| trace_G_mix    6.4145928932320839E-005
 PAO|CG| trace_D    1.6593668155309209E-002
 PAO|CG| trace_D_Gnew   3.3859329660030762E-005
 PAO|CG| beta:   0.21671759529915960     
 PAO| norm of gradient:   5.1190127950390581E-002
 PAO| energy improvement:  -2.1541034677339255E-003
 PAO| step     15                   -7.808584228  0.320E-02  0.371E+00     0.115
 PAO|LS| adapt:  T F F
 PAO|LS| adapt: scan_steps:    0.0000000000000000        0.0000000000000000        0.0000000000000000     
 PAO|LS| adapt: energies:   -7.8085842277390647        0.0000000000000000        0.0000000000000000     
 PAO| ======================= Iteration:        16 =============================

     Lanczos converged:  T threshold:   0.100E-02
     Est. extremal eigenvalues:    0.276E+01   0.178E+00
     Est. condition number :    0.155E+02
     NS sqrt iter    1 1.00000000   0.704E+00       0.001       61.631
     NS sqrt iter    2 1.00000000   0.329E+00       0.001      100.036
     NS sqrt iter    3 1.00000000   0.754E-01       0.001       91.539
     NS sqrt iter    4 1.00000000   0.192E-02       0.001       97.111
     NS sqrt iter    5 1.00000000   0.671E-07       0.001       71.078
     Final NS sqrt iter    5 1.00000000   0.589E-09

     Est. extremal eigenvalues     -0.93762     1.73625  converged:  T
     TRS4 it   1 1.00000000   0.887E+00       0.001       16.128   0.100E-07
     TRS4 it   2 1.00000000   0.629E+00       0.001       32.256   0.100E-07
     TRS4 it   3 1.00000000   0.429E+00       0.001       32.256   0.100E-07
     TRS4 it   4 1.00000000   0.220E+00       0.001       32.256   0.100E-07
     TRS4 it   5 1.00000000   0.720E-01       0.001       32.256   0.100E-07
     TRS4 it   6 1.00000000   0.965E-02       0.001       32.256   0.100E-07
     TRS4 it   7 1.00000000   0.229E-03       0.001       32.256   0.100E-07
     TRS4 it   8 1.00000000   0.177E-06       0.001       32.256   0.100E-07
     TRS4 it   9 1.00000000   0.131E-12       0.001       32.256   0.100E-07
     Final TRS4 iteration    9 1.00000000   0.131E-12
     Chemical potential (mu):       0.01226
 
 PAO| energy:  -7.8087095397883193      penalty:   1.5021086196377212E-005
 PAO|LS| adapt:  T T F
 PAO|LS| adapt: scan_steps:    0.0000000000000000       0.37061699009527960        0.0000000000000000     
 PAO|LS| adapt: energies:   -7.8085842277390647       -7.8087095397883193        0.0000000000000000     
 PAO| ======================= Iteration:        17 =============================

     Lanczos converged:  T threshold:   0.100E-02
     Est. extremal eigenvalues:    0.275E+01   0.179E+00
     Est. condition number :    0.154E+02
     NS sqrt iter    1 1.00000000   0.703E+00       0.001       61.892
     NS sqrt iter    2 1.00000000   0.327E+00       0.001       78.345
     NS sqrt iter    3 1.00000000   0.748E-01       0.001       94.951
     NS sqrt iter    4 1.00000000   0.187E-02       0.001       84.474
     NS sqrt iter    5 1.00000000   0.614E-07       0.001       71.314
     Final NS sqrt iter    5 1.00000000   0.560E-09

     Est. extremal eigenvalues     -0.93753     1.73490  converged:  T
     TRS4 it   1 1.00000000   0.887E+00       0.000       16.128   0.100E-07
     TRS4 it   2 1.00000000   0.628E+00       0.001       32.256   0.100E-07
     TRS4 it   3 1.00000000   0.428E+00       0.001       32.256   0.100E-07
     TRS4 it   4 1.00000000   0.219E+00       0.001       32.256   0.100E-07
     TRS4 it   5 1.00000000   0.707E-01       0.001       32.256   0.100E-07
     TRS4 it   6 1.00000000   0.934E-02       0.001       32.256   0.100E-07
     TRS4 it   7 1.00000000   0.215E-03       0.001       32.256   0.100E-07
     TRS4 it   8 1.00000000   0.158E-06       0.001       32.256   0.100E-07
     TRS4 it   9 1.00000000   0.105E-12       0.001       32.256   0.100E-07
     Final TRS4 iteration    9 1.00000000   0.105E-12
     Chemical potential (mu):       0.01308
 
 PAO| energy:  -7.8071430311365448      penalty:   1.4927861572576029E-005
 PAO|LS| adapt:  T T T
 PAO|LS| adapt: scan_steps:    0.0000000000000000       0.37061699009527960       0.74123398019055919     
 PAO|LS| adapt: energies:   -7.8085842277390647       -7.8087095397883193       -7.8071430311365448     
 PAO|LS| adapt: suggested step_size:   0.21275985232749753     
 PAO|LS| adapt: predicted energy  -7.8088630022419547     
 PAO| ======================= Iteration:        18 =============================

     Lanczos converged:  T threshold:   0.100E-02
     Est. extremal eigenvalues:    0.277E+01   0.178E+00
     Est. condition number :    0.156E+02
     NS sqrt iter    1 1.00000000   0.705E+00       0.001       56.047
     NS sqrt iter    2 1.00000000   0.329E+00       0.002       69.429
     NS sqrt iter    3 1.00000000   0.757E-01       0.001       93.796
     NS sqrt iter    4 1.00000000   0.195E-02       0.001       87.776
     NS sqrt iter    5 1.00000000   0.698E-07       0.001       64.281
     Final NS sqrt iter    5 1.00000000   0.563E-09

     Est. extremal eigenvalues     -0.93763     1.73684  converged:  T
     TRS4 it   1 1.00000000   0.887E+00       0.000       16.128   0.100E-07
     TRS4 it   2 1.00000000   0.629E+00       0.001       32.256   0.100E-07
     TRS4 it   3 1.00000000   0.430E+00       0.001       32.256   0.100E-07
     TRS4 it   4 1.00000000   0.221E+00       0.001       32.256   0.100E-07
     TRS4 it   5 1.00000000   0.725E-01       0.001       32.256   0.100E-07
     TRS4 it   6 1.00000000   0.979E-02       0.001       32.256   0.100E-07
     TRS4 it   7 1.00000000   0.235E-03       0.001       32.256   0.100E-07
     TRS4 it   8 1.00000000   0.186E-06       0.001       32.256   0.100E-07
     TRS4 it   9 1.00000000   0.144E-12       0.001       28.377   0.100E-07
     Final TRS4 iteration    9 1.00000000   0.144E-12
     Chemical potential (mu):       0.01190
 
 PAO| energy:  -7.8088625462360746      penalty:   1.5099354183534437E-005
 PAO|CG| trace_G_new    7.2502668499941638E-004
 PAO|CG| trace_G_prev    2.6204291995773591E-003
 PAO|CG| trace_G_mix    1.4266188157997463E-006
 PAO|CG| trace_D    3.3851001573502975E-003
 PAO|CG| trace_D_Gnew  -1.7241423411037957E-006
 PAO|CG| beta:   0.27613799537126354     
 PAO| norm of gradient:   2.6926319559111980E-002
 PAO| energy improvement:  -2.7831849700987732E-004
 PAO| step     18                   -7.808862546  0.168E-02  0.213E+00     0.065
 PAO|LS| adapt:  T F F
 PAO|LS| adapt: scan_steps:    0.0000000000000000        0.0000000000000000        0.0000000000000000     
 PAO|LS| adapt: energies:   -7.8088625462360746        0.0000000000000000        0.0000000000000000     
 PAO| ======================= Iteration:        19 =============================

     Lanczos converged:  T threshold:   0.100E-02
     Est. extremal eigenvalues:    0.277E+01   0.178E+00
     Est. condition number :    0.156E+02
     NS sqrt iter    1 1.00000000   0.705E+00       0.002       41.977
     NS sqrt iter    2 1.00000000   0.329E+00       0.002       66.092
     NS sqrt iter    3 1.00000000   0.759E-01       0.002       54.587
     NS sqrt iter    4 1.00000000   0.196E-02       0.002       66.070
     NS sqrt iter    5 1.00000000   0.706E-07       0.002       48.599
     Final NS sqrt iter    5 1.00000000   0.576E-09

     Est. extremal eigenvalues     -0.93763     1.73690  converged:  T
     TRS4 it   1 1.00000000   0.887E+00       0.001       16.128   0.100E-07
     TRS4 it   2 1.00000000   0.629E+00       0.001       32.256   0.100E-07
     TRS4 it   3 1.00000000   0.430E+00       0.001       32.256   0.100E-07
     TRS4 it   4 1.00000000   0.221E+00       0.001       32.256   0.100E-07
     TRS4 it   5 1.00000000   0.724E-01       0.002       18.597   0.100E-07
     TRS4 it   6 1.00000000   0.977E-02       0.001       28.130   0.100E-07
     TRS4 it   7 1.00000000   0.235E-03       0.001       32.256   0.100E-07
     TRS4 it   8 1.00000000   0.188E-06       0.001       32.256   0.100E-07
     TRS4 it   9 1.00000000   0.148E-12       0.001       32.256   0.100E-07
     Final TRS4 iteration    9 1.00000000   0.148E-12
     Chemical potential (mu):       0.01162
 
 PAO| energy:  -7.8089802595030067      penalty:   1.4810107083617542E-005
 PAO|LS| adapt:  T T F
 PAO|LS| adapt: scan_steps:    0.0000000000000000       0.21275985232749753        0.0000000000000000     
 PAO|LS| adapt: energies:   -7.8088625462360746       -7.8089802595030067        0.0000000000000000     
 PAO| ======================= Iteration:        20 =============================

     Lanczos converged:  T threshold:   0.100E-02
     Est. extremal eigenvalues:    0.277E+01   0.178E+00
     Est. condition number :    0.156E+02
     NS sqrt iter    1 1.00000000   0.705E+00       0.002       41.547
     NS sqrt iter    2 1.00000000   0.330E+00       0.002       59.520
     NS sqrt iter    3 1.00000000   0.762E-01       0.002       65.127
     NS sqrt iter    4 1.00000000   0.197E-02       0.002       53.703
     NS sqrt iter    5 1.00000000   0.714E-07       0.001       49.877
     Final NS sqrt iter    5 1.00000000   0.588E-09

     Est. extremal eigenvalues     -0.93763     1.73697  converged:  T
     TRS4 it   1 1.00000000   0.887E+00       0.001       16.128   0.100E-07
     TRS4 it   2 1.00000000   0.629E+00       0.001       32.256   0.100E-07
     TRS4 it   3 1.00000000   0.430E+00       0.001       32.256   0.100E-07
     TRS4 it   4 1.00000000   0.221E+00       0.001       32.256   0.100E-07
     TRS4 it   5 1.00000000   0.722E-01       0.001       32.256   0.100E-07
     TRS4 it   6 1.00000000   0.976E-02       0.001       24.858   0.100E-07
     TRS4 it   7 1.00000000   0.236E-03       0.001       32.256   0.100E-07
     TRS4 it   8 1.00000000   0.191E-06       0.001       32.256   0.100E-07
     TRS4 it   9 1.00000000   0.153E-12       0.001       32.256   0.100E-07
     Final TRS4 iteration    9 1.00000000   0.153E-12
     Chemical potential (mu):       0.01133
 
 PAO| energy:  -7.8090242926016415      penalty:   1.4533291561939820E-005
 PAO|LS| adapt:  T T F
 PAO|LS| adapt: scan_steps:    0.0000000000000000       0.42551970465499506        0.0000000000000000     
 PAO|LS| adapt: energies:   -7.8088625462360746       -7.8090242926016415        0.0000000000000000     
 PAO| ======================= Iteration:        21 =============================

     Lanczos converged:  T threshold:   0.100E-02
     Est. extremal eigenvalues:    0.277E+01   0.177E+00
     Est. condition number :    0.156E+02
     NS sqrt iter    1 1.00000000   0.705E+00       0.002       39.355
     NS sqrt iter    2 1.00000000   0.330E+00       0.002       56.123
     NS sqrt iter    3 1.00000000   0.766E-01       0.002       66.279
     NS sqrt iter    4 1.00000000   0.199E-02       0.002       66.435
     NS sqrt iter    5 1.00000000   0.732E-07       0.002       46.847
     Final NS sqrt iter    5 1.00000000   0.610E-09

     Est. extremal eigenvalues     -0.93762     1.73710  converged:  T
     TRS4 it   1 1.00000000   0.887E+00       0.001       16.128   0.100E-07
     TRS4 it   2 1.00000000   0.629E+00       0.001       32.256   0.100E-07
     TRS4 it   3 1.00000000   0.429E+00       0.001       32.256   0.100E-07
     TRS4 it   4 1.00000000   0.220E+00       0.001       30.297   0.100E-07
     TRS4 it   5 1.00000000   0.720E-01       0.001       31.525   0.100E-07
     TRS4 it   6 1.00000000   0.973E-02       0.001       32.256   0.100E-07
     TRS4 it   7 1.00000000   0.237E-03       0.001       32.256   0.100E-07
     TRS4 it   8 1.00000000   0.196E-06       0.001       32.256   0.100E-07
     TRS4 it   9 1.00000000   0.164E-12       0.001       32.256   0.100E-07
     Final TRS4 iteration    9 1.00000000   0.164E-12
     Chemical potential (mu):       0.01075
 
 PAO| energy:  -7.8088889669826589      penalty:   1.4016374556490276E-005
 PAO|LS| Need extra step
 PAO|LS| adapt:  T T T
 PAO|LS| adapt: scan_steps:    0.0000000000000000       0.42551970465499506       0.85103940930999011     
 PAO|LS| adapt: energies:   -7.8088625462360746       -7.8090242926016415       -7.8088889669826589     
 PAO|LS| adapt: suggested step_size:   0.44444196738597647     
 PAO|LS| adapt: predicted energy  -7.8090245863250010     
 PAO| ======================= Iteration:        22 =============================

     Lanczos converged:  T threshold:   0.100E-02
     Est. extremal eigenvalues:    0.277E+01   0.178E+00
     Est. condition number :    0.156E+02
     NS sqrt iter    1 1.00000000   0.705E+00       0.002       42.349
     NS sqrt iter    2 1.00000000   0.330E+00       0.002       65.152
     NS sqrt iter    3 1.00000000   0.762E-01       0.002       66.722
     NS sqrt iter    4 1.00000000   0.197E-02       0.002       66.045
     NS sqrt iter    5 1.00000000   0.715E-07       0.002       47.891
     Final NS sqrt iter    5 1.00000000   0.590E-09

     Est. extremal eigenvalues     -0.93763     1.73697  converged:  T
     TRS4 it   1 1.00000000   0.887E+00       0.001       16.128   0.100E-07
     TRS4 it   2 1.00000000   0.629E+00       0.001       32.256   0.100E-07
     TRS4 it   3 1.00000000   0.430E+00       0.001       31.015   0.100E-07
     TRS4 it   4 1.00000000   0.221E+00       0.001       32.256   0.100E-07
     TRS4 it   5 1.00000000   0.722E-01       0.001       32.256   0.100E-07
     TRS4 it   6 1.00000000   0.976E-02       0.001       31.524   0.100E-07
     TRS4 it   7 1.00000000   0.236E-03       0.001       32.256   0.100E-07
     TRS4 it   8 1.00000000   0.191E-06       0.001       28.754   0.100E-07
     TRS4 it   9 1.00000000   0.155E-12       0.001       32.256   0.100E-07
     Final TRS4 iteration    9 1.00000000   0.155E-12
     Chemical potential (mu):       0.01131
 
 PAO| energy:  -7.8090246211277288      penalty:   1.4509268371453132E-005
 PAO|CG| trace_G_new    2.2118820537812226E-004
 PAO|CG| trace_G_prev    7.2502668499941638E-004
 PAO|CG| trace_G_mix    2.9450415224720873E-006
 PAO|CG| trace_D    9.8410019620731332E-004
 PAO|CG| trace_D_Gnew  -1.8322645915888490E-006
 PAO|CG| beta:   0.30101397420403342     
 PAO| norm of gradient:   1.4872397432092859E-002
 PAO| energy improvement:  -1.6207489165420697E-004
 PAO| step     22                   -7.809024621  0.930E-03  0.444E+00     0.110
 PAO|LS| adapt:  T F F
 PAO|LS| adapt: scan_steps:    0.0000000000000000        0.0000000000000000        0.0000000000000000     
 PAO|LS| adapt: energies:   -7.8090246211277288        0.0000000000000000        0.0000000000000000     
 PAO| ======================= Iteration:        23 =============================

     Lanczos converged:  T threshold:   0.100E-02
     Est. extremal eigenvalues:    0.277E+01   0.178E+00
     Est. condition number :    0.156E+02
     NS sqrt iter    1 1.00000000   0.705E+00       0.002       40.545
     NS sqrt iter    2 1.00000000   0.330E+00       0.002       64.272
     NS sqrt iter    3 1.00000000   0.762E-01       0.002       62.209
     NS sqrt iter    4 1.00000000   0.197E-02       0.002       65.587
     NS sqrt iter    5 1.00000000   0.714E-07       0.002       47.406
     Final NS sqrt iter    5 1.00000000   0.595E-09

     Est. extremal eigenvalues     -0.93763     1.73649  converged:  T
     TRS4 it   1 1.00000000   0.887E+00       0.001       16.128   0.100E-07
     TRS4 it   2 1.00000000   0.629E+00       0.001       32.256   0.100E-07
     TRS4 it   3 1.00000000   0.430E+00       0.001       32.256   0.100E-07
     TRS4 it   4 1.00000000   0.221E+00       0.001       32.256   0.100E-07
     TRS4 it   5 1.00000000   0.723E-01       0.001       32.256   0.100E-07
     TRS4 it   6 1.00000000   0.979E-02       0.001       32.256   0.100E-07
     TRS4 it   7 1.00000000   0.238E-03       0.001       32.256   0.100E-07
     TRS4 it   8 1.00000000   0.195E-06       0.001       32.256   0.100E-07
     TRS4 it   9 1.00000000   0.161E-12       0.001       26.758   0.100E-07
     Final TRS4 iteration    9 1.00000000   0.161E-12
     Chemical potential (mu):       0.01097
 
 PAO| energy:  -7.8090737991390764      penalty:   1.3828029913750913E-005
 PAO|LS| adapt:  T T F
 PAO|LS| adapt: scan_steps:    0.0000000000000000       0.44444196738597647        0.0000000000000000     
 PAO|LS| adapt: energies:   -7.8090246211277288       -7.8090737991390764        0.0000000000000000     
 PAO| ======================= Iteration:        24 =============================

     Lanczos converged:  T threshold:   0.100E-02
     Est. extremal eigenvalues:    0.277E+01   0.178E+00
     Est. condition number :    0.156E+02
     NS sqrt iter    1 1.00000000   0.705E+00       0.002       41.082
     NS sqrt iter    2 1.00000000   0.330E+00       0.002       65.857
     NS sqrt iter    3 1.00000000   0.763E-01       0.002       65.335
     NS sqrt iter    4 1.00000000   0.197E-02       0.002       66.298
     NS sqrt iter    5 1.00000000   0.713E-07       0.002       46.265
     Final NS sqrt iter    5 1.00000000   0.605E-09

     Est. extremal eigenvalues     -0.93762     1.73599  converged:  T
     TRS4 it   1 1.00000000   0.886E+00       0.001       16.128   0.100E-07
     TRS4 it   2 1.00000000   0.629E+00       0.001       32.256   0.100E-07
     TRS4 it   3 1.00000000   0.430E+00       0.001       32.256   0.100E-07
     TRS4 it   4 1.00000000   0.221E+00       0.001       32.256   0.100E-07
     TRS4 it   5 1.00000000   0.724E-01       0.001       32.256   0.100E-07
     TRS4 it   6 1.00000000   0.983E-02       0.001       32.256   0.100E-07
     TRS4 it   7 1.00000000   0.241E-03       0.001       32.256   0.100E-07
     TRS4 it   8 1.00000000   0.200E-06       0.001       32.256   0.100E-07
     TRS4 it   9 1.00000000   0.170E-12       0.001       32.256   0.100E-07
     Final TRS4 iteration    9 1.00000000   0.170E-12
     Chemical potential (mu):       0.01064
 
 PAO| energy:  -7.8090236117926910      penalty:   1.3175060927968573E-005
 PAO|LS| adapt:  T T T
 PAO|LS| adapt: scan_steps:    0.0000000000000000       0.44444196738597647       0.88888393477195293     
 PAO|LS| adapt: energies:   -7.8090246211277288       -7.8090737991390764       -7.8090236117926910     
 PAO|LS| adapt: suggested step_size:   0.44218468748394030     
 PAO|LS| adapt: predicted energy  -7.8090738004206566     
 PAO| ======================= Iteration:        25 =============================

     Lanczos converged:  T threshold:   0.100E-02
     Est. extremal eigenvalues:    0.277E+01   0.178E+00
     Est. condition number :    0.156E+02
     NS sqrt iter    1 1.00000000   0.705E+00       0.002       39.329
     NS sqrt iter    2 1.00000000   0.330E+00       0.002       63.674
     NS sqrt iter    3 1.00000000   0.762E-01       0.002       65.641
     NS sqrt iter    4 1.00000000   0.197E-02       0.002       64.763
     NS sqrt iter    5 1.00000000   0.714E-07       0.002       47.250
     Final NS sqrt iter    5 1.00000000   0.595E-09

     Est. extremal eigenvalues     -0.93763     1.73649  converged:  T
     TRS4 it   1 1.00000000   0.887E+00       0.001       16.128   0.100E-07
     TRS4 it   2 1.00000000   0.629E+00       0.001       32.256   0.100E-07
     TRS4 it   3 1.00000000   0.430E+00       0.001       32.256   0.100E-07
     TRS4 it   4 1.00000000   0.221E+00       0.001       32.256   0.100E-07
     TRS4 it   5 1.00000000   0.723E-01       0.001       32.256   0.100E-07
     TRS4 it   6 1.00000000   0.979E-02       0.001       32.256   0.100E-07
     TRS4 it   7 1.00000000   0.238E-03       0.001       32.256   0.100E-07
     TRS4 it   8 1.00000000   0.195E-06       0.001       32.256   0.100E-07
     TRS4 it   9 1.00000000   0.162E-12       0.001       32.256   0.100E-07
     Final TRS4 iteration    9 1.00000000   0.162E-12
     Chemical potential (mu):       0.01097
 
 PAO| energy:  -7.8090737996328352      penalty:   1.3831417919032133E-005
 PAO|CG| trace_G_new    7.8783412280419081E-005
 PAO|CG| trace_G_prev    2.2118820537812226E-004
 PAO|CG| trace_G_mix    6.8330113620309709E-007
 PAO|CG| trace_D    3.1146002065408213E-004
 PAO|CG| trace_D_Gnew  -3.4904884299503025E-007
 PAO|CG| beta:   0.35309347083269416     
 PAO| norm of gradient:   8.8760020437367564E-003
 PAO| energy improvement:  -4.9178505106439729E-005
 PAO| step     25                   -7.809073800  0.555E-03  0.442E+00     0.083
 PAO|LS| adapt:  T F F
 PAO|LS| adapt: scan_steps:    0.0000000000000000        0.0000000000000000        0.0000000000000000     
 PAO|LS| adapt: energies:   -7.8090737996328352        0.0000000000000000        0.0000000000000000     
 PAO| ======================= Iteration:        26 =============================

     Lanczos converged:  T threshold:   0.100E-02
     Est. extremal eigenvalues:    0.277E+01   0.178E+00
     Est. condition number :    0.156E+02
     NS sqrt iter    1 1.00000000   0.705E+00       0.002       39.976
     NS sqrt iter    2 1.00000000   0.330E+00       0.002       60.439
     NS sqrt iter    3 1.00000000   0.761E-01       0.002       59.959
     NS sqrt iter    4 1.00000000   0.196E-02       0.002       56.463
     NS sqrt iter    5 1.00000000   0.704E-07       0.002       47.122
     Final NS sqrt iter    5 1.00000000   0.594E-09

     Est. extremal eigenvalues     -0.93763     1.73576  converged:  T
     TRS4 it   1 1.00000000   0.886E+00       0.001       16.128   0.100E-07
     TRS4 it   2 1.00000000   0.629E+00       0.001       32.256   0.100E-07
     TRS4 it   3 1.00000000   0.429E+00       0.001       31.025   0.100E-07
     TRS4 it   4 1.00000000   0.220E+00       0.001       30.065   0.100E-07
     TRS4 it   5 1.00000000   0.722E-01       0.001       32.256   0.100E-07
     TRS4 it   6 1.00000000   0.977E-02       0.001       31.405   0.100E-07
     TRS4 it   7 1.00000000   0.237E-03       0.002       17.158   0.100E-07
     TRS4 it   8 1.00000000   0.193E-06       0.001       30.259   0.100E-07
     TRS4 it   9 1.00000000   0.158E-12       0.001       32.256   0.100E-07
     Final TRS4 iteration    9 1.00000000   0.158E-12
     Chemical potential (mu):       0.01108
 
 PAO| energy:  -7.8090775737779685      penalty:   1.3110210946426056E-005
 PAO|LS| adapt:  T T F
 PAO|LS| adapt: scan_steps:    0.0000000000000000       0.44218468748394030        0.0000000000000000     
 PAO|LS| adapt: energies:   -7.8090737996328352       -7.8090775737779685        0.0000000000000000     
 PAO| ======================= Iteration:        27 =============================

     Lanczos converged:  T threshold:   0.100E-02
     Est. extremal eigenvalues:    0.277E+01   0.178E+00
     Est. condition number :    0.156E+02
     NS sqrt iter    1 1.00000000   0.705E+00       0.002       29.225
     NS sqrt iter    2 1.00000000   0.329E+00       0.002       63.887
     NS sqrt iter    3 1.00000000   0.760E-01       0.002       61.960
     NS sqrt iter    4 1.00000000   0.195E-02       0.002       64.382
     NS sqrt iter    5 1.00000000   0.694E-07       0.002       46.560
     Final NS sqrt iter    5 1.00000000   0.601E-09

     Est. extremal eigenvalues     -0.93763     1.73502  converged:  T
     TRS4 it   1 1.00000000   0.886E+00       0.001       16.128   0.100E-07
     TRS4 it   2 1.00000000   0.628E+00       0.001       32.256   0.100E-07
     TRS4 it   3 1.00000000   0.429E+00       0.001       32.256   0.100E-07
     TRS4 it   4 1.00000000   0.220E+00       0.001       32.085   0.100E-07
     TRS4 it   5 1.00000000   0.721E-01       0.001       32.256   0.100E-07
     TRS4 it   6 1.00000000   0.974E-02       0.001       32.140   0.100E-07
     TRS4 it   7 1.00000000   0.235E-03       0.001       32.256   0.100E-07
     TRS4 it   8 1.00000000   0.190E-06       0.001       32.256   0.100E-07
     TRS4 it   9 1.00000000   0.153E-12       0.001       32.256   0.100E-07
     Final TRS4 iteration    9 1.00000000   0.153E-12
     Chemical potential (mu):       0.01118
 
 PAO| energy:  -7.8090190106747164      penalty:   1.2412545726862218E-005
 PAO|LS| adapt:  T T T
 PAO|LS| adapt: scan_steps:    0.0000000000000000       0.44218468748394030       0.88436937496788059     
 PAO|LS| adapt: energies:   -7.8090737996328352       -7.8090775737779685       -7.8090190106747164     
 PAO|LS| adapt: suggested step_size:   0.24786396471521246     
 PAO|LS| adapt: predicted energy  -7.8090835931123346     
 PAO| ======================= Iteration:        28 =============================

     Lanczos converged:  T threshold:   0.100E-02
     Est. extremal eigenvalues:    0.277E+01   0.178E+00
     Est. condition number :    0.156E+02
     NS sqrt iter    1 1.00000000   0.705E+00       0.002       35.852
     NS sqrt iter    2 1.00000000   0.330E+00       0.002       60.941
     NS sqrt iter    3 1.00000000   0.762E-01       0.002       61.835
     NS sqrt iter    4 1.00000000   0.196E-02       0.002       59.800
     NS sqrt iter    5 1.00000000   0.708E-07       0.002       46.053
     Final NS sqrt iter    5 1.00000000   0.593E-09

     Est. extremal eigenvalues     -0.93763     1.73608  converged:  T
     TRS4 it   1 1.00000000   0.886E+00       0.001       16.128   0.100E-07
     TRS4 it   2 1.00000000   0.629E+00       0.001       32.256   0.100E-07
     TRS4 it   3 1.00000000   0.429E+00       0.001       32.256   0.100E-07
     TRS4 it   4 1.00000000   0.221E+00       0.001       32.256   0.100E-07
     TRS4 it   5 1.00000000   0.722E-01       0.001       32.256   0.100E-07
     TRS4 it   6 1.00000000   0.978E-02       0.001       32.256   0.100E-07
     TRS4 it   7 1.00000000   0.237E-03       0.001       32.256   0.100E-07
     TRS4 it   8 1.00000000   0.194E-06       0.001       32.256   0.100E-07
     TRS4 it   9 1.00000000   0.159E-12       0.001       32.256   0.100E-07
     Final TRS4 iteration    9 1.00000000   0.159E-12
     Chemical potential (mu):       0.01103
 
 PAO| energy:  -7.8090835840614972      penalty:   1.3424231275724804E-005
 PAO|CG| trace_G_new    3.0946509856344479E-005
 PAO|CG| trace_G_prev    7.8783412280419081E-005
 PAO|CG| trace_G_mix    4.6770951263533440E-008
 PAO|CG| trace_D    1.1786118382399487E-004
 PAO|CG| trace_D_Gnew  -2.4276126206289718E-008
 PAO|CG| beta:   0.39221122836235417     
 PAO| norm of gradient:   5.5629587322165606E-003
 PAO| energy improvement:  -9.7844286619519494E-006
 PAO| step     28                   -7.809083584  0.348E-03  0.248E+00     0.086
 PAO|LS| adapt:  T F F
 PAO|LS| adapt: scan_steps:    0.0000000000000000        0.0000000000000000        0.0000000000000000     
 PAO|LS| adapt: energies:   -7.8090835840614972        0.0000000000000000        0.0000000000000000     
 PAO| ======================= Iteration:        29 =============================

     Lanczos converged:  T threshold:   0.100E-02
     Est. extremal eigenvalues:    0.277E+01   0.178E+00
     Est. condition number :    0.156E+02
     NS sqrt iter    1 1.00000000   0.705E+00       0.002       39.901
     NS sqrt iter    2 1.00000000   0.330E+00       0.002       64.368
     NS sqrt iter    3 1.00000000   0.761E-01       0.002       63.930
     NS sqrt iter    4 1.00000000   0.196E-02       0.002       59.571
     NS sqrt iter    5 1.00000000   0.704E-07       0.002       38.745
     Final NS sqrt iter    5 1.00000000   0.593E-09

     Est. extremal eigenvalues     -0.93763     1.73581  converged:  T
     TRS4 it   1 1.00000000   0.886E+00       0.001       16.128   0.100E-07
     TRS4 it   2 1.00000000   0.629E+00       0.001       32.256   0.100E-07
     TRS4 it   3 1.00000000   0.429E+00       0.001       32.256   0.100E-07
     TRS4 it   4 1.00000000   0.220E+00       0.001       32.256   0.100E-07
     TRS4 it   5 1.00000000   0.721E-01       0.001       32.256   0.100E-07
     TRS4 it   6 1.00000000   0.975E-02       0.001       32.256   0.100E-07
     TRS4 it   7 1.00000000   0.236E-03       0.001       32.256   0.100E-07
     TRS4 it   8 1.00000000   0.191E-06       0.001       32.256   0.100E-07
     TRS4 it   9 1.00000000   0.155E-12       0.001       32.256   0.100E-07
     Final TRS4 iteration    9 1.00000000   0.155E-12
     Chemical potential (mu):       0.01115
 
 PAO| energy:  -7.8090903354649468      penalty:   1.2998571713558636E-005
 PAO|LS| adapt:  T T F
 PAO|LS| adapt: scan_steps:    0.0000000000000000       0.24786396471521246        0.0000000000000000     
 PAO|LS| adapt: energies:   -7.8090835840614972       -7.8090903354649468        0.0000000000000000     
 PAO| ======================= Iteration:        30 =============================

     Lanczos converged:  T threshold:   0.100E-02
     Est. extremal eigenvalues:    0.277E+01   0.178E+00
     Est. condition number :    0.156E+02
     NS sqrt iter    1 1.00000000   0.705E+00       0.002       40.153
     NS sqrt iter    2 1.00000000   0.329E+00       0.002       65.749
     NS sqrt iter    3 1.00000000   0.760E-01       0.002       65.091
     NS sqrt iter    4 1.00000000   0.196E-02       0.002       66.128
     NS sqrt iter    5 1.00000000   0.700E-07       0.002       48.902
     Final NS sqrt iter    5 1.00000000   0.590E-09

     Est. extremal eigenvalues     -0.93763     1.73553  converged:  T
     TRS4 it   1 1.00000000   0.886E+00       0.001       16.128   0.100E-07
     TRS4 it   2 1.00000000   0.629E+00       0.001       32.256   0.100E-07
     TRS4 it   3 1.00000000   0.429E+00       0.001       32.256   0.100E-07
     TRS4 it   4 1.00000000   0.220E+00       0.001       32.256   0.100E-07
     TRS4 it   5 1.00000000   0.720E-01       0.001       32.256   0.100E-07
     TRS4 it   6 1.00000000   0.973E-02       0.001       32.256   0.100E-07
     TRS4 it   7 1.00000000   0.235E-03       0.001       26.824   0.100E-07
     TRS4 it   8 1.00000000   0.189E-06       0.001       32.256   0.100E-07
     TRS4 it   9 1.00000000   0.150E-12       0.001       32.256   0.100E-07
     Final TRS4 iteration    9 1.00000000   0.150E-12
     Chemical potential (mu):       0.01127
 
 PAO| energy:  -7.8090952441437764      penalty:   1.2580537544214173E-005
 PAO|LS| adapt:  T T F
 PAO|LS| adapt: scan_steps:    0.0000000000000000       0.49572792943042493        0.0000000000000000     
 PAO|LS| adapt: energies:   -7.8090835840614972       -7.8090952441437764        0.0000000000000000     
 PAO| ======================= Iteration:        31 =============================

     Lanczos converged:  T threshold:   0.100E-02
     Est. extremal eigenvalues:    0.277E+01   0.178E+00
     Est. condition number :    0.155E+02
     NS sqrt iter    1 1.00000000   0.704E+00       0.002       41.428
     NS sqrt iter    2 1.00000000   0.329E+00       0.002       66.220
     NS sqrt iter    3 1.00000000   0.759E-01       0.002       64.397
     NS sqrt iter    4 1.00000000   0.195E-02       0.002       66.544
     NS sqrt iter    5 1.00000000   0.691E-07       0.002       42.393
     Final NS sqrt iter    5 1.00000000   0.597E-09

     Est. extremal eigenvalues     -0.93763     1.73499  converged:  T
     TRS4 it   1 1.00000000   0.886E+00       0.001       16.128   0.100E-07
     TRS4 it   2 1.00000000   0.628E+00       0.001       32.256   0.100E-07
     TRS4 it   3 1.00000000   0.429E+00       0.001       32.256   0.100E-07
     TRS4 it   4 1.00000000   0.220E+00       0.001       32.256   0.100E-07
     TRS4 it   5 1.00000000   0.718E-01       0.001       28.423   0.100E-07
     TRS4 it   6 1.00000000   0.967E-02       0.001       32.256   0.100E-07
     TRS4 it   7 1.00000000   0.232E-03       0.001       32.256   0.100E-07
     TRS4 it   8 1.00000000   0.184E-06       0.001       32.256   0.100E-07
     TRS4 it   9 1.00000000   0.143E-12       0.001       32.256   0.100E-07
     Final TRS4 iteration    9 1.00000000   0.143E-12
     Chemical potential (mu):       0.01152
 
 PAO| energy:  -7.8090995340809268      penalty:   1.1767196461994123E-005
 PAO|LS| Need extra step
 PAO|LS| adapt:  T T F
 PAO|LS| adapt: scan_steps:    0.0000000000000000       0.99145585886084986        0.0000000000000000     
 PAO|LS| adapt: energies:   -7.8090835840614972       -7.8090995340809268        0.0000000000000000     
 PAO| ======================= Iteration:        32 =============================

     Lanczos converged:  T threshold:   0.100E-02
     Est. extremal eigenvalues:    0.276E+01   0.178E+00
     Est. condition number :    0.155E+02
     NS sqrt iter    1 1.00000000   0.703E+00       0.002       40.472
     NS sqrt iter    2 1.00000000   0.329E+00       0.002       63.813
     NS sqrt iter    3 1.00000000   0.756E-01       0.002       65.946
     NS sqrt iter    4 1.00000000   0.193E-02       0.002       64.995
     NS sqrt iter    5 1.00000000   0.676E-07       0.002       47.890
     Final NS sqrt iter    5 1.00000000   0.594E-09

     Est. extremal eigenvalues     -0.93764     1.73388  converged:  T
     TRS4 it   1 1.00000000   0.886E+00       0.001       16.128   0.100E-07
     TRS4 it   2 1.00000000   0.628E+00       0.001       32.256   0.100E-07
     TRS4 it   3 1.00000000   0.428E+00       0.001       32.256   0.100E-07
     TRS4 it   4 1.00000000   0.219E+00       0.001       32.256   0.100E-07
     TRS4 it   5 1.00000000   0.714E-01       0.001       32.256   0.100E-07
     TRS4 it   6 1.00000000   0.957E-02       0.001       32.256   0.100E-07
     TRS4 it   7 1.00000000   0.227E-03       0.001       31.870   0.100E-07
     TRS4 it   8 1.00000000   0.175E-06       0.001       32.256   0.100E-07
     TRS4 it   9 1.00000000   0.128E-12       0.001       32.256   0.100E-07
     Final TRS4 iteration    9 1.00000000   0.128E-12
     Chemical potential (mu):       0.01200
 
 PAO| energy:  -7.8090860038165530      penalty:   1.0230390548480666E-005
 PAO|LS| Need extra step
 PAO|LS| adapt:  T T T
 PAO|LS| adapt: scan_steps:    0.0000000000000000       0.99145585886084986        1.9829117177216997     
 PAO|LS| adapt: energies:   -7.8090835840614972       -7.8090995340809268       -7.8090860038165530     
 PAO|LS| adapt: suggested step_size:    1.0321454319863623     
 PAO|LS| adapt: predicted energy  -7.8090995589077510     
 PAO| ======================= Iteration:        33 =============================

     Lanczos converged:  T threshold:   0.100E-02
     Est. extremal eigenvalues:    0.277E+01   0.178E+00
     Est. condition number :    0.155E+02
     NS sqrt iter    1 1.00000000   0.704E+00       0.002       39.460
     NS sqrt iter    2 1.00000000   0.329E+00       0.002       64.710
     NS sqrt iter    3 1.00000000   0.759E-01       0.002       62.805
     NS sqrt iter    4 1.00000000   0.195E-02       0.002       64.870
     NS sqrt iter    5 1.00000000   0.691E-07       0.002       48.159
     Final NS sqrt iter    5 1.00000000   0.597E-09

     Est. extremal eigenvalues     -0.93763     1.73494  converged:  T
     TRS4 it   1 1.00000000   0.886E+00       0.001       16.128   0.100E-07
     TRS4 it   2 1.00000000   0.628E+00       0.001       32.256   0.100E-07
     TRS4 it   3 1.00000000   0.429E+00       0.001       32.256   0.100E-07
     TRS4 it   4 1.00000000   0.220E+00       0.001       32.256   0.100E-07
     TRS4 it   5 1.00000000   0.718E-01       0.001       32.256   0.100E-07
     TRS4 it   6 1.00000000   0.967E-02       0.001       32.256   0.100E-07
[...]
     NS sqrt iter    3 1.00000000   0.485E-01       0.002       65.618
     NS sqrt iter    4 1.00000000   0.756E-03       0.002       66.028
     NS sqrt iter    5 1.00000000   0.567E-08       0.001       26.343
     Final NS sqrt iter    5 1.00000000   0.330E-09

     Est. extremal eigenvalues     -0.93732     1.63031  converged:  T
     TRS4 it   1 1.00000000   0.880E+00       0.001       16.128   0.100E-07
     TRS4 it   2 1.00000000   0.633E+00       0.001       32.256   0.100E-07
     TRS4 it   3 1.00000000   0.455E+00       0.001       32.256   0.100E-07
     TRS4 it   4 1.00000000   0.277E+00       0.001       32.256   0.100E-07
     TRS4 it   5 1.00000000   0.137E+00       0.001       32.256   0.100E-07
     TRS4 it   6 1.00000000   0.430E-01       0.001       29.717   0.100E-07
     TRS4 it   7 1.00000000   0.591E-02       0.001       32.256   0.100E-07
     TRS4 it   8 1.00000000   0.148E-03       0.001       32.256   0.100E-07
     TRS4 it   9 1.00000000   0.980E-07       0.001       32.256   0.100E-07
     TRS4 it  10 1.00000000   0.436E-13       0.001       32.256   0.100E-07
     Final TRS4 iteration   10 1.00000000   0.436E-13
     Chemical potential (mu):      -0.07603
 
 PAO| energy:  -7.8081571161401788      penalty:   2.4350106585728859E-008
 PAO|LS| Need extra step
 PAO|LS| adapt:  T T T
 PAO|LS| adapt: scan_steps:    0.0000000000000000       0.20000000000000001       0.40000000000000002     
 PAO|LS| adapt: energies:   -7.8081571126983480       -7.8081571175834172       -7.8081571161401788     
 PAO|LS| adapt: suggested step_size:   0.25438785545234061     
 PAO|LS| adapt: predicted energy  -7.8081571178174096     
 PAO| ======================= Iteration:       419 =============================

     Lanczos converged:  T threshold:   0.100E-02
     Est. extremal eigenvalues:    0.249E+01   0.191E+00
     Est. condition number :    0.131E+02
     NS sqrt iter    1 1.00000000   0.632E+00       0.002       39.976
     NS sqrt iter    2 1.00000000   0.275E+00       0.002       64.907
     NS sqrt iter    3 1.00000000   0.485E-01       0.002       65.860
     NS sqrt iter    4 1.00000000   0.756E-03       0.002       59.107
     NS sqrt iter    5 1.00000000   0.567E-08       0.001       28.480
     Final NS sqrt iter    5 1.00000000   0.330E-09

     Est. extremal eigenvalues     -0.93732     1.63031  converged:  T
     TRS4 it   1 1.00000000   0.880E+00       0.001       16.128   0.100E-07
     TRS4 it   2 1.00000000   0.633E+00       0.001       32.256   0.100E-07
     TRS4 it   3 1.00000000   0.455E+00       0.001       32.256   0.100E-07
     TRS4 it   4 1.00000000   0.277E+00       0.001       32.256   0.100E-07
     TRS4 it   5 1.00000000   0.137E+00       0.001       32.256   0.100E-07
     TRS4 it   6 1.00000000   0.430E-01       0.001       32.256   0.100E-07
     TRS4 it   7 1.00000000   0.591E-02       0.001       32.256   0.100E-07
     TRS4 it   8 1.00000000   0.148E-03       0.001       32.256   0.100E-07
     TRS4 it   9 1.00000000   0.980E-07       0.001       32.256   0.100E-07
     TRS4 it  10 1.00000000   0.430E-13       0.001       32.256   0.100E-07
     Final TRS4 iteration   10 1.00000000   0.430E-13
     Chemical potential (mu):      -0.07603
 
 PAO| energy:  -7.8081571178174141      penalty:   2.4639044193025253E-008
 PAO|CG| warming up with steepest descent
 PAO|CG| beta:    0.0000000000000000     
 PAO| norm of gradient:   1.2378871363619875E-004
 PAO| energy improvement:  -5.1190660599331750E-009
 PAO| step    419                   -7.808157118  0.774E-05  0.254E+00     0.110
 PAO| converged after          419  steps :-)
 PAO| Recalculating energy after mixing.

     Lanczos converged:  T threshold:   0.100E-02
     Est. extremal eigenvalues:    0.249E+01   0.191E+00
     Est. condition number :    0.131E+02
     NS sqrt iter    1 1.00000000   0.632E+00       0.002       37.171
     NS sqrt iter    2 1.00000000   0.275E+00       0.002       64.601
     NS sqrt iter    3 1.00000000   0.485E-01       0.002       44.555
     NS sqrt iter    4 1.00000000   0.756E-03       0.003       42.761
     NS sqrt iter    5 1.00000000   0.567E-08       0.002       18.254
     Final NS sqrt iter    5 1.00000000   0.330E-09

     Est. extremal eigenvalues     -0.93732     1.63030  converged:  T
     TRS4 it   1 1.00000000   0.880E+00       0.001       16.128   0.100E-07
     TRS4 it   2 1.00000000   0.633E+00       0.001       31.584   0.100E-07
     TRS4 it   3 1.00000000   0.455E+00       0.001       32.008   0.100E-07
     TRS4 it   4 1.00000000   0.277E+00       0.001       31.384   0.100E-07
     TRS4 it   5 1.00000000   0.137E+00       0.001       31.134   0.100E-07
     TRS4 it   6 1.00000000   0.430E-01       0.001       32.256   0.100E-07
     TRS4 it   7 1.00000000   0.591E-02       0.001       32.256   0.100E-07
     TRS4 it   8 1.00000000   0.148E-03       0.001       32.256   0.100E-07
     TRS4 it   9 1.00000000   0.980E-07       0.001       32.256   0.100E-07
     TRS4 it  10 1.00000000   0.432E-13       0.001       32.256   0.100E-07
     Final TRS4 iteration   10 1.00000000   0.432E-13
     Chemical potential (mu):      -0.07603
 
 PAO| energy:  -7.8081571165376271      penalty:   2.4892825233335108E-008
 PAO| Writing restart file.
     Est. extremal eigenvalues     -0.93732     1.63030  converged:  T
     TRS4 it   1 1.00000000   0.880E+00       0.001       16.128   0.100E-07
     TRS4 it   2 1.00000000   0.633E+00       0.001       32.256   0.100E-07
     TRS4 it   3 1.00000000   0.455E+00       0.001       27.306   0.100E-07
     TRS4 it   4 1.00000000   0.277E+00       0.001       22.538   0.100E-07
     TRS4 it   5 1.00000000   0.137E+00       0.001       32.256   0.100E-07
     TRS4 it   6 1.00000000   0.430E-01       0.001       32.256   0.100E-07
     TRS4 it   7 1.00000000   0.591E-02       0.001       32.256   0.100E-07
     TRS4 it   8 1.00000000   0.148E-03       0.001       32.256   0.100E-07
     TRS4 it   9 1.00000000   0.980E-07       0.001       32.256   0.100E-07
     TRS4 it  10 1.00000000   0.432E-13       0.001       32.256   0.100E-07
     Final TRS4 iteration   10 1.00000000   0.432E-13
     Chemical potential (mu):      -0.07603

 SCF     1       -34.449857778       -34.449857778    2.314988

*********************************************************
 Using MIXING_FRACTION=0.450 to mix KS matrix:  iscf=  2
 KS_nw=0.450*KS + 0.550*KS_old
*********************************************************
     Est. extremal eigenvalues     -0.93732     1.63031  converged:  T
     TRS4 it   1 1.00000000   0.880E+00       0.001       16.128   0.100E-07
     TRS4 it   2 1.00000000   0.633E+00       0.001       32.113   0.100E-07
     TRS4 it   3 1.00000000   0.455E+00       0.001       32.256   0.100E-07
     TRS4 it   4 1.00000000   0.277E+00       0.001       32.256   0.100E-07
     TRS4 it   5 1.00000000   0.137E+00       0.001       32.256   0.100E-07
     TRS4 it   6 1.00000000   0.430E-01       0.001       32.256   0.100E-07
     TRS4 it   7 1.00000000   0.591E-02       0.001       27.011   0.100E-07
     TRS4 it   8 1.00000000   0.148E-03       0.001       29.236   0.100E-07
     TRS4 it   9 1.00000000   0.981E-07       0.001       25.980   0.100E-07
     TRS4 it  10 1.00000000   0.432E-13       0.001       27.238   0.100E-07
     Final TRS4 iteration   10 1.00000000   0.432E-13
     Chemical potential (mu):      -0.07603

 SCF     2       -34.449857778        -0.000000000    2.248054

 PAO| Storing density matrix for ASPC guess in slot:           1

 ENERGY| Total FORCE_EVAL ( QS ) energy (a.u.):              -34.449857778214259


 -------------------------------------------------------------------------------
 -                                                                             -
 -                                DBCSR STATISTICS                             -
 -                                                                             -
 -------------------------------------------------------------------------------
 COUNTER                                    TOTAL       BLAS       SMM       ACC
 flops     5 x     5 x     4                20000     100.0%      0.0%      0.0%
 flops    13 x     5 x     4                20800     100.0%      0.0%      0.0%
 flops     5 x    13 x     4                20800     100.0%      0.0%      0.0%
 flops    13 x    13 x     4                40560     100.0%      0.0%      0.0%
 flops     4 x     4 x     5              3290880     100.0%      0.0%      0.0%
 flops     5 x     4 x     5              4028800     100.0%      0.0%      0.0%
 flops     4 x     4 x    13              4278144     100.0%      0.0%      0.0%
 flops    13 x     4 x     5              5237440     100.0%      0.0%      0.0%
 flops     5 x     4 x    13              5237440     100.0%      0.0%      0.0%
 flops     5 x     4 x     4              6427040     100.0%      0.0%      0.0%
 flops    13 x     4 x    13              6808672     100.0%      0.0%      0.0%
 flops    13 x     4 x     4              8508032     100.0%      0.0%      0.0%
 flops     4 x     4 x     4            425902208     100.0%      0.0%      0.0%
 flops inhomo. stacks                           0       0.0%      0.0%      0.0%
 flops total                       469.820816E+06     100.0%      0.0%      0.0%
 flops max/rank                    469.820816E+06     100.0%      0.0%      0.0%
 matmuls inhomo. stacks                         0       0.0%      0.0%      0.0%
 matmuls total                            3464368     100.0%      0.0%      0.0%
 number of processed stacks                 27595     100.0%      0.0%      0.0%
 average stack size                                   125.5       0.0       0.0
 marketing flops                   763.888320E+06
 -------------------------------------------------------------------------------
 # multiplications                          23073
 max memory usage/rank             327.999488E+06
 # max total images/rank                        1
 # max 3D layers                                1
 # MPI messages exchanged                       0
 MPI messages size (bytes):
  total size                         0.000000E+00
  min size                           0.000000E+00
  max size                           0.000000E+00
  average size                       0.000000E+00
 MPI breakdown and total messages size (bytes):
             size <=      128                   0                        0
       128 < size <=     8192                   0                        0
      8192 < size <=    32768                   0                        0
     32768 < size <=   131072                   0                        0
    131072 < size <=  4194304                   0                        0
   4194304 < size <= 16777216                   0                        0
  16777216 < size                               0                        0
 -------------------------------------------------------------------------------

 MEMORY| Estimated peak process memory [MiB]                                 313

 -------------------------------------------------------------------------------
 -                                                                             -
 -                           R E F E R E N C E S                               -
 -                                                                             -
 -------------------------------------------------------------------------------
 
 CP2K version 7.0 (Development Version), the CP2K developers group (2018).
 CP2K is freely available from https://www.cp2k.org/ .

 Schuett, O; VandeVondele, J. 
 Journal of Chemical Theory and Computation, 14, (2018). 
 Machine Learning Adaptive Basis Sets for Efficient Large Scale Density Functional Theory Simulation.
 https://dx.doi.org/10.1021/acs.jctc.8b00378


 Schuett, Ole; Messmer, Peter; Hutter, Juerg; VandeVondele, Joost. 
 Electronic Structure Calculations on Graphics Processing Units, John Wiley & Sons, Ltd, 173-190 (2016). 
 GPU-Accelerated Sparse Matrix-Matrix Multiplication for Linear Scaling Density Functional Theory.
 https://dx.doi.org/10.1002/9781118670712.ch8


 Borstnik, U; VandeVondele, J; Weber, V; Hutter, J. 
 PARALLEL COMPUTING, 40 (5-6), 47-58 (2014). 
 Sparse matrix multiplication: The distributed block-compressed sparse
 row library.
 https://dx.doi.org/10.1016/j.parco.2014.03.012


 Hutter, J; Iannuzzi, M; Schiffmann, F; VandeVondele, J. 
 WILEY INTERDISCIPLINARY REVIEWS-COMPUTATIONAL MOLECULAR SCIENCE, 4 (1), 15-25 (2014). 
 CP2K: atomistic simulations of condensed matter systems.
 https://dx.doi.org/10.1002/wcms.1159


 VandeVondele, J; Borstnik, U; Hutter, J. 
 JOURNAL OF CHEMICAL THEORY AND COMPUTATION, 8 (10), 3565-3573 (2012). 
 Linear Scaling Self-Consistent Field Calculations with Millions of Atoms
 in the Condensed Phase.
 https://dx.doi.org/10.1021/ct200897x


 VandeVondele, J; Hutter, J. 
 JOURNAL OF CHEMICAL PHYSICS, 127 (11), 114105 (2007). 
 Gaussian basis sets for accurate calculations on molecular systems in
 gas and condensed phases.
 https://dx.doi.org/10.1063/1.2770708


 Krack, M. 
 THEORETICAL CHEMISTRY ACCOUNTS, 114 (1-3), 145-152 (2005). 
 Pseudopotentials for H to Kr optimized for gradient-corrected
 exchange-correlation functionals.
 https://dx.doi.org/10.1007/s00214-005-0655-y


 VandeVondele, J; Krack, M; Mohamed, F; Parrinello, M; Chassaing, T;
 Hutter, J. COMPUTER PHYSICS COMMUNICATIONS, 167 (2), 103-128 (2005). 
 QUICKSTEP: Fast and accurate density functional calculations using a
 mixed Gaussian and plane waves approach.
 https://dx.doi.org/10.1016/j.cpc.2004.12.014


 Frigo, M; Johnson, SG. 
 PROCEEDINGS OF THE IEEE, 93 (2), 216-231 (2005). 
 The design and implementation of FFTW3.
 https://dx.doi.org/10.1109/JPROC.2004.840301


 Niklasson, AMN; Tymczak, CJ; Challacombe, M. 
 JOURNAL OF CHEMICAL PHYSICS, 118 (19), 8611-8620 (2003). 
 Trace resetting density matrix purification in O(N)
 self-consistent-field theory.
 https://dx.doi.org/10.1063/1.1559913


 Hartwigsen, C; Goedecker, S; Hutter, J. 
 PHYSICAL REVIEW B, 58 (7), 3641-3662 (1998). 
 Relativistic separable dual-space Gaussian pseudopotentials from H to Rn.
 https://dx.doi.org/10.1103/PhysRevB.58.3641


 Lippert, G; Hutter, J; Parrinello, M. 
 MOLECULAR PHYSICS, 92 (3), 477-487 (1997). 
 A hybrid Gaussian and plane wave density functional scheme.
 https://dx.doi.org/10.1080/002689797170220


 Perdew, JP; Burke, K; Ernzerhof, M. 
 PHYSICAL REVIEW LETTERS, 77 (18), 3865-3868 (1996). 
 Generalized gradient approximation made simple.
 https://dx.doi.org/10.1103/PhysRevLett.77.3865


 Goedecker, S; Teter, M; Hutter, J. 
 PHYSICAL REVIEW B, 54 (3), 1703-1710 (1996). 
 Separable dual-space Gaussian pseudopotentials.
 https://dx.doi.org/10.1103/PhysRevB.54.1703


 -------------------------------------------------------------------------------
 -                                                                             -
 -                                T I M I N G                                  -
 -                                                                             -
 -------------------------------------------------------------------------------
 SUBROUTINE                       CALLS  ASD         SELF TIME        TOTAL TIME
                                MAXIMUM       AVERAGE  MAXIMUM  AVERAGE  MAXIMUM
 CP2K                                 1  1.0    0.015    0.015   35.086   35.086
 qs_energies                          1  2.0    0.000    0.000   34.603   34.603
 ls_scf                               1  3.0    0.000    0.000   34.478   34.478
 ls_scf_main                          4  4.0    0.001    0.001   20.693   20.693
 ls_scf_dm_to_ks                      9  5.0    0.000    0.000   20.560   20.560
 qs_ks_update_qs_env                 10  6.0    0.000    0.000   15.933   15.933
 rebuild_ks_matrix                   10  7.0    0.000    0.000   15.933   15.933
 qs_ks_build_kohn_sham_matrix        10  8.0    0.001    0.001   15.933   15.933
 pao_update                           4  4.0    0.012    0.012   11.658   11.658
 pao_calc_energy                    422  5.0    0.005    0.005   10.490   10.490
 qs_vxc_create                       10  9.0    0.000    0.000    9.675    9.675
 xc_vxc_pw_create                    10 10.0    0.114    0.114    9.675    9.675
 dbcsr_multiply_generic           23073  8.4    0.559    0.559    9.023    9.023
 xc_rho_set_and_dset_create          10 11.0    0.036    0.036    7.205    7.205
 qs_rho_update_rho                   10  6.0    0.000    0.000    6.659    6.659
 calculate_rho_elec                  10  7.0    5.330    5.330    6.659    6.659
 pw_transfer                        191 10.6    0.013    0.013    6.281    6.281
 fft_wrap_pw1pw2                    171 11.7    0.002    0.002    6.194    6.194
 fft_wrap_pw1pw2_200                111 12.8    0.320    0.320    5.914    5.914
 pao_dm_trs4                        422  6.0    0.003    0.003    5.427    5.427
 sum_up_and_integrate                10  9.0    0.017    0.017    5.388    5.388
 integrate_v_rspace                  10 10.0    4.656    4.656    5.370    5.370
 density_matrix_trs4                431  7.0    0.194    0.194    5.254    5.254
 xc_functional_eval                  10 12.0    0.000    0.000    5.177    5.177
 pbe_lda_eval                        10 13.0    5.177    5.177    5.177    5.177
 ls_scf_init_matrix_S               426  7.0    0.004    0.004    5.058    5.058
 pao_rebuild_S                      422  6.0    0.003    0.003    5.015    5.015
 matrix_sqrt_Newton_Schulz          426  8.0    0.116    0.116    4.557    4.557
 multiply_cannon                  23073  9.4    1.408    1.408    4.245    4.245
 fft3d_s                            172 13.6    3.419    3.419    3.432    3.432
 make_m2s                         46146  9.4    0.203    0.203    2.881    2.881
 make_images                      46146 10.4    0.682    0.682    2.539    2.539
 pao_guess_initial_P                  1  4.0    0.000    0.000    2.040    2.040
 pao_read_preopt_dm                   1  5.0    0.000    0.000    2.040    2.040
 multiply_cannon_multrec          23073 10.4    1.524    1.524    1.658    1.658
 pw_gather_s                         81 13.1    1.340    1.340    1.340    1.340
 density_rs2pw                       10  8.0    0.001    0.001    1.315    1.315
 arnoldi_extremal                   857  8.5    0.005    0.005    1.264    1.264
 arnoldi_normal_ev                  857  9.5    0.014    0.014    1.259    1.259
 pao_calc_AB                        557  5.8    0.001    0.001    1.146    1.146
 pao_calc_AB_direct                 557  6.8    0.031    0.031    1.145    1.145
 pw_scatter_s                        90 14.2    1.089    1.089    1.089    1.089
 pao_calc_grad_lnv_wrt_AB           134  7.0    0.009    0.009    1.081    1.081
 build_subspace                     857 10.5    0.064    0.064    0.946    0.946
 dbcsr_matrix_vector_mult         20548 11.5    0.126    0.126    0.848    0.848
 dbcsr_finalize                   54945  9.6    0.134    0.134    0.828    0.828
 dbcsr_create_new                176449 10.7    0.397    0.397    0.758    0.758
 potential_pw2rs                     10 11.0    0.004    0.004    0.713    0.713
 -------------------------------------------------------------------------------

 The number of warnings for this run is : 0
 
 -------------------------------------------------------------------------------
  **** **** ******  **  PROGRAM ENDED AT                 2019-03-28 17:32:53.822
 ***** ** ***  *** **   PROGRAM RAN ON            oleschuett.zrh.corp.google.com
 **    ****   ******    PROGRAM RAN BY                                oleschuett
 ***** **    ** ** **   PROGRAM PROCESS ID                                 30731
  **** **  *******  **  PROGRAM STOPPED IN /usr/local/google/home/oleschuett/git
                                           /pao_ml_equivar/2H2O_rotations/phi_12
