 DBCSR| CPU Multiplication driver                                           XSMM (U)
 DBCSR| Multrec recursion limit                                              512 (U)
 DBCSR| Multiplication stack size                                           1000 (D)
 DBCSR| Maximum elements for images                                    UNLIMITED (U)
 DBCSR| Multiplicative factor virtual images                                   1 (U)
 DBCSR| Use multiplication densification                                       T (D)
 DBCSR| Multiplication size stacks                                             3 (U)
 DBCSR| Use memory pool for CPU allocation                                     F (U)
 DBCSR| OMP: Current number of threads                                         1
 DBCSR| OMP: Max number of threads                                             1
 DBCSR| Split modifier for TAS multiplication algorithm                  1.0E+00 (U)


  **** **** ******  **  PROGRAM STARTED AT               2023-02-01 10:45:19.663
 ***** ** ***  *** **   PROGRAM STARTED ON                                moritz
 **    ****   ******    PROGRAM STARTED BY                                   ole
 ***** **    ** ** **   PROGRAM PROCESS ID                                148575
  **** **  *******  **  PROGRAM STARTED IN /home/ole/git/pao_ml_equivar/2H2O_rot
                                           ations/phi_12

 CP2K| version string:                 CP2K version 2023.1 (Development Version)
 CP2K| source code revision number:                                  git:03b4147
 CP2K| cp2kflags: omp libint fftw3 libxc quip xsmm spglib libvori libbqb libtorc
 CP2K|            h
 CP2K| is freely available from                            https://www.cp2k.org/
 CP2K| Program compiled at                           Mi 01 Feb 2023 10:36:52 CET
 CP2K| Program compiled on                                                moritz
 CP2K| Program compiled for                                                local
 CP2K| Data directory path                               /home/ole/git/cp2k/data
 CP2K| Input file name                                            2H2O_pao44.inp

 GLOBAL| Force Environment number                                              1
 GLOBAL| Basis set file name                                        BASIS_MOLOPT
 GLOBAL| Potential file name                                      GTH_POTENTIALS
 GLOBAL| MM Potential file name                                     MM_POTENTIAL
 GLOBAL| Coordinate file name                                         coords.xyz
 GLOBAL| Method name                                                        CP2K
 GLOBAL| Project name                                                 2H2O_pao44
 GLOBAL| Run type                                                         ENERGY
 GLOBAL| FFT library                                                       FFTW3
 GLOBAL| Diagonalization library                                       ScaLAPACK
 GLOBAL| DGEMM library                                                      BLAS
 GLOBAL| Orthonormality check for eigenvectors                          DISABLED
 GLOBAL| Matrix multiplication library                                 ScaLAPACK
 GLOBAL| All-to-all communication in single precision                          F
 GLOBAL| FFTs using library dependent lengths                                  F
 GLOBAL| Grid backend                                                       AUTO
 GLOBAL| Global print level                                                  LOW
 GLOBAL| MPI I/O enabled                                                       T
 GLOBAL| Total number of message passing processes                             1
 GLOBAL| Number of threads for this process                                    1
 GLOBAL| This output is from process                                           0
 GLOBAL| Stack size for threads created by OpenMP (OMP_STACKSIZE)        default
 GLOBAL| CPU model name           AMD Ryzen Threadripper 3970X 32-Core Processor
 GLOBAL| CPUID                                                              1002
 GLOBAL| Compiled for CPUID                                                    0

 *** HINT in environment.F:884 :: The compiler target flags (generic) used ***
 *** to build this binary cannot exploit all extensions of this CPU model  ***
 *** (x86_avx2). Consider compiler target flags as part of FCFLAGS and     ***
 *** CFLAGS (ARCH file).                                                   ***


 MEMORY| system memory details [Kb]
 MEMORY|                        rank 0           min           max       average
 MEMORY| MemTotal            131773860     131773860     131773860     131773860
 MEMORY| MemFree             118710688     118710688     118710688     118710688
 MEMORY| Buffers                301580        301580        301580        301580
 MEMORY| Cached                7018548       7018548       7018548       7018548
 MEMORY| Slab                   776140        776140        776140        776140
 MEMORY| SReclaimable           331304        331304        331304        331304
 MEMORY| MemLikelyFree       126362120     126362120     126362120     126362120


 GENERATE|  Preliminary Number of Bonds generated:                             0
 GENERATE|  Achieved consistency in connectivity generation.

 *******************************************************************************
 *******************************************************************************
 **                                                                           **
 **     #####                         ##              ##                      **
 **    ##   ##            ##          ##              ##                      **
 **   ##     ##                       ##            ######                    **
 **   ##     ##  ##   ##  ##   #####  ##  ##   ####   ##    #####    #####    **
 **   ##     ##  ##   ##  ##  ##      ## ##   ##      ##   ##   ##  ##   ##   **
 **   ##  ## ##  ##   ##  ##  ##      ####     ###    ##   ######   ######    **
 **    ##  ###   ##   ##  ##  ##      ## ##      ##   ##   ##       ##        **
 **     #######   #####   ##   #####  ##  ##  ####    ##    #####   ##        **
 **           ##                                                    ##        **
 **                                                                           **
 **                                                ... make the atoms dance   **
 **                                                                           **
 **            Copyright (C) by CP2K developers group (2000-2023)             **
 **                      J. Chem. Phys. 152, 194103 (2020)                    **
 **                                                                           **
 *******************************************************************************


 TOTAL NUMBERS AND MAXIMUM NUMBERS

  Total number of            - Atomic kinds:                                   2
                             - Atoms:                                          6
                             - Shell sets:                                     6
                             - Shells:                                        22
                             - Primitive Cartesian functions:                 42
                             - Cartesian basis functions:                     48
                             - Spherical basis functions:                     46

  Maximum angular momentum of- Orbital basis functions:                        2
                             - Local part of the GTH pseudopotential:          2
                             - Non-local part of the GTH pseudopotential:      0

 ------------------------------ Linear scaling SCF -----------------------------
 eps_scf:                                                              0.100E-07
 eps_filter:                                                           0.100E-07
 mixing_fraction:                                                      0.450E+00
 max_scf:                                                                     25
 fixed chemical potential (mu)                                                 F
 has unit metric:                                                              F
 Computing inv(S):                                                             T
 Computing sqrt(S):                                                            T
 Computing S preconditioner                                                    F
 S sqrt method:                                                     NEWTONSCHULZ
 S sqrt order:                                                                 3
 Extrapolation order:                                                          1
 Use single precision matrices                                                 F
 S preconditioner type                                                      NONE
 Polarized Atomic Orbitals (PAO)                                               T
 Purification method                                   Trace resetting 4th order
 Cluster type                                                             ATOMIC
 Computing Chebyshev                                                       FALSE
 Using PAO                                                                     T
 -------------------------------------------------------------------------------

 
 PAO|                                  EPS_PAO                           0.1E-04
 PAO|                                  MIXING                            0.5E+00
 PAO|                                  MAX_PAO                              1000
 PAO|                                  MAX_CYCLES                           1000
 PAO|                                  PARAMETERIZATION              EQUIVARIANT
 PAO|                                  PRECONDITION                            F
 PAO|                                  REGULARIZATION                    0.0E+00
 PAO|                                  EPS_PGF                           0.1E-09
 PAO|                                  PENALTY_DISTANCE                  0.1E+00
 PAO|                                  PENALTY_STRENGTH                  0.5E-02
 PAO|                                  LINPOT_PRECONDITION_DELTA         0.0E+00
 PAO|                                  LINPOT_INITGUESS_DELT             0.0E+00
 PAO|                                  LINPOT_REGULARIZATION_DELTA       0.0E+00
 PAO|                                  LINPOT_REGULARIZATION_STRENGTH    0.0E+00
 PAO|                                  OPTIMIZER                              CG
 PAO|                                  CG_INIT_STEPS                           2
 PAO|                                  CG_RESET_LIMIT                    0.1E+00
 PAO|                                  CHECK_UNITARY_TOL                -0.1E+01
 PAO|                                  CHECK_GRADIENT_TOL               -0.1E+01
 PAO|                                  NUM_GRADIENT_ORDER                      2
 PAO|                                  NUM_GRADIENT_EPS                  0.1E-07
 PAO|                                  PRINT%RESTART%WRITE_CYCLES            100
 PAO|                                  RESTART_FILE 
 PAO|                                  PREOPT_DM_FILE 2H2O_ref_LS_DM_SPIN_1_RESTART.dm
 PAO|                                  MACHINE_LEARNING%METHOD       GAUSSIAN_PR
 PAO|                                  MACHINE_LEARNING%PRIOR               ZERO
 PAO|                                  MACHINE_LEARNING%DESCRIPTOR     POTENTIAL
 PAO|                                  MACHINE_LEARNING%TOLERANCE        0.1E-01
 PAO|                                  MACHINE_LEARNING%GP_NOISE_VAR     0.1E+00
 PAO|                                  MACHINE_LEARNING%GP_SCALE         0.5E-01
 

 Calculating atomic Fock matrix for atomic kind: O

 Electronic structure
    Total number of core electrons                                          2.00
    Total number of valence electrons                                       6.00
    Total number of electrons                                               8.00
    Multiplicity                                                   not specified
    S   [  2.00] 2.00
    P      4.00


 *******************************************************************************
                  Iteration          Convergence                     Energy [au]
 *******************************************************************************
                          1        0.708315                     -15.576645311500
                          2        0.608879                     -15.587933561584
                          3        0.102828E-01                 -15.656849565404
                          4        0.113889E-02                 -15.656866888140
                          5        0.434197E-03                 -15.656867072159
                          6        0.263771E-03                 -15.656867091904
                          7        0.478536E-06                 -15.656867103452

 Energy components [Hartree]           Total Energy ::          -15.656867103452
                                        Band Energy ::           -3.000198112285
                                     Kinetic Energy ::           11.759971203220
                                   Potential Energy ::          -27.416838306672
                                      Virial (-V/T) ::            2.331369510426
                                        Core Energy ::          -26.140716385623
                                          XC Energy ::           -3.154051012914
                                     Coulomb Energy ::           13.637900295084
                       Total Pseudopotential Energy ::          -37.935781716540
                       Local Pseudopotential Energy ::          -39.218907440693
                    Nonlocal Pseudopotential Energy ::            1.283125724153
                                        Confinement ::            0.350941276976

 Orbital energies  State     L     Occupation   Energy[a.u.]          Energy[eV]

                       1     0          2.000      -0.864471          -23.523463

                       1     1          4.000      -0.317814           -8.648154


 Total Electron Density at R=0:                                         0.000068

 Calculating atomic Fock matrix for atomic kind: H

 Electronic structure
    Total number of core electrons                                          0.00
    Total number of valence electrons                                       1.00
    Total number of electrons                                               1.00
    Multiplicity                                                   not specified
    S      1.00


 *******************************************************************************
                  Iteration          Convergence                     Energy [au]
 *******************************************************************************
                          1        0.437545E-02                  -0.424159432110
                          2        0.531356E-03                  -0.424178438213
                          3        0.259176E-06                  -0.424178722480

 Energy components [Hartree]           Total Energy ::           -0.424178722480
                                        Band Energy ::           -0.199015229016
                                     Kinetic Energy ::            0.464007633961
                                   Potential Energy ::           -0.888186356441
                                      Virial (-V/T) ::            1.914163240935
                                        Core Energy ::           -0.479160803564
                                          XC Energy ::           -0.244352904054
                                     Coulomb Energy ::            0.299334985138
                       Total Pseudopotential Energy ::           -0.962295316385
                       Local Pseudopotential Energy ::           -0.962295316385
                    Nonlocal Pseudopotential Energy ::            0.000000000000
                                        Confinement ::            0.191268788606

 Orbital energies  State     L     Occupation   Energy[a.u.]          Energy[eV]

                       1     0          1.000      -0.199015           -5.415480


 Total Electron Density at R=0:                                         0.242907
 PAO| Made initial guess for matrix_X with norm:   4.8989794855663558     

     Lanczos converged:  T threshold:   0.100E-02
     Est. extremal eigenvalues:    0.336E+01   0.110E+00
     Est. condition number :    0.306E+02

 Order=           3
     NS sqrt iter    1 1.00000000   0.820E+00       0.001       64.512
     NS sqrt iter    2 1.00000000   0.440E+00       0.001      110.592
     NS sqrt iter    3 1.00000000   0.171E+00       0.001      110.592
     NS sqrt iter    4 1.00000000   0.213E-01       0.001      110.592
     NS sqrt iter    5 1.00000000   0.641E-04       0.001       99.584
     Symmetrizing Results
     Final NS sqrt iter    5 1.00000000   0.352E-08

 PAO| Read restart DM 2H2O_ref_LS_DM_SPIN_1_RESTART.dm with checksum:    72.071451191715767     
 PAO| Quickstep energy from restart density:  -34.450402251036159     
 PAO| ======================= Iteration:         1 =============================

     Lanczos converged:  T threshold:   0.100E-02
     Est. extremal eigenvalues:    0.336E+01   0.110E+00
     Est. condition number :    0.306E+02

 Order=           3
     NS sqrt iter    1 1.00000000   0.820E+00       0.001       64.512
     NS sqrt iter    2 1.00000000   0.440E+00       0.001      110.592
     NS sqrt iter    3 1.00000000   0.171E+00       0.001      110.592
     NS sqrt iter    4 1.00000000   0.213E-01       0.001      110.592
     NS sqrt iter    5 1.00000000   0.641E-04       0.001       99.584
     Symmetrizing Results
     Final NS sqrt iter    5 1.00000000   0.352E-08

     Est. extremal eigenvalues     -0.92043     1.96488  converged:  T
     TRS4 it   1 1.00000000   0.902E+00       0.000       16.128   0.100E-07
     TRS4 it   2 1.00000000   0.712E+00       0.000       32.256   0.100E-07
     TRS4 it   3 1.00000000   0.507E+00       0.000       32.256   0.100E-07
     TRS4 it   4 1.00000000   0.320E+00       0.000       32.256   0.100E-07
     TRS4 it   5 1.00000000   0.160E+00       0.000       32.256   0.100E-07
     TRS4 it   6 1.00000000   0.513E-01       0.000       32.256   0.100E-07
     TRS4 it   7 1.00000000   0.734E-02       0.000       32.256   0.100E-07
     TRS4 it   8 1.00000000   0.213E-03       0.000       32.256   0.100E-07
     TRS4 it   9 1.00000000   0.201E-06       0.000       32.256   0.100E-07
     TRS4 it  10 1.00000000   0.182E-12       0.000       32.256   0.100E-07
     Final TRS4 iteration   10 1.00000000   0.182E-12
     Chemical potential (mu):      -0.06604
 
 PAO| energy:  -7.6312029889912374      penalty:   6.2862353384799379E-033
 PAO|CG| warming up with steepest descent
 PAO|CG| beta:    0.0000000000000000     
 PAO| norm of gradient:  0.78344032365682492     
 PAO|LS| adapt:  T F F
 PAO|LS| adapt: scan_steps:    0.0000000000000000        0.0000000000000000        0.0000000000000000     
 PAO|LS| adapt: energies:   -7.6312029889912374        0.0000000000000000        0.0000000000000000     
 PAO| ======================= Iteration:         2 =============================

     Lanczos converged:  T threshold:   0.100E-02
     Est. extremal eigenvalues:    0.328E+01   0.122E+00
     Est. condition number :    0.268E+02

 Order=           3
     NS sqrt iter    1 1.00000000   0.804E+00       0.001       64.512
     NS sqrt iter    2 1.00000000   0.425E+00       0.001      110.592
     NS sqrt iter    3 1.00000000   0.154E+00       0.001      110.592
     NS sqrt iter    4 1.00000000   0.149E-01       0.001      110.592
     NS sqrt iter    5 1.00000000   0.222E-04       0.001       82.944
     Symmetrizing Results
     Final NS sqrt iter    5 1.00000000   0.776E-09

     Est. extremal eigenvalues     -0.92410     1.90873  converged:  T
     TRS4 it   1 1.00000000   0.900E+00       0.000       16.128   0.100E-07
     TRS4 it   2 1.00000000   0.694E+00       0.000       32.256   0.100E-07
     TRS4 it   3 1.00000000   0.493E+00       0.000       32.256   0.100E-07
     TRS4 it   4 1.00000000   0.301E+00       0.000       32.256   0.100E-07
     TRS4 it   5 1.00000000   0.142E+00       0.000       32.256   0.100E-07
     TRS4 it   6 1.00000000   0.403E-01       0.000       32.256   0.100E-07
     TRS4 it   7 1.00000000   0.458E-02       0.000       32.256   0.100E-07
     TRS4 it   8 1.00000000   0.834E-04       0.000       32.256   0.100E-07
     TRS4 it   9 1.00000000   0.309E-07       0.000       32.256   0.100E-07
     Final TRS4 iteration    9 1.00000000   0.309E-07
     Chemical potential (mu):      -0.05413
 
 PAO| energy:  -7.6866959213000321      penalty:   2.2502092811053011E-008
 PAO|LS| adapt:  T T F
 PAO|LS| adapt: scan_steps:    0.0000000000000000       0.10000000000000001        0.0000000000000000     
 PAO|LS| adapt: energies:   -7.6312029889912374       -7.6866959213000321        0.0000000000000000     
 PAO| ======================= Iteration:         3 =============================

     Lanczos converged:  T threshold:   0.100E-02
     Est. extremal eigenvalues:    0.318E+01   0.133E+00
     Est. condition number :    0.239E+02

 Order=           3
     NS sqrt iter    1 1.00000000   0.786E+00       0.001       64.512
     NS sqrt iter    2 1.00000000   0.408E+00       0.001      110.592
     NS sqrt iter    3 1.00000000   0.137E+00       0.001      110.592
     NS sqrt iter    4 1.00000000   0.104E-01       0.001      110.592
     NS sqrt iter    5 1.00000000   0.801E-05       0.001       82.944
     Symmetrizing Results
     Final NS sqrt iter    5 1.00000000   0.102E-09

     Est. extremal eigenvalues     -0.92753     1.86214  converged:  T
     TRS4 it   1 1.00000000   0.898E+00       0.000       16.128   0.100E-07
     TRS4 it   2 1.00000000   0.678E+00       0.000       32.256   0.100E-07
     TRS4 it   3 1.00000000   0.479E+00       0.000       32.256   0.100E-07
     TRS4 it   4 1.00000000   0.282E+00       0.000       32.256   0.100E-07
     TRS4 it   5 1.00000000   0.124E+00       0.000       32.256   0.100E-07
     TRS4 it   6 1.00000000   0.307E-01       0.000       32.256   0.100E-07
     TRS4 it   7 1.00000000   0.266E-02       0.000       32.256   0.100E-07
     TRS4 it   8 1.00000000   0.281E-04       0.000       32.256   0.100E-07
     TRS4 it   9 1.00000000   0.350E-08       0.000       32.256   0.100E-07
     Final TRS4 iteration    9 1.00000000   0.350E-08
     Chemical potential (mu):      -0.04124
 
 PAO| energy:  -7.7297599712992273      penalty:   3.6003374137157032E-007
 PAO|LS| adapt:  T T F
 PAO|LS| adapt: scan_steps:    0.0000000000000000       0.20000000000000001        0.0000000000000000     
 PAO|LS| adapt: energies:   -7.6312029889912374       -7.7297599712992273        0.0000000000000000     
 PAO| ======================= Iteration:         4 =============================

     Lanczos converged:  T threshold:   0.100E-02
     Est. extremal eigenvalues:    0.299E+01   0.151E+00
     Est. condition number :    0.198E+02

 Order=           3
     NS sqrt iter    1 1.00000000   0.749E+00       0.001       64.512
     NS sqrt iter    2 1.00000000   0.374E+00       0.001      110.592
     NS sqrt iter    3 1.00000000   0.107E+00       0.001      110.592
     NS sqrt iter    4 1.00000000   0.522E-02       0.001      110.592
     NS sqrt iter    5 1.00000000   0.120E-05       0.001       82.944
     Symmetrizing Results
     Final NS sqrt iter    5 1.00000000   0.243E-11

     Est. extremal eigenvalues     -0.93287     1.79116  converged:  T
     TRS4 it   1 1.00000000   0.895E+00       0.000       16.128   0.100E-07
     TRS4 it   2 1.00000000   0.650E+00       0.000       32.256   0.100E-07
     TRS4 it   3 1.00000000   0.452E+00       0.000       32.256   0.100E-07
     TRS4 it   4 1.00000000   0.247E+00       0.000       32.256   0.100E-07
     TRS4 it   5 1.00000000   0.928E-01       0.000       32.256   0.100E-07
     TRS4 it   6 1.00000000   0.166E-01       0.000       32.256   0.100E-07
     TRS4 it   7 1.00000000   0.739E-03       0.000       32.256   0.100E-07
     TRS4 it   8 1.00000000   0.210E-05       0.000       32.256   0.100E-07
     TRS4 it   9 1.00000000   0.195E-10       0.000       32.256   0.100E-07
     Final TRS4 iteration    9 1.00000000   0.195E-10
     Chemical potential (mu):      -0.01271
 
 PAO| energy:  -7.7769889921755926      penalty:   5.7605419131135694E-006
 PAO|LS| Need extra step
 PAO|LS| adapt:  T T F
 PAO|LS| adapt: scan_steps:    0.0000000000000000       0.40000000000000002        0.0000000000000000     
 PAO|LS| adapt: energies:   -7.6312029889912374       -7.7769889921755926        0.0000000000000000     
 PAO| ======================= Iteration:         5 =============================

     Lanczos converged:  T threshold:   0.100E-02
     Est. extremal eigenvalues:    0.264E+01   0.180E+00
     Est. condition number :    0.147E+02

 Order=           3
     NS sqrt iter    1 1.00000000   0.686E+00       0.001       64.512
     NS sqrt iter    2 1.00000000   0.313E+00       0.001      110.592
     NS sqrt iter    3 1.00000000   0.668E-01       0.001      110.592
     NS sqrt iter    4 1.00000000   0.146E-02       0.001      110.592
     NS sqrt iter    5 1.00000000   0.314E-07       0.001       62.976
     Symmetrizing Results
     Final NS sqrt iter    5 1.00000000   0.251E-08

     Est. extremal eigenvalues     -0.93411     1.70447  converged:  T
     TRS4 it   1 1.00000000   0.888E+00       0.000       16.128   0.100E-07
     TRS4 it   2 1.00000000   0.610E+00       0.000       32.256   0.100E-07
     TRS4 it   3 1.00000000   0.405E+00       0.000       32.256   0.100E-07
     TRS4 it   4 1.00000000   0.191E+00       0.000       32.256   0.100E-07
     TRS4 it   5 1.00000000   0.514E-01       0.000       32.256   0.100E-07
     TRS4 it   6 1.00000000   0.464E-02       0.000       32.256   0.100E-07
     TRS4 it   7 1.00000000   0.489E-04       0.000       32.256   0.100E-07
     TRS4 it   8 1.00000000   0.703E-08       0.000       32.256   0.100E-07
     Final TRS4 iteration    8 1.00000000   0.703E-08
     Chemical potential (mu):       0.03592
 
 PAO| energy:  -7.7222171228518244      penalty:   9.2168687019201459E-005
 PAO|LS| Need extra step
 PAO|LS| adapt:  T T T
 PAO|LS| adapt: scan_steps:    0.0000000000000000       0.40000000000000002       0.80000000000000004     
 PAO|LS| adapt: energies:   -7.6312029889912374       -7.7769889921755926       -7.7222171228518244     
 PAO|LS| adapt: suggested step_size:   0.49076096861458335     
 PAO|LS| adapt: predicted energy  -7.7821518240173448     
 PAO| ======================= Iteration:         6 =============================

     Lanczos converged:  T threshold:   0.100E-02
     Est. extremal eigenvalues:    0.290E+01   0.158E+00
     Est. condition number :    0.183E+02

 Order=           3
     NS sqrt iter    1 1.00000000   0.733E+00       0.001       64.512
     NS sqrt iter    2 1.00000000   0.359E+00       0.001      110.592
     NS sqrt iter    3 1.00000000   0.961E-01       0.001      110.592
     NS sqrt iter    4 1.00000000   0.387E-02       0.001      110.592
     NS sqrt iter    5 1.00000000   0.521E-06       0.001       82.944
     Symmetrizing Results
     Final NS sqrt iter    5 1.00000000   0.471E-12

     Est. extremal eigenvalues     -0.93436     1.76630  converged:  T
     TRS4 it   1 1.00000000   0.893E+00       0.000       16.128   0.100E-07
     TRS4 it   2 1.00000000   0.639E+00       0.000       32.256   0.100E-07
     TRS4 it   3 1.00000000   0.440E+00       0.000       32.256   0.100E-07
     TRS4 it   4 1.00000000   0.233E+00       0.000       32.256   0.100E-07
     TRS4 it   5 1.00000000   0.809E-01       0.000       32.256   0.100E-07
     TRS4 it   6 1.00000000   0.123E-01       0.000       32.256   0.100E-07
     TRS4 it   7 1.00000000   0.389E-03       0.000       32.256   0.100E-07
     TRS4 it   8 1.00000000   0.551E-06       0.000       32.256   0.100E-07
     TRS4 it   9 1.00000000   0.133E-11       0.000       32.256   0.100E-07
     Final TRS4 iteration    9 1.00000000   0.133E-11
     Chemical potential (mu):       0.00116
 
 PAO| energy:  -7.7814239467568358      penalty:   1.3052793397841425E-005
 PAO|CG| warming up with steepest descent
 PAO|CG| beta:    0.0000000000000000     
 PAO| norm of gradient:  0.41702326031510101     
 PAO| energy improvement: -0.15022095776559841     
 PAO| step      6                   -7.781423947  0.261E-01  0.491E+00     0.060
 PAO|LS| adapt:  T F F
 PAO|LS| adapt: scan_steps:    0.0000000000000000        0.0000000000000000        0.0000000000000000     
 PAO|LS| adapt: energies:   -7.7814239467568358        0.0000000000000000        0.0000000000000000     
 PAO| ======================= Iteration:         7 =============================

     Lanczos converged:  T threshold:   0.100E-02
     Est. extremal eigenvalues:    0.282E+01   0.172E+00
     Est. condition number :    0.164E+02

 Order=           3
     NS sqrt iter    1 1.00000000   0.716E+00       0.001       64.512
     NS sqrt iter    2 1.00000000   0.338E+00       0.001      110.592
     NS sqrt iter    3 1.00000000   0.806E-01       0.001      110.592
     NS sqrt iter    4 1.00000000   0.238E-02       0.001      110.592
     NS sqrt iter    5 1.00000000   0.135E-06       0.001       78.464
     Symmetrizing Results
     Final NS sqrt iter    5 1.00000000   0.113E-08

     Est. extremal eigenvalues     -0.93607     1.75071  converged:  T
     TRS4 it   1 1.00000000   0.891E+00       0.000       16.128   0.100E-07
     TRS4 it   2 1.00000000   0.636E+00       0.000       32.256   0.100E-07
     TRS4 it   3 1.00000000   0.439E+00       0.000       32.256   0.100E-07
     TRS4 it   4 1.00000000   0.233E+00       0.000       32.256   0.100E-07
     TRS4 it   5 1.00000000   0.815E-01       0.000       32.256   0.100E-07
     TRS4 it   6 1.00000000   0.123E-01       0.000       32.256   0.100E-07
     TRS4 it   7 1.00000000   0.365E-03       0.000       32.256   0.100E-07
     TRS4 it   8 1.00000000   0.460E-06       0.000       32.256   0.100E-07
     TRS4 it   9 1.00000000   0.905E-12       0.000       32.256   0.100E-07
     Final TRS4 iteration    9 1.00000000   0.905E-12
     Chemical potential (mu):       0.00309
 
 PAO| energy:  -7.7755135589790889      penalty:   1.9749369102800143E-005
 PAO|LS| adapt:  T F T
 PAO|LS| adapt: scan_steps:    0.0000000000000000        0.0000000000000000       0.49076096861458335     
 PAO|LS| adapt: energies:   -7.7814239467568358        0.0000000000000000       -7.7755135589790889     
 PAO| ======================= Iteration:         8 =============================

     Lanczos converged:  T threshold:   0.100E-02
     Est. extremal eigenvalues:    0.286E+01   0.165E+00
     Est. condition number :    0.173E+02

 Order=           3
     NS sqrt iter    1 1.00000000   0.724E+00       0.001       64.512
     NS sqrt iter    2 1.00000000   0.349E+00       0.001      110.592
     NS sqrt iter    3 1.00000000   0.882E-01       0.001      110.592
     NS sqrt iter    4 1.00000000   0.305E-02       0.001      110.592
     NS sqrt iter    5 1.00000000   0.270E-06       0.001       81.536
     Symmetrizing Results
     Final NS sqrt iter    5 1.00000000   0.629E-09

     Est. extremal eigenvalues     -0.93617     1.75792  converged:  T
     TRS4 it   1 1.00000000   0.892E+00       0.000       16.128   0.100E-07
     TRS4 it   2 1.00000000   0.637E+00       0.000       32.256   0.100E-07
     TRS4 it   3 1.00000000   0.439E+00       0.000       32.256   0.100E-07
     TRS4 it   4 1.00000000   0.232E+00       0.000       32.256   0.100E-07
     TRS4 it   5 1.00000000   0.809E-01       0.000       32.256   0.100E-07
     TRS4 it   6 1.00000000   0.124E-01       0.000       32.256   0.100E-07
     TRS4 it   7 1.00000000   0.386E-03       0.000       32.256   0.100E-07
     TRS4 it   8 1.00000000   0.534E-06       0.000       32.256   0.100E-07
     TRS4 it   9 1.00000000   0.124E-11       0.000       32.256   0.100E-07
     Final TRS4 iteration    9 1.00000000   0.124E-11
     Chemical potential (mu):       0.00164
 
 PAO| energy:  -7.8010450495865395      penalty:   1.4151726831096231E-005
 PAO|LS| adapt:  T T T
 PAO|LS| adapt: scan_steps:    0.0000000000000000       0.24538048430729167       0.49076096861458335     
 PAO|LS| adapt: energies:   -7.7814239467568358       -7.8010450495865395       -7.7755135589790889     
 PAO|LS| adapt: suggested step_size:   0.22932056720235264     
 PAO|LS| adapt: predicted energy  -7.8011417568878931     
 PAO| ======================= Iteration:         9 =============================

     Lanczos converged:  T threshold:   0.100E-02
     Est. extremal eigenvalues:    0.286E+01   0.165E+00
     Est. condition number :    0.174E+02

 Order=           3
     NS sqrt iter    1 1.00000000   0.725E+00       0.001       64.512
     NS sqrt iter    2 1.00000000   0.349E+00       0.001      110.592
     NS sqrt iter    3 1.00000000   0.887E-01       0.001      110.592
     NS sqrt iter    4 1.00000000   0.310E-02       0.001      110.592
     NS sqrt iter    5 1.00000000   0.282E-06       0.001       81.536
     Symmetrizing Results
     Final NS sqrt iter    5 1.00000000   0.658E-09

     Est. extremal eigenvalues     -0.93611     1.75843  converged:  T
     TRS4 it   1 1.00000000   0.892E+00       0.000       16.128   0.100E-07
     TRS4 it   2 1.00000000   0.637E+00       0.000       32.256   0.100E-07
     TRS4 it   3 1.00000000   0.439E+00       0.000       32.256   0.100E-07
     TRS4 it   4 1.00000000   0.232E+00       0.000       32.256   0.100E-07
     TRS4 it   5 1.00000000   0.809E-01       0.000       32.256   0.100E-07
     TRS4 it   6 1.00000000   0.124E-01       0.000       32.256   0.100E-07
     TRS4 it   7 1.00000000   0.387E-03       0.000       32.256   0.100E-07
     TRS4 it   8 1.00000000   0.538E-06       0.000       32.256   0.100E-07
     TRS4 it   9 1.00000000   0.126E-11       0.000       32.256   0.100E-07
     Final TRS4 iteration    9 1.00000000   0.126E-11
     Chemical potential (mu):       0.00158
 
 PAO| energy:  -7.8011656425723288      penalty:   1.3980455501035212E-005
 PAO|CG| trace_G_new    3.6848012913790459E-002
 PAO|CG| trace_G_prev   0.17390839964383650     
 PAO|CG| trace_G_mix   -1.4397700772390775E-003
 PAO|CG| trace_D   0.17390839964383650     
 PAO|CG| trace_D_Gnew   1.4397700772390775E-003
 PAO|CG| beta:   0.22016063093814167     
 PAO| norm of gradient:  0.19195836244818942     
 PAO| energy improvement:  -1.9741695815493010E-002
 PAO| step      9                   -7.801165643  0.120E-01  0.229E+00     0.037
 PAO|LS| adapt:  T F F
 PAO|LS| adapt: scan_steps:    0.0000000000000000        0.0000000000000000        0.0000000000000000     
 PAO|LS| adapt: energies:   -7.8011656425723288        0.0000000000000000        0.0000000000000000     
 PAO| ======================= Iteration:        10 =============================

     Lanczos converged:  T threshold:   0.100E-02
     Est. extremal eigenvalues:    0.283E+01   0.171E+00
     Est. condition number :    0.166E+02

 Order=           3
     NS sqrt iter    1 1.00000000   0.717E+00       0.001       64.512
     NS sqrt iter    2 1.00000000   0.341E+00       0.001      110.592
     NS sqrt iter    3 1.00000000   0.831E-01       0.001      110.592
     NS sqrt iter    4 1.00000000   0.256E-02       0.001      110.592
     NS sqrt iter    5 1.00000000   0.157E-06       0.001       78.976
     Symmetrizing Results
     Final NS sqrt iter    5 1.00000000   0.119E-08

     Est. extremal eigenvalues     -0.93700     1.75006  converged:  T
     TRS4 it   1 1.00000000   0.889E+00       0.000       16.128   0.100E-07
     TRS4 it   2 1.00000000   0.635E+00       0.000       32.256   0.100E-07
     TRS4 it   3 1.00000000   0.437E+00       0.000       32.256   0.100E-07
     TRS4 it   4 1.00000000   0.229E+00       0.000       32.256   0.100E-07
     TRS4 it   5 1.00000000   0.785E-01       0.000       32.256   0.100E-07
     TRS4 it   6 1.00000000   0.116E-01       0.000       32.256   0.100E-07
     TRS4 it   7 1.00000000   0.335E-03       0.000       32.256   0.100E-07
     TRS4 it   8 1.00000000   0.392E-06       0.000       32.256   0.100E-07
     TRS4 it   9 1.00000000   0.658E-12       0.000       32.256   0.100E-07
     Final TRS4 iteration    9 1.00000000   0.658E-12
     Chemical potential (mu):       0.00476
 
 PAO| energy:  -7.8061945308144089      penalty:   1.4517993108025264E-005
 PAO|LS| adapt:  T T F
 PAO|LS| adapt: scan_steps:    0.0000000000000000       0.22932056720235264        0.0000000000000000     
 PAO|LS| adapt: energies:   -7.8011656425723288       -7.8061945308144089        0.0000000000000000     
 PAO| ======================= Iteration:        11 =============================

     Lanczos converged:  T threshold:   0.100E-02
     Est. extremal eigenvalues:    0.279E+01   0.176E+00
     Est. condition number :    0.158E+02

 Order=           3
     NS sqrt iter    1 1.00000000   0.710E+00       0.001       64.512
     NS sqrt iter    2 1.00000000   0.333E+00       0.001      110.592
     NS sqrt iter    3 1.00000000   0.777E-01       0.001      110.592
     NS sqrt iter    4 1.00000000   0.209E-02       0.001      110.592
     NS sqrt iter    5 1.00000000   0.855E-07       0.001       75.648
     Symmetrizing Results
     Final NS sqrt iter    5 1.00000000   0.669E-09

     Est. extremal eigenvalues     -0.93691     1.74279  converged:  T
     TRS4 it   1 1.00000000   0.886E+00       0.000       16.128   0.100E-07
     TRS4 it   2 1.00000000   0.632E+00       0.000       32.256   0.100E-07
     TRS4 it   3 1.00000000   0.434E+00       0.000       32.256   0.100E-07
     TRS4 it   4 1.00000000   0.226E+00       0.000       32.256   0.100E-07
     TRS4 it   5 1.00000000   0.761E-01       0.000       32.256   0.100E-07
     TRS4 it   6 1.00000000   0.108E-01       0.000       32.256   0.100E-07
     TRS4 it   7 1.00000000   0.288E-03       0.000       32.256   0.100E-07
     TRS4 it   8 1.00000000   0.282E-06       0.000       32.256   0.100E-07
     TRS4 it   9 1.00000000   0.334E-12       0.000       32.256   0.100E-07
     Final TRS4 iteration    9 1.00000000   0.334E-12
     Chemical potential (mu):       0.00805
 
 PAO| energy:  -7.8047704432169791      penalty:   1.5723812676052906E-005
 PAO|LS| adapt:  T T T
 PAO|LS| adapt: scan_steps:    0.0000000000000000       0.22932056720235264       0.45864113440470528     
 PAO|LS| adapt: energies:   -7.8011656425723288       -7.8061945308144089       -7.8047704432169791     
 PAO|LS| adapt: suggested step_size:   0.29337279279889111     
 PAO|LS| adapt: predicted energy  -7.8064462477743604     
 PAO| ======================= Iteration:        12 =============================

     Lanczos converged:  T threshold:   0.100E-02
     Est. extremal eigenvalues:    0.282E+01   0.172E+00
     Est. condition number :    0.164E+02

 Order=           3
     NS sqrt iter    1 1.00000000   0.715E+00       0.001       64.512
     NS sqrt iter    2 1.00000000   0.339E+00       0.001      110.592
     NS sqrt iter    3 1.00000000   0.816E-01       0.001      110.592
     NS sqrt iter    4 1.00000000   0.242E-02       0.001      110.592
     NS sqrt iter    5 1.00000000   0.133E-06       0.001       78.464
     Symmetrizing Results
     Final NS sqrt iter    5 1.00000000   0.116E-08

     Est. extremal eigenvalues     -0.93707     1.74792  converged:  T
     TRS4 it   1 1.00000000   0.888E+00       0.000       16.128   0.100E-07
     TRS4 it   2 1.00000000   0.634E+00       0.000       32.256   0.100E-07
     TRS4 it   3 1.00000000   0.436E+00       0.000       32.256   0.100E-07
     TRS4 it   4 1.00000000   0.228E+00       0.000       32.256   0.100E-07
     TRS4 it   5 1.00000000   0.778E-01       0.000       32.256   0.100E-07
     TRS4 it   6 1.00000000   0.114E-01       0.000       32.256   0.100E-07
     TRS4 it   7 1.00000000   0.321E-03       0.000       32.256   0.100E-07
     TRS4 it   8 1.00000000   0.358E-06       0.000       32.256   0.100E-07
     TRS4 it   9 1.00000000   0.545E-12       0.000       32.256   0.100E-07
     Final TRS4 iteration    9 1.00000000   0.545E-12
     Chemical potential (mu):       0.00567
 
 PAO| energy:  -7.8064301242563250      penalty:   1.4779919800550802E-005
 PAO|CG| trace_G_new    1.1795457895816777E-002
 PAO|CG| trace_G_prev    3.6848012913790459E-002
 PAO|CG| trace_G_mix   -4.5959330539225240E-004
 PAO|CG| trace_D    4.4643513997096561E-002
 PAO|CG| trace_D_Gnew   2.1031787772416420E-004
 PAO|CG| beta:   0.33258377405264494     
 PAO| norm of gradient:  0.10860689617062434     
 PAO| energy improvement:  -5.2644816839961805E-003
 PAO| step     12                   -7.806430124  0.679E-02  0.293E+00     0.037
 PAO|LS| adapt:  T F F
 PAO|LS| adapt: scan_steps:    0.0000000000000000        0.0000000000000000        0.0000000000000000     
 PAO|LS| adapt: energies:   -7.8064301242563250        0.0000000000000000        0.0000000000000000     
 PAO| ======================= Iteration:        13 =============================

     Lanczos converged:  T threshold:   0.100E-02
     Est. extremal eigenvalues:    0.278E+01   0.176E+00
     Est. condition number :    0.158E+02

 Order=           3
     NS sqrt iter    1 1.00000000   0.708E+00       0.001       64.512
     NS sqrt iter    2 1.00000000   0.332E+00       0.001      110.592
     NS sqrt iter    3 1.00000000   0.772E-01       0.001      110.592
     NS sqrt iter    4 1.00000000   0.207E-02       0.001      110.592
     NS sqrt iter    5 1.00000000   0.832E-07       0.001       75.392
     Symmetrizing Results
     Final NS sqrt iter    5 1.00000000   0.654E-09

     Est. extremal eigenvalues     -0.93755     1.73975  converged:  T
     TRS4 it   1 1.00000000   0.887E+00       0.000       16.128   0.100E-07
     TRS4 it   2 1.00000000   0.631E+00       0.000       32.256   0.100E-07
     TRS4 it   3 1.00000000   0.432E+00       0.000       32.256   0.100E-07
     TRS4 it   4 1.00000000   0.223E+00       0.000       32.256   0.100E-07
     TRS4 it   5 1.00000000   0.741E-01       0.000       32.256   0.100E-07
     TRS4 it   6 1.00000000   0.102E-01       0.000       32.256   0.100E-07
     TRS4 it   7 1.00000000   0.258E-03       0.000       32.256   0.100E-07
     TRS4 it   8 1.00000000   0.224E-06       0.000       32.256   0.100E-07
     TRS4 it   9 1.00000000   0.210E-12       0.000       32.256   0.100E-07
     Final TRS4 iteration    9 1.00000000   0.210E-12
     Chemical potential (mu):       0.01023
 
 PAO| energy:  -7.8084935880495845      penalty:   1.5083984726789347E-005
 PAO|LS| adapt:  T T F
 PAO|LS| adapt: scan_steps:    0.0000000000000000       0.29337279279889111        0.0000000000000000     
 PAO|LS| adapt: energies:   -7.8064301242563250       -7.8084935880495845        0.0000000000000000     
 PAO| ======================= Iteration:        14 =============================

     Lanczos converged:  T threshold:   0.100E-02
     Est. extremal eigenvalues:    0.275E+01   0.181E+00
     Est. condition number :    0.152E+02

 Order=           3
     NS sqrt iter    1 1.00000000   0.701E+00       0.001       64.512
     NS sqrt iter    2 1.00000000   0.325E+00       0.001      110.592
     NS sqrt iter    3 1.00000000   0.731E-01       0.001      110.592
     NS sqrt iter    4 1.00000000   0.176E-02       0.001      110.592
     NS sqrt iter    5 1.00000000   0.521E-07       0.001       71.808
     Symmetrizing Results
     Final NS sqrt iter    5 1.00000000   0.689E-09

     Est. extremal eigenvalues     -0.93753     1.73194  converged:  T
     TRS4 it   1 1.00000000   0.886E+00       0.000       16.128   0.100E-07
     TRS4 it   2 1.00000000   0.627E+00       0.000       32.256   0.100E-07
     TRS4 it   3 1.00000000   0.428E+00       0.000       32.256   0.100E-07
     TRS4 it   4 1.00000000   0.218E+00       0.000       32.256   0.100E-07
     TRS4 it   5 1.00000000   0.706E-01       0.000       32.256   0.100E-07
     TRS4 it   6 1.00000000   0.924E-02       0.000       32.256   0.100E-07
     TRS4 it   7 1.00000000   0.207E-03       0.000       32.256   0.100E-07
     TRS4 it   8 1.00000000   0.140E-06       0.000       32.256   0.100E-07
     TRS4 it   9 1.00000000   0.794E-13       0.000       32.256   0.100E-07
     Final TRS4 iteration    9 1.00000000   0.794E-13
     Chemical potential (mu):       0.01469
 
 PAO| energy:  -7.8078536957454290      penalty:   1.5865332995346502E-005
 PAO|LS| adapt:  T T T
 PAO|LS| adapt: scan_steps:    0.0000000000000000       0.29337279279889111       0.58674558559778223     
 PAO|LS| adapt: energies:   -7.8064301242563250       -7.8084935880495845       -7.8078536957454290     
 PAO|LS| adapt: suggested step_size:   0.37061699009621812     
 PAO|LS| adapt: predicted energy  -7.8085872936007386     
 PAO| ======================= Iteration:        15 =============================

     Lanczos converged:  T threshold:   0.100E-02
     Est. extremal eigenvalues:    0.277E+01   0.177E+00
     Est. condition number :    0.156E+02

 Order=           3
     NS sqrt iter    1 1.00000000   0.706E+00       0.001       64.512
     NS sqrt iter    2 1.00000000   0.330E+00       0.001      110.592
     NS sqrt iter    3 1.00000000   0.761E-01       0.001      110.592
     NS sqrt iter    4 1.00000000   0.198E-02       0.001      110.592
     NS sqrt iter    5 1.00000000   0.736E-07       0.001       74.752
     Symmetrizing Results
     Final NS sqrt iter    5 1.00000000   0.585E-09

     Est. extremal eigenvalues     -0.93760     1.73766  converged:  T
     TRS4 it   1 1.00000000   0.887E+00       0.000       16.128   0.100E-07
     TRS4 it   2 1.00000000   0.630E+00       0.000       32.256   0.100E-07
     TRS4 it   3 1.00000000   0.431E+00       0.000       32.256   0.100E-07
     TRS4 it   4 1.00000000   0.222E+00       0.000       32.256   0.100E-07
     TRS4 it   5 1.00000000   0.732E-01       0.000       32.256   0.100E-07
     TRS4 it   6 1.00000000   0.997E-02       0.000       32.256   0.100E-07
     TRS4 it   7 1.00000000   0.243E-03       0.000       32.256   0.100E-07
     TRS4 it   8 1.00000000   0.198E-06       0.000       32.256   0.100E-07
     TRS4 it   9 1.00000000   0.162E-12       0.000       32.256   0.100E-07
     Final TRS4 iteration    9 1.00000000   0.162E-12
     Chemical potential (mu):       0.01141
 
 PAO| energy:  -7.8085842277240607      penalty:   1.5240374586734918E-005
 PAO|CG| trace_G_new    2.6204291995894657E-003
 PAO|CG| trace_G_prev    1.1795457895816777E-002
 PAO|CG| trace_G_mix    6.4145928922975274E-005
 PAO|CG| trace_D    1.6593668155203158E-002
 PAO|CG| trace_D_Gnew   3.3859329663386842E-005
 PAO|CG| beta:   0.21671759530192283     
 PAO| norm of gradient:   5.1190127950508833E-002
 PAO| energy improvement:  -2.1541034677357018E-003
 PAO| step     15                   -7.808584228  0.320E-02  0.371E+00     0.037
 PAO|LS| adapt:  T F F
 PAO|LS| adapt: scan_steps:    0.0000000000000000        0.0000000000000000        0.0000000000000000     
 PAO|LS| adapt: energies:   -7.8085842277240607        0.0000000000000000        0.0000000000000000     
 PAO| ======================= Iteration:        16 =============================

     Lanczos converged:  T threshold:   0.100E-02
     Est. extremal eigenvalues:    0.276E+01   0.178E+00
     Est. condition number :    0.155E+02

 Order=           3
     NS sqrt iter    1 1.00000000   0.704E+00       0.001       64.512
     NS sqrt iter    2 1.00000000   0.329E+00       0.001      110.592
     NS sqrt iter    3 1.00000000   0.754E-01       0.001      110.592
     NS sqrt iter    4 1.00000000   0.192E-02       0.001      110.592
     NS sqrt iter    5 1.00000000   0.671E-07       0.001       74.112
     Symmetrizing Results
     Final NS sqrt iter    5 1.00000000   0.589E-09

     Est. extremal eigenvalues     -0.93762     1.73625  converged:  T
     TRS4 it   1 1.00000000   0.887E+00       0.000       16.128   0.100E-07
     TRS4 it   2 1.00000000   0.629E+00       0.000       32.256   0.100E-07
     TRS4 it   3 1.00000000   0.429E+00       0.000       32.256   0.100E-07
     TRS4 it   4 1.00000000   0.220E+00       0.000       32.256   0.100E-07
     TRS4 it   5 1.00000000   0.720E-01       0.000       32.256   0.100E-07
     TRS4 it   6 1.00000000   0.965E-02       0.000       32.256   0.100E-07
     TRS4 it   7 1.00000000   0.229E-03       0.000       32.256   0.100E-07
     TRS4 it   8 1.00000000   0.177E-06       0.000       32.256   0.100E-07
     TRS4 it   9 1.00000000   0.131E-12       0.000       32.256   0.100E-07
     Final TRS4 iteration    9 1.00000000   0.131E-12
     Chemical potential (mu):       0.01226
 
 PAO| energy:  -7.8087095397733073      penalty:   1.5021086196386211E-005
 PAO|LS| adapt:  T T F
 PAO|LS| adapt: scan_steps:    0.0000000000000000       0.37061699009621812        0.0000000000000000     
 PAO|LS| adapt: energies:   -7.8085842277240607       -7.8087095397733073        0.0000000000000000     
 PAO| ======================= Iteration:        17 =============================

     Lanczos converged:  T threshold:   0.100E-02
     Est. extremal eigenvalues:    0.275E+01   0.179E+00
     Est. condition number :    0.154E+02

 Order=           3
     NS sqrt iter    1 1.00000000   0.703E+00       0.001       64.512
     NS sqrt iter    2 1.00000000   0.327E+00       0.001      110.592
     NS sqrt iter    3 1.00000000   0.748E-01       0.001      110.592
     NS sqrt iter    4 1.00000000   0.187E-02       0.001      110.592
     NS sqrt iter    5 1.00000000   0.614E-07       0.001       73.728
     Symmetrizing Results
     Final NS sqrt iter    5 1.00000000   0.560E-09

     Est. extremal eigenvalues     -0.93753     1.73490  converged:  T
     TRS4 it   1 1.00000000   0.887E+00       0.000       16.128   0.100E-07
     TRS4 it   2 1.00000000   0.628E+00       0.000       32.256   0.100E-07
     TRS4 it   3 1.00000000   0.428E+00       0.000       32.256   0.100E-07
     TRS4 it   4 1.00000000   0.219E+00       0.000       32.256   0.100E-07
     TRS4 it   5 1.00000000   0.707E-01       0.000       32.256   0.100E-07
     TRS4 it   6 1.00000000   0.934E-02       0.000       32.256   0.100E-07
     TRS4 it   7 1.00000000   0.215E-03       0.000       32.256   0.100E-07
     TRS4 it   8 1.00000000   0.158E-06       0.000       32.256   0.100E-07
     TRS4 it   9 1.00000000   0.105E-12       0.000       32.256   0.100E-07
     Final TRS4 iteration    9 1.00000000   0.105E-12
     Chemical potential (mu):       0.01308
 
 PAO| energy:  -7.8071430311214955      penalty:   1.4927861572590250E-005
 PAO|LS| adapt:  T T T
 PAO|LS| adapt: scan_steps:    0.0000000000000000       0.37061699009621812       0.74123398019243625     
 PAO|LS| adapt: energies:   -7.8085842277240607       -7.8087095397733073       -7.8071430311214955     
 PAO|LS| adapt: suggested step_size:   0.21275985232580966     
 PAO|LS| adapt: predicted energy  -7.8088630022269481     
 PAO| ======================= Iteration:        18 =============================

     Lanczos converged:  T threshold:   0.100E-02
     Est. extremal eigenvalues:    0.277E+01   0.178E+00
     Est. condition number :    0.156E+02

 Order=           3
     NS sqrt iter    1 1.00000000   0.705E+00       0.001       64.512
     NS sqrt iter    2 1.00000000   0.329E+00       0.001      110.592
     NS sqrt iter    3 1.00000000   0.757E-01       0.001      110.592
     NS sqrt iter    4 1.00000000   0.195E-02       0.001      110.592
     NS sqrt iter    5 1.00000000   0.698E-07       0.001       74.624
     Symmetrizing Results
     Final NS sqrt iter    5 1.00000000   0.563E-09

     Est. extremal eigenvalues     -0.93763     1.73684  converged:  T
     TRS4 it   1 1.00000000   0.887E+00       0.000       16.128   0.100E-07
     TRS4 it   2 1.00000000   0.629E+00       0.000       32.256   0.100E-07
     TRS4 it   3 1.00000000   0.430E+00       0.000       32.256   0.100E-07
     TRS4 it   4 1.00000000   0.221E+00       0.000       32.256   0.100E-07
     TRS4 it   5 1.00000000   0.725E-01       0.000       32.256   0.100E-07
     TRS4 it   6 1.00000000   0.979E-02       0.000       32.256   0.100E-07
     TRS4 it   7 1.00000000   0.235E-03       0.000       32.256   0.100E-07
     TRS4 it   8 1.00000000   0.186E-06       0.000       32.256   0.100E-07
     TRS4 it   9 1.00000000   0.144E-12       0.000       32.256   0.100E-07
     Final TRS4 iteration    9 1.00000000   0.144E-12
     Chemical potential (mu):       0.01190
 
 PAO| energy:  -7.8088625462210608      penalty:   1.5099354183543126E-005
 PAO|CG| trace_G_new    7.2502668499394409E-004
 PAO|CG| trace_G_prev    2.6204291995894657E-003
 PAO|CG| trace_G_mix    1.4266188263885085E-006
 PAO|CG| trace_D    3.3851001573756553E-003
 PAO|CG| trace_D_Gnew  -1.7241423506444818E-006
 PAO|CG| beta:   0.27613799536385863     
 PAO| norm of gradient:   2.6926319559010363E-002
 PAO| energy improvement:  -2.7831849700010736E-004
 PAO| step     18                   -7.808862546  0.168E-02  0.213E+00     0.037
 PAO|LS| adapt:  T F F
 PAO|LS| adapt: scan_steps:    0.0000000000000000        0.0000000000000000        0.0000000000000000     
 PAO|LS| adapt: energies:   -7.8088625462210608        0.0000000000000000        0.0000000000000000     
 PAO| ======================= Iteration:        19 =============================

     Lanczos converged:  T threshold:   0.100E-02
     Est. extremal eigenvalues:    0.277E+01   0.178E+00
     Est. condition number :    0.156E+02

 Order=           3
     NS sqrt iter    1 1.00000000   0.705E+00       0.001       64.512
     NS sqrt iter    2 1.00000000   0.329E+00       0.001      110.592
     NS sqrt iter    3 1.00000000   0.759E-01       0.001      110.592
     NS sqrt iter    4 1.00000000   0.196E-02       0.001      110.592
     NS sqrt iter    5 1.00000000   0.706E-07       0.001       74.624
     Symmetrizing Results
     Final NS sqrt iter    5 1.00000000   0.576E-09

     Est. extremal eigenvalues     -0.93763     1.73690  converged:  T
     TRS4 it   1 1.00000000   0.887E+00       0.000       16.128   0.100E-07
     TRS4 it   2 1.00000000   0.629E+00       0.000       32.256   0.100E-07
     TRS4 it   3 1.00000000   0.430E+00       0.000       32.256   0.100E-07
     TRS4 it   4 1.00000000   0.221E+00       0.000       32.256   0.100E-07
     TRS4 it   5 1.00000000   0.724E-01       0.000       32.256   0.100E-07
     TRS4 it   6 1.00000000   0.977E-02       0.000       32.256   0.100E-07
     TRS4 it   7 1.00000000   0.235E-03       0.000       32.256   0.100E-07
     TRS4 it   8 1.00000000   0.188E-06       0.000       32.256   0.100E-07
     TRS4 it   9 1.00000000   0.149E-12       0.000       32.256   0.100E-07
     Final TRS4 iteration    9 1.00000000   0.149E-12
     Chemical potential (mu):       0.01162
 
 PAO| energy:  -7.8089802594879885      penalty:   1.4810107083628506E-005
 PAO|LS| adapt:  T T F
 PAO|LS| adapt: scan_steps:    0.0000000000000000       0.21275985232580966        0.0000000000000000     
 PAO|LS| adapt: energies:   -7.8088625462210608       -7.8089802594879885        0.0000000000000000     
 PAO| ======================= Iteration:        20 =============================

     Lanczos converged:  T threshold:   0.100E-02
     Est. extremal eigenvalues:    0.277E+01   0.178E+00
     Est. condition number :    0.156E+02

 Order=           3
     NS sqrt iter    1 1.00000000   0.705E+00       0.001       64.512
     NS sqrt iter    2 1.00000000   0.330E+00       0.001      110.592
     NS sqrt iter    3 1.00000000   0.762E-01       0.001      110.592
     NS sqrt iter    4 1.00000000   0.197E-02       0.001      110.592
     NS sqrt iter    5 1.00000000   0.714E-07       0.001       74.624
     Symmetrizing Results
     Final NS sqrt iter    5 1.00000000   0.588E-09

     Est. extremal eigenvalues     -0.93763     1.73697  converged:  T
     TRS4 it   1 1.00000000   0.887E+00       0.000       16.128   0.100E-07
     TRS4 it   2 1.00000000   0.629E+00       0.000       32.256   0.100E-07
     TRS4 it   3 1.00000000   0.430E+00       0.000       32.256   0.100E-07
     TRS4 it   4 1.00000000   0.221E+00       0.000       32.256   0.100E-07
     TRS4 it   5 1.00000000   0.722E-01       0.000       32.256   0.100E-07
     TRS4 it   6 1.00000000   0.976E-02       0.000       32.256   0.100E-07
     TRS4 it   7 1.00000000   0.236E-03       0.000       32.256   0.100E-07
     TRS4 it   8 1.00000000   0.191E-06       0.000       32.256   0.100E-07
     TRS4 it   9 1.00000000   0.154E-12       0.000       32.256   0.100E-07
     Final TRS4 iteration    9 1.00000000   0.154E-12
     Chemical potential (mu):       0.01133
 
 PAO| energy:  -7.8090242925866304      penalty:   1.4533291561952654E-005
 PAO|LS| adapt:  T T F
 PAO|LS| adapt: scan_steps:    0.0000000000000000       0.42551970465161931        0.0000000000000000     
 PAO|LS| adapt: energies:   -7.8088625462210608       -7.8090242925866304        0.0000000000000000     
 PAO| ======================= Iteration:        21 =============================

     Lanczos converged:  T threshold:   0.100E-02
     Est. extremal eigenvalues:    0.277E+01   0.177E+00
     Est. condition number :    0.156E+02

 Order=           3
     NS sqrt iter    1 1.00000000   0.705E+00       0.001       64.512
     NS sqrt iter    2 1.00000000   0.330E+00       0.001      110.592
     NS sqrt iter    3 1.00000000   0.766E-01       0.001      110.592
     NS sqrt iter    4 1.00000000   0.199E-02       0.001      110.592
     NS sqrt iter    5 1.00000000   0.732E-07       0.001       74.880
     Symmetrizing Results
     Final NS sqrt iter    5 1.00000000   0.610E-09

     Est. extremal eigenvalues     -0.93762     1.73710  converged:  T
     TRS4 it   1 1.00000000   0.887E+00       0.000       16.128   0.100E-07
     TRS4 it   2 1.00000000   0.629E+00       0.000       32.256   0.100E-07
     TRS4 it   3 1.00000000   0.429E+00       0.000       32.256   0.100E-07
     TRS4 it   4 1.00000000   0.220E+00       0.000       32.256   0.100E-07
     TRS4 it   5 1.00000000   0.720E-01       0.000       32.256   0.100E-07
     TRS4 it   6 1.00000000   0.973E-02       0.000       32.256   0.100E-07
     TRS4 it   7 1.00000000   0.237E-03       0.000       32.256   0.100E-07
     TRS4 it   8 1.00000000   0.196E-06       0.000       32.256   0.100E-07
     TRS4 it   9 1.00000000   0.164E-12       0.000       32.256   0.100E-07
     Final TRS4 iteration    9 1.00000000   0.164E-12
     Chemical potential (mu):       0.01075
 
 PAO| energy:  -7.8088889669676567      penalty:   1.4016374556506014E-005
 PAO|LS| Need extra step
 PAO|LS| adapt:  T T T
 PAO|LS| adapt: scan_steps:    0.0000000000000000       0.42551970465161931       0.85103940930323863     
 PAO|LS| adapt: energies:   -7.8088625462210608       -7.8090242925866304       -7.8088889669676567     
 PAO|LS| adapt: suggested step_size:   0.44444196739111597     
 PAO|LS| adapt: predicted energy  -7.8090245863099907     
 PAO| ======================= Iteration:        22 =============================

     Lanczos converged:  T threshold:   0.100E-02
     Est. extremal eigenvalues:    0.277E+01   0.178E+00
     Est. condition number :    0.156E+02

 Order=           3
     NS sqrt iter    1 1.00000000   0.705E+00       0.001       64.512
     NS sqrt iter    2 1.00000000   0.330E+00       0.001      110.592
     NS sqrt iter    3 1.00000000   0.762E-01       0.001      110.592
     NS sqrt iter    4 1.00000000   0.197E-02       0.001      110.592
     NS sqrt iter    5 1.00000000   0.715E-07       0.001       74.624
     Symmetrizing Results
     Final NS sqrt iter    5 1.00000000   0.590E-09

     Est. extremal eigenvalues     -0.93763     1.73697  converged:  T
     TRS4 it   1 1.00000000   0.887E+00       0.000       16.128   0.100E-07
     TRS4 it   2 1.00000000   0.629E+00       0.001       32.256   0.100E-07
     TRS4 it   3 1.00000000   0.430E+00       0.000       32.256   0.100E-07
     TRS4 it   4 1.00000000   0.221E+00       0.000       32.256   0.100E-07
     TRS4 it   5 1.00000000   0.722E-01       0.000       32.256   0.100E-07
     TRS4 it   6 1.00000000   0.976E-02       0.000       32.256   0.100E-07
     TRS4 it   7 1.00000000   0.236E-03       0.000       32.256   0.100E-07
     TRS4 it   8 1.00000000   0.191E-06       0.000       32.256   0.100E-07
     TRS4 it   9 1.00000000   0.154E-12       0.000       32.256   0.100E-07
     Final TRS4 iteration    9 1.00000000   0.154E-12
     Chemical potential (mu):       0.01131
 
 PAO| energy:  -7.8090246211127194      penalty:   1.4509268371455268E-005
 PAO|CG| trace_G_new    2.2118820537998294E-004
 PAO|CG| trace_G_prev    7.2502668499394409E-004
 PAO|CG| trace_G_mix    2.9450415154889308E-006
 PAO|CG| trace_D    9.8410019619517481E-004
 PAO|CG| trace_D_Gnew  -1.8322645888657923E-006
 PAO|CG| beta:   0.30101397421850334     
 PAO| norm of gradient:   1.4872397432155413E-002
 PAO| energy improvement:  -1.6207489165864786E-004
 PAO| step     22                   -7.809024621  0.930E-03  0.444E+00     0.048
 PAO|LS| adapt:  T F F
 PAO|LS| adapt: scan_steps:    0.0000000000000000        0.0000000000000000        0.0000000000000000     
 PAO|LS| adapt: energies:   -7.8090246211127194        0.0000000000000000        0.0000000000000000     
 PAO| ======================= Iteration:        23 =============================

     Lanczos converged:  T threshold:   0.100E-02
     Est. extremal eigenvalues:    0.277E+01   0.178E+00
     Est. condition number :    0.156E+02

 Order=           3
     NS sqrt iter    1 1.00000000   0.705E+00       0.001       64.512
     NS sqrt iter    2 1.00000000   0.330E+00       0.001      110.592
     NS sqrt iter    3 1.00000000   0.762E-01       0.001      110.592
     NS sqrt iter    4 1.00000000   0.197E-02       0.001      110.592
     NS sqrt iter    5 1.00000000   0.714E-07       0.001       74.624
     Symmetrizing Results
     Final NS sqrt iter    5 1.00000000   0.595E-09

     Est. extremal eigenvalues     -0.93763     1.73649  converged:  T
     TRS4 it   1 1.00000000   0.887E+00       0.000       16.128   0.100E-07
     TRS4 it   2 1.00000000   0.629E+00       0.000       32.256   0.100E-07
     TRS4 it   3 1.00000000   0.430E+00       0.000       32.256   0.100E-07
     TRS4 it   4 1.00000000   0.221E+00       0.000       32.256   0.100E-07
     TRS4 it   5 1.00000000   0.723E-01       0.000       32.256   0.100E-07
     TRS4 it   6 1.00000000   0.979E-02       0.000       32.256   0.100E-07
     TRS4 it   7 1.00000000   0.238E-03       0.000       32.256   0.100E-07
     TRS4 it   8 1.00000000   0.195E-06       0.000       32.256   0.100E-07
     TRS4 it   9 1.00000000   0.161E-12       0.000       32.256   0.100E-07
     Final TRS4 iteration    9 1.00000000   0.161E-12
     Chemical potential (mu):       0.01097
 
 PAO| energy:  -7.8090737991240653      penalty:   1.3828029913739038E-005
 PAO|LS| adapt:  T T F
 PAO|LS| adapt: scan_steps:    0.0000000000000000       0.44444196739111597        0.0000000000000000     
 PAO|LS| adapt: energies:   -7.8090246211127194       -7.8090737991240653        0.0000000000000000     
 PAO| ======================= Iteration:        24 =============================

     Lanczos converged:  T threshold:   0.100E-02
     Est. extremal eigenvalues:    0.277E+01   0.178E+00
     Est. condition number :    0.156E+02

 Order=           3
     NS sqrt iter    1 1.00000000   0.705E+00       0.001       64.512
     NS sqrt iter    2 1.00000000   0.330E+00       0.001      110.592
     NS sqrt iter    3 1.00000000   0.763E-01       0.001      110.592
     NS sqrt iter    4 1.00000000   0.197E-02       0.001      110.592
     NS sqrt iter    5 1.00000000   0.713E-07       0.001       74.368
     Symmetrizing Results
     Final NS sqrt iter    5 1.00000000   0.605E-09

     Est. extremal eigenvalues     -0.93762     1.73599  converged:  T
     TRS4 it   1 1.00000000   0.886E+00       0.000       16.128   0.100E-07
     TRS4 it   2 1.00000000   0.629E+00       0.000       32.256   0.100E-07
     TRS4 it   3 1.00000000   0.430E+00       0.000       32.256   0.100E-07
     TRS4 it   4 1.00000000   0.221E+00       0.000       32.256   0.100E-07
     TRS4 it   5 1.00000000   0.724E-01       0.000       32.256   0.100E-07
     TRS4 it   6 1.00000000   0.983E-02       0.000       32.256   0.100E-07
     TRS4 it   7 1.00000000   0.241E-03       0.000       32.256   0.100E-07
     TRS4 it   8 1.00000000   0.200E-06       0.000       32.256   0.100E-07
     TRS4 it   9 1.00000000   0.170E-12       0.000       32.256   0.100E-07
     Final TRS4 iteration    9 1.00000000   0.170E-12
     Chemical potential (mu):       0.01064
 
 PAO| energy:  -7.8090236117776799      penalty:   1.3175060927943749E-005
 PAO|LS| adapt:  T T T
 PAO|LS| adapt: scan_steps:    0.0000000000000000       0.44444196739111597       0.88888393478223193     
 PAO|LS| adapt: energies:   -7.8090246211127194       -7.8090737991240653       -7.8090236117776799     
 PAO|LS| adapt: suggested step_size:   0.44218468748504081     
 PAO|LS| adapt: predicted energy  -7.8090738004056455     
 PAO| ======================= Iteration:        25 =============================

     Lanczos converged:  T threshold:   0.100E-02
     Est. extremal eigenvalues:    0.277E+01   0.178E+00
     Est. condition number :    0.156E+02

 Order=           3
     NS sqrt iter    1 1.00000000   0.705E+00       0.001       64.512
     NS sqrt iter    2 1.00000000   0.330E+00       0.001      110.592
     NS sqrt iter    3 1.00000000   0.762E-01       0.001      110.592
     NS sqrt iter    4 1.00000000   0.197E-02       0.001      110.592
     NS sqrt iter    5 1.00000000   0.714E-07       0.001       74.624
     Symmetrizing Results
     Final NS sqrt iter    5 1.00000000   0.595E-09

     Est. extremal eigenvalues     -0.93763     1.73649  converged:  T
     TRS4 it   1 1.00000000   0.887E+00       0.000       16.128   0.100E-07
     TRS4 it   2 1.00000000   0.629E+00       0.000       32.256   0.100E-07
     TRS4 it   3 1.00000000   0.430E+00       0.000       32.256   0.100E-07
     TRS4 it   4 1.00000000   0.221E+00       0.000       32.256   0.100E-07
     TRS4 it   5 1.00000000   0.723E-01       0.000       32.256   0.100E-07
     TRS4 it   6 1.00000000   0.979E-02       0.000       32.256   0.100E-07
     TRS4 it   7 1.00000000   0.238E-03       0.000       32.256   0.100E-07
     TRS4 it   8 1.00000000   0.195E-06       0.000       32.256   0.100E-07
     TRS4 it   9 1.00000000   0.161E-12       0.000       32.256   0.100E-07
     Final TRS4 iteration    9 1.00000000   0.161E-12
     Chemical potential (mu):       0.01097
 
 PAO| energy:  -7.8090737996178250      penalty:   1.3831417919026288E-005
 PAO|CG| trace_G_new    7.8783412284720681E-005
 PAO|CG| trace_G_prev    2.2118820537998294E-004
 PAO|CG| trace_G_mix    6.8330113385216900E-007
 PAO|CG| trace_D    3.1146002066182935E-004
 PAO|CG| trace_D_Gnew  -3.4904883928873256E-007
 PAO|CG| beta:   0.35309347085980020     
 PAO| norm of gradient:   8.8760020439790730E-003
 PAO| energy improvement:  -4.9178505105551551E-005
 PAO| step     25                   -7.809073800  0.555E-03  0.442E+00     0.037
 PAO|LS| adapt:  T F F
 PAO|LS| adapt: scan_steps:    0.0000000000000000        0.0000000000000000        0.0000000000000000     
 PAO|LS| adapt: energies:   -7.8090737996178250        0.0000000000000000        0.0000000000000000     
 PAO| ======================= Iteration:        26 =============================

     Lanczos converged:  T threshold:   0.100E-02
     Est. extremal eigenvalues:    0.277E+01   0.178E+00
     Est. condition number :    0.156E+02

 Order=           3
     NS sqrt iter    1 1.00000000   0.705E+00       0.001       64.512
     NS sqrt iter    2 1.00000000   0.330E+00       0.001      110.592
     NS sqrt iter    3 1.00000000   0.761E-01       0.001      110.592
     NS sqrt iter    4 1.00000000   0.196E-02       0.001      110.592
     NS sqrt iter    5 1.00000000   0.704E-07       0.001       74.368
     Symmetrizing Results
     Final NS sqrt iter    5 1.00000000   0.594E-09

     Est. extremal eigenvalues     -0.93763     1.73576  converged:  T
     TRS4 it   1 1.00000000   0.886E+00       0.000       16.128   0.100E-07
     TRS4 it   2 1.00000000   0.629E+00       0.000       32.256   0.100E-07
     TRS4 it   3 1.00000000   0.429E+00       0.000       32.256   0.100E-07
     TRS4 it   4 1.00000000   0.220E+00       0.000       32.256   0.100E-07
     TRS4 it   5 1.00000000   0.722E-01       0.000       32.256   0.100E-07
     TRS4 it   6 1.00000000   0.977E-02       0.000       32.256   0.100E-07
     TRS4 it   7 1.00000000   0.237E-03       0.000       32.256   0.100E-07
     TRS4 it   8 1.00000000   0.193E-06       0.000       32.256   0.100E-07
     TRS4 it   9 1.00000000   0.157E-12       0.000       32.256   0.100E-07
     Final TRS4 iteration    9 1.00000000   0.157E-12
     Chemical potential (mu):       0.01108
 
 PAO| energy:  -7.8090775737629619      penalty:   1.3110210946399642E-005
 PAO|LS| adapt:  T T F
 PAO|LS| adapt: scan_steps:    0.0000000000000000       0.44218468748504081        0.0000000000000000     
 PAO|LS| adapt: energies:   -7.8090737996178250       -7.8090775737629619        0.0000000000000000     
 PAO| ======================= Iteration:        27 =============================

     Lanczos converged:  T threshold:   0.100E-02
     Est. extremal eigenvalues:    0.277E+01   0.178E+00
     Est. condition number :    0.156E+02

 Order=           3
     NS sqrt iter    1 1.00000000   0.705E+00       0.001       64.512
     NS sqrt iter    2 1.00000000   0.329E+00       0.001      110.592
     NS sqrt iter    3 1.00000000   0.760E-01       0.001      110.592
     NS sqrt iter    4 1.00000000   0.195E-02       0.001      110.592
     NS sqrt iter    5 1.00000000   0.694E-07       0.001       74.240
     Symmetrizing Results
     Final NS sqrt iter    5 1.00000000   0.601E-09

     Est. extremal eigenvalues     -0.93763     1.73502  converged:  T
     TRS4 it   1 1.00000000   0.886E+00       0.000       16.128   0.100E-07
     TRS4 it   2 1.00000000   0.628E+00       0.000       32.256   0.100E-07
     TRS4 it   3 1.00000000   0.429E+00       0.000       32.256   0.100E-07
     TRS4 it   4 1.00000000   0.220E+00       0.000       32.256   0.100E-07
     TRS4 it   5 1.00000000   0.721E-01       0.000       32.256   0.100E-07
     TRS4 it   6 1.00000000   0.974E-02       0.000       32.256   0.100E-07
     TRS4 it   7 1.00000000   0.235E-03       0.000       32.256   0.100E-07
     TRS4 it   8 1.00000000   0.190E-06       0.000       32.256   0.100E-07
     TRS4 it   9 1.00000000   0.153E-12       0.000       32.256   0.100E-07
     Final TRS4 iteration    9 1.00000000   0.153E-12
     Chemical potential (mu):       0.01118
 
 PAO| energy:  -7.8090190106596999      penalty:   1.2412545726816231E-005
 PAO|LS| adapt:  T T T
 PAO|LS| adapt: scan_steps:    0.0000000000000000       0.44218468748504081       0.88436937497008161     
 PAO|LS| adapt: energies:   -7.8090737996178250       -7.8090775737629619       -7.8090190106596999     
 PAO|LS| adapt: suggested step_size:   0.24786396473530858     
 PAO|LS| adapt: predicted energy  -7.8090835930973279     
 PAO| ======================= Iteration:        28 =============================

     Lanczos converged:  T threshold:   0.100E-02
     Est. extremal eigenvalues:    0.277E+01   0.178E+00
     Est. condition number :    0.156E+02

 Order=           3
     NS sqrt iter    1 1.00000000   0.705E+00       0.001       64.512
     NS sqrt iter    2 1.00000000   0.330E+00       0.001      110.592
     NS sqrt iter    3 1.00000000   0.762E-01       0.001      110.592
     NS sqrt iter    4 1.00000000   0.196E-02       0.001      110.592
     NS sqrt iter    5 1.00000000   0.708E-07       0.001       74.496
     Symmetrizing Results
     Final NS sqrt iter    5 1.00000000   0.593E-09

     Est. extremal eigenvalues     -0.93763     1.73608  converged:  T
     TRS4 it   1 1.00000000   0.886E+00       0.000       16.128   0.100E-07
     TRS4 it   2 1.00000000   0.629E+00       0.000       32.256   0.100E-07
     TRS4 it   3 1.00000000   0.429E+00       0.000       32.256   0.100E-07
     TRS4 it   4 1.00000000   0.221E+00       0.000       32.256   0.100E-07
     TRS4 it   5 1.00000000   0.722E-01       0.000       32.256   0.100E-07
     TRS4 it   6 1.00000000   0.978E-02       0.000       32.256   0.100E-07
     TRS4 it   7 1.00000000   0.237E-03       0.000       32.256   0.100E-07
     TRS4 it   8 1.00000000   0.194E-06       0.000       32.256   0.100E-07
     TRS4 it   9 1.00000000   0.160E-12       0.000       32.256   0.100E-07
     Final TRS4 iteration    9 1.00000000   0.160E-12
     Chemical potential (mu):       0.01103
 
 PAO| energy:  -7.8090835840464834      penalty:   1.3424231275675415E-005
 PAO|CG| trace_G_new    3.0946509861886026E-005
 PAO|CG| trace_G_prev    7.8783412284720681E-005
 PAO|CG| trace_G_mix    4.6770945326279713E-008
 PAO|CG| trace_D    1.1786118383262588E-004
 PAO|CG| trace_D_Gnew  -2.4276118729279171E-008
 PAO|CG| beta:   0.39221122848664003     
 PAO| norm of gradient:   5.5629587327146362E-003
 PAO| energy improvement:  -9.7844286583992357E-006
 PAO| step     28                   -7.809083584  0.348E-03  0.248E+00     0.037
 PAO|LS| adapt:  T F F
 PAO|LS| adapt: scan_steps:    0.0000000000000000        0.0000000000000000        0.0000000000000000     
 PAO|LS| adapt: energies:   -7.8090835840464834        0.0000000000000000        0.0000000000000000     
 PAO| ======================= Iteration:        29 =============================

     Lanczos converged:  T threshold:   0.100E-02
     Est. extremal eigenvalues:    0.277E+01   0.178E+00
     Est. condition number :    0.156E+02

 Order=           3
     NS sqrt iter    1 1.00000000   0.705E+00       0.001       64.512
     NS sqrt iter    2 1.00000000   0.330E+00       0.001      110.592
     NS sqrt iter    3 1.00000000   0.761E-01       0.001      110.592
     NS sqrt iter    4 1.00000000   0.196E-02       0.001      110.592
     NS sqrt iter    5 1.00000000   0.704E-07       0.001       74.368
     Symmetrizing Results
     Final NS sqrt iter    5 1.00000000   0.593E-09

     Est. extremal eigenvalues     -0.93763     1.73581  converged:  T
     TRS4 it   1 1.00000000   0.886E+00       0.000       16.128   0.100E-07
     TRS4 it   2 1.00000000   0.629E+00       0.000       32.256   0.100E-07
     TRS4 it   3 1.00000000   0.429E+00       0.000       32.256   0.100E-07
     TRS4 it   4 1.00000000   0.220E+00       0.000       32.256   0.100E-07
     TRS4 it   5 1.00000000   0.721E-01       0.000       32.256   0.100E-07
     TRS4 it   6 1.00000000   0.975E-02       0.000       32.256   0.100E-07
     TRS4 it   7 1.00000000   0.236E-03       0.000       32.256   0.100E-07
     TRS4 it   8 1.00000000   0.191E-06       0.000       32.256   0.100E-07
     TRS4 it   9 1.00000000   0.156E-12       0.000       32.256   0.100E-07
     Final TRS4 iteration    9 1.00000000   0.156E-12
     Chemical potential (mu):       0.01115
 
 PAO| energy:  -7.8090903354499366      penalty:   1.2998571713420058E-005
 PAO|LS| adapt:  T T F
 PAO|LS| adapt: scan_steps:    0.0000000000000000       0.24786396473530858        0.0000000000000000     
 PAO|LS| adapt: energies:   -7.8090835840464834       -7.8090903354499366        0.0000000000000000     
 PAO| ======================= Iteration:        30 =============================

     Lanczos converged:  T threshold:   0.100E-02
     Est. extremal eigenvalues:    0.277E+01   0.178E+00
     Est. condition number :    0.156E+02

 Order=           3
     NS sqrt iter    1 1.00000000   0.705E+00       0.001       64.512
     NS sqrt iter    2 1.00000000   0.329E+00       0.001      110.592
     NS sqrt iter    3 1.00000000   0.760E-01       0.001      110.592
     NS sqrt iter    4 1.00000000   0.196E-02       0.001      110.592
     NS sqrt iter    5 1.00000000   0.700E-07       0.001       74.368
     Symmetrizing Results
     Final NS sqrt iter    5 1.00000000   0.590E-09

     Est. extremal eigenvalues     -0.93763     1.73553  converged:  T
     TRS4 it   1 1.00000000   0.886E+00       0.000       16.128   0.100E-07
     TRS4 it   2 1.00000000   0.629E+00       0.000       32.256   0.100E-07
     TRS4 it   3 1.00000000   0.429E+00       0.000       32.256   0.100E-07
     TRS4 it   4 1.00000000   0.220E+00       0.000       32.256   0.100E-07
     TRS4 it   5 1.00000000   0.720E-01       0.000       32.256   0.100E-07
     TRS4 it   6 1.00000000   0.973E-02       0.000       32.256   0.100E-07
     TRS4 it   7 1.00000000   0.235E-03       0.000       32.256   0.100E-07
     TRS4 it   8 1.00000000   0.189E-06       0.000       32.256   0.100E-07
     TRS4 it   9 1.00000000   0.150E-12       0.000       32.256   0.100E-07
     Final TRS4 iteration    9 1.00000000   0.150E-12
     Chemical potential (mu):       0.01127
 
 PAO| energy:  -7.8090952441287618      penalty:   1.2580537543989279E-005
 PAO|LS| adapt:  T T F
 PAO|LS| adapt: scan_steps:    0.0000000000000000       0.49572792947061717        0.0000000000000000     
 PAO|LS| adapt: energies:   -7.8090835840464834       -7.8090952441287618        0.0000000000000000     
 PAO| ======================= Iteration:        31 =============================

     Lanczos converged:  T threshold:   0.100E-02
     Est. extremal eigenvalues:    0.277E+01   0.178E+00
     Est. condition number :    0.155E+02

 Order=           3
     NS sqrt iter    1 1.00000000   0.704E+00       0.001       64.512
     NS sqrt iter    2 1.00000000   0.329E+00       0.001      110.592
     NS sqrt iter    3 1.00000000   0.759E-01       0.001      110.592
     NS sqrt iter    4 1.00000000   0.195E-02       0.001      110.592
     NS sqrt iter    5 1.00000000   0.691E-07       0.001       74.240
     Symmetrizing Results
     Final NS sqrt iter    5 1.00000000   0.597E-09

     Est. extremal eigenvalues     -0.93763     1.73499  converged:  T
     TRS4 it   1 1.00000000   0.886E+00       0.000       16.128   0.100E-07
     TRS4 it   2 1.00000000   0.628E+00       0.000       32.256   0.100E-07
     TRS4 it   3 1.00000000   0.429E+00       0.000       32.256   0.100E-07
     TRS4 it   4 1.00000000   0.220E+00       0.000       32.256   0.100E-07
     TRS4 it   5 1.00000000   0.718E-01       0.000       32.256   0.100E-07
     TRS4 it   6 1.00000000   0.967E-02       0.000       32.256   0.100E-07
     TRS4 it   7 1.00000000   0.232E-03       0.000       32.256   0.100E-07
     TRS4 it   8 1.00000000   0.184E-06       0.000       32.256   0.100E-07
     TRS4 it   9 1.00000000   0.144E-12       0.000       32.256   0.100E-07
     Final TRS4 iteration    9 1.00000000   0.144E-12
     Chemical potential (mu):       0.01152
 
 PAO| energy:  -7.8090995340659184      penalty:   1.1767196461606941E-005
 PAO|LS| Need extra step
 PAO|LS| adapt:  T T F
 PAO|LS| adapt: scan_steps:    0.0000000000000000       0.99145585894123434        0.0000000000000000     
 PAO|LS| adapt: energies:   -7.8090835840464834       -7.8090995340659184        0.0000000000000000     
 PAO| ======================= Iteration:        32 =============================

     Lanczos converged:  T threshold:   0.100E-02
     Est. extremal eigenvalues:    0.276E+01   0.178E+00
     Est. condition number :    0.155E+02

 Order=           3
[...]
     TRS4 it   1 1.00000000   0.880E+00       0.000       16.128   0.100E-07
     TRS4 it   2 1.00000000   0.633E+00       0.000       32.256   0.100E-07
     TRS4 it   3 1.00000000   0.455E+00       0.000       32.256   0.100E-07
     TRS4 it   4 1.00000000   0.277E+00       0.000       32.256   0.100E-07
     TRS4 it   5 1.00000000   0.137E+00       0.000       32.256   0.100E-07
     TRS4 it   6 1.00000000   0.430E-01       0.000       32.256   0.100E-07
     TRS4 it   7 1.00000000   0.591E-02       0.000       32.256   0.100E-07
     TRS4 it   8 1.00000000   0.148E-03       0.000       32.256   0.100E-07
     TRS4 it   9 1.00000000   0.980E-07       0.000       32.256   0.100E-07
     TRS4 it  10 1.00000000   0.435E-13       0.000       32.256   0.100E-07
     Final TRS4 iteration   10 1.00000000   0.435E-13
     Chemical potential (mu):      -0.07603
 
 PAO| energy:  -7.8081571177844218      penalty:   2.4639031634423935E-008
 PAO|CG| warming up with steepest descent
 PAO|CG| beta:    0.0000000000000000     
 PAO| norm of gradient:   1.2378874711799001E-004
 PAO| energy improvement:  -5.1190633953979159E-009
 PAO| step    419                   -7.808157118  0.774E-05  0.254E+00     0.048
 PAO| converged after          419  steps :-)
 PAO| Recalculating energy after mixing.

     Lanczos converged:  T threshold:   0.100E-02
     Est. extremal eigenvalues:    0.249E+01   0.191E+00
     Est. condition number :    0.131E+02

 Order=           3
     NS sqrt iter    1 1.00000000   0.632E+00       0.001       64.512
     NS sqrt iter    2 1.00000000   0.275E+00       0.001      110.592
     NS sqrt iter    3 1.00000000   0.485E-01       0.001      110.592
     NS sqrt iter    4 1.00000000   0.756E-03       0.001      110.592
     NS sqrt iter    5 1.00000000   0.567E-08       0.001       38.272
     Symmetrizing Results
     Final NS sqrt iter    5 1.00000000   0.330E-09

     Est. extremal eigenvalues     -0.93732     1.63030  converged:  T
     TRS4 it   1 1.00000000   0.880E+00       0.000       16.128   0.100E-07
     TRS4 it   2 1.00000000   0.633E+00       0.000       32.256   0.100E-07
     TRS4 it   3 1.00000000   0.455E+00       0.000       32.256   0.100E-07
     TRS4 it   4 1.00000000   0.277E+00       0.000       32.256   0.100E-07
     TRS4 it   5 1.00000000   0.137E+00       0.000       32.256   0.100E-07
     TRS4 it   6 1.00000000   0.430E-01       0.000       32.256   0.100E-07
     TRS4 it   7 1.00000000   0.591E-02       0.000       32.256   0.100E-07
     TRS4 it   8 1.00000000   0.148E-03       0.000       32.256   0.100E-07
     TRS4 it   9 1.00000000   0.980E-07       0.000       32.256   0.100E-07
     TRS4 it  10 1.00000000   0.427E-13       0.000       32.256   0.100E-07
     Final TRS4 iteration   10 1.00000000   0.427E-13
     Chemical potential (mu):      -0.07603
 
 PAO| energy:  -7.8081571165046455      penalty:   2.4892812705168653E-008
 PAO| Writing restart file.
     Est. extremal eigenvalues     -0.93732     1.63030  converged:  T
     TRS4 it   1 1.00000000   0.880E+00       0.000       16.128   0.100E-07
     TRS4 it   2 1.00000000   0.633E+00       0.000       32.256   0.100E-07
     TRS4 it   3 1.00000000   0.455E+00       0.000       32.256   0.100E-07
     TRS4 it   4 1.00000000   0.277E+00       0.000       32.256   0.100E-07
     TRS4 it   5 1.00000000   0.137E+00       0.000       32.256   0.100E-07
     TRS4 it   6 1.00000000   0.430E-01       0.000       32.256   0.100E-07
     TRS4 it   7 1.00000000   0.591E-02       0.000       32.256   0.100E-07
     TRS4 it   8 1.00000000   0.148E-03       0.000       32.256   0.100E-07
     TRS4 it   9 1.00000000   0.980E-07       0.000       32.256   0.100E-07
     TRS4 it  10 1.00000000   0.427E-13       0.000       32.256   0.100E-07
     Final TRS4 iteration   10 1.00000000   0.427E-13
     Chemical potential (mu):      -0.07603

 SCF     1       -34.449857778       -34.449857778    0.960368

*********************************************************
 Using MIXING_FRACTION=0.450 to mix KS matrix:  iscf=  2
 KS_nw=0.450*KS + 0.550*KS_old
*********************************************************
     Est. extremal eigenvalues     -0.93732     1.63031  converged:  T
     TRS4 it   1 1.00000000   0.880E+00       0.000       16.128   0.100E-07
     TRS4 it   2 1.00000000   0.633E+00       0.000       32.256   0.100E-07
     TRS4 it   3 1.00000000   0.455E+00       0.000       32.256   0.100E-07
     TRS4 it   4 1.00000000   0.277E+00       0.000       32.256   0.100E-07
     TRS4 it   5 1.00000000   0.137E+00       0.000       32.256   0.100E-07
     TRS4 it   6 1.00000000   0.430E-01       0.000       32.256   0.100E-07
     TRS4 it   7 1.00000000   0.591E-02       0.000       32.256   0.100E-07
     TRS4 it   8 1.00000000   0.148E-03       0.000       32.256   0.100E-07
     TRS4 it   9 1.00000000   0.981E-07       0.000       32.256   0.100E-07
     TRS4 it  10 1.00000000   0.430E-13       0.000       32.256   0.100E-07
     Final TRS4 iteration   10 1.00000000   0.430E-13
     Chemical potential (mu):      -0.07603

 SCF     2       -34.449857778        -0.000000000    0.965227


 SCF run converged in     2 steps.

 PAO| Storing density matrix for ASPC guess in slot:           1

 ENERGY| Total FORCE_EVAL ( QS ) energy [a.u.]:              -34.449857778219638

 -------------------------------------------------------------------------------
 -                                                                             -
 -                                DBCSR STATISTICS                             -
 -                                                                             -
 -------------------------------------------------------------------------------
 COUNTER                                    TOTAL       BLAS       SMM       ACC
 flops     5 x     5 x     4                20000       0.0%    100.0%      0.0%
 flops    13 x     5 x     4                20800       0.0%    100.0%      0.0%
 flops     5 x    13 x     4                20800       0.0%    100.0%      0.0%
 flops    13 x    13 x     4                40560       0.0%    100.0%      0.0%
 flops     4 x     4 x     5              3290880       0.0%    100.0%      0.0%
 flops     5 x     4 x     5              4028800       0.0%    100.0%      0.0%
 flops     4 x     4 x    13              4278144       0.0%    100.0%      0.0%
 flops    13 x     4 x     5              5237440       0.0%    100.0%      0.0%
 flops     5 x     4 x    13              5237440       0.0%    100.0%      0.0%
 flops     5 x     4 x     4              6427040       0.0%    100.0%      0.0%
 flops    13 x     4 x    13              6808672       0.0%    100.0%      0.0%
 flops    13 x     4 x     4              8508032       0.0%    100.0%      0.0%
 flops     4 x     4 x     4            425902208       0.0%    100.0%      0.0%
 flops inhomo. stacks                           0       0.0%      0.0%      0.0%
 flops total                       469.820816E+06       0.0%    100.0%      0.0%
 flops max/rank                    469.820816E+06       0.0%    100.0%      0.0%
 matmuls inhomo. stacks                         0       0.0%      0.0%      0.0%
 matmuls total                            3464368       0.0%    100.0%      0.0%
 number of processed stacks                 27595       0.0%    100.0%      0.0%
 average stack size                                     0.0     125.5       0.0
 marketing flops                   763.888320E+06
 -------------------------------------------------------------------------------
 # multiplications                          23073
 max memory usage/rank             505.200640E+06
 # max total images/rank                        1
 # max 3D layers                                1
 # MPI messages exchanged                       0
 -------------------------------------------------------------------------------

 -------------------------------------------------------------------------------
 -                                                                             -
 -                                DBM STATISTICS                               -
 -                                                                             -
 -------------------------------------------------------------------------------
    M  x    N  x    K                                          COUNT     PERCENT
 -------------------------------------------------------------------------------

 -------------------------------------------------------------------------------
 -                                                                             -
 -                                GRID STATISTICS                              -
 -                                                                             -
 -------------------------------------------------------------------------------
 LP    KERNEL             BACKEND                              COUNT     PERCENT
 2     collocate ortho    REF                                  38020      30.76%
 2     integrate ortho    REF                                  38020      30.76%
 3     collocate ortho    REF                                  19510      15.79%
 3     integrate ortho    REF                                  19510      15.79%
 4     collocate ortho    REF                                   4260       3.45%
 4     integrate ortho    REF                                   4260       3.45%
 0     collocate general  REF                                      6       0.00%
 -------------------------------------------------------------------------------

 MEMORY| Estimated peak process memory [MiB]                                 482

 -------------------------------------------------------------------------------
 -                                                                             -
 -                           R E F E R E N C E S                               -
 -                                                                             -
 -------------------------------------------------------------------------------
 
 CP2K version 2023.1 (Development Version), the CP2K developers group (2023).
 CP2K is freely available from https://www.cp2k.org/ .

 Kuehne,Thomas D.; Iannuzzi,Marcella; Del Ben,Mauro;
 Rybkin,Vladimir V.; Seewald,Patrick; Stein,Frederick; Laino,Teodoro;
 Khaliullin,Rustam Z.; Schuett,Ole; Schiffmann,Florian; Golze,Dorothea;
 Wilhelm,Jan; Chulkov,Sergey; Bani-Hashemian,Mohammad Hossein;
 Weber,Valery; Borstnik,Urban; Taillefumier,Mathieu;
 Jakobovits,Alice Shoshana; Lazzaro,Alfio; Pabst,Hans; Mueller,Tiziano;
 Schade,Robert; Guidon,Manuel; Andermatt,Samuel; Holmberg,Nico;
 Schenter,Gregory K.; Hehn,Anna; Bussy,Augustin; Belleflamme,Fabian;
 Tabacchi,Gloria; Gloess,Andreas; Lass,Michael; Bethune,Iain;
 Mundy,Christopher J.; Plessl,Christian; Watkins,Matt;
 VandeVondele,Joost; Krack,Matthias; Hutter,Juerg. 
 The Journal of Chemical Physics, 152 (19), (2020). 
 CP2K: An electronic structure and molecular dynamics software package -
 Quickstep: Efficient and accurate electronic structure calculations.
 https://doi.org/10.1063/5.0007045

 Schuett, O; VandeVondele, J. 
 Journal of Chemical Theory and Computation, 14, (2018). 
 Machine Learning Adaptive Basis Sets for Efficient Large Scale
 Density Functional Theory Simulation.
 https://doi.org/10.1021/acs.jctc.8b00378

 Schuett, Ole; Messmer, Peter; Hutter, Juerg; VandeVondele, Joost. 
 Electronic Structure Calculations on Graphics Processing Units, John
 Wiley & Sons, Ltd, 173-190 (2016). 
 GPU-Accelerated Sparse Matrix-Matrix Multiplication for
 Linear Scaling Density Functional Theory.
 https://doi.org/10.1002/9781118670712.ch8

 Heinecke, A; Henry, G; Hutchinson, M; Pabst, H. 
 Proceedings of Intl. Supercomputing Conference, 981-991 (2016). 
 LIBXSMM: Accelerating Small Matrix Multiplications
 by Runtime Code Generation.
 https://doi.org/10.1109/SC.2016.83

 Borstnik, U; VandeVondele, J; Weber, V; Hutter, J. 
 PARALLEL COMPUTING, 40 (5-6), 47-58 (2014). 
 Sparse matrix multiplication: The distributed block-compressed sparse
 row library.
 https://doi.org/10.1016/j.parco.2014.03.012

 Hutter, J; Iannuzzi, M; Schiffmann, F; VandeVondele, J. 
 WIREs Comput Mol Sci., 4 (1), 15-25 (2014). 
 CP2K: atomistic simulations of condensed matter systems.
 https://doi.org/10.1002/wcms.1159

 VandeVondele, J; Borstnik, U; Hutter, J. 
 JOURNAL OF CHEMICAL THEORY AND COMPUTATION, 8 (10), 3565-3573 (2012). 
 Linear Scaling Self-Consistent Field Calculations with Millions of Atoms
 in the Condensed Phase.
 https://doi.org/10.1021/ct200897x

 VandeVondele, J; Hutter, J. 
 JOURNAL OF CHEMICAL PHYSICS, 127 (11), 114105 (2007). 
 Gaussian basis sets for accurate calculations on molecular systems in
 gas and condensed phases.
 https://doi.org/10.1063/1.2770708

 Krack, M. 
 THEORETICAL CHEMISTRY ACCOUNTS, 114 (1-3), 145-152 (2005). 
 Pseudopotentials for H to Kr optimized for gradient-corrected
 exchange-correlation functionals.
 https://doi.org/10.1007/s00214-005-0655-y

 VandeVondele, J; Krack, M; Mohamed, F; Parrinello, M; Chassaing, T;
 Hutter, J. COMPUTER PHYSICS COMMUNICATIONS, 167 (2), 103-128 (2005). 
 QUICKSTEP: Fast and accurate density functional calculations using a
 mixed Gaussian and plane waves approach.
 https://doi.org/10.1016/j.cpc.2004.12.014

 Frigo, M; Johnson, SG. 
 PROCEEDINGS OF THE IEEE, 93 (2), 216-231 (2005). 
 The design and implementation of FFTW3.
 https://doi.org/10.1109/JPROC.2004.840301

 Niklasson, AMN; Tymczak, CJ; Challacombe, M. 
 JOURNAL OF CHEMICAL PHYSICS, 118 (19), 8611-8620 (2003). 
 Trace resetting density matrix purification in O(N)
 self-consistent-field theory.
 https://doi.org/10.1063/1.1559913

 Hartwigsen, C; Goedecker, S; Hutter, J. 
 PHYSICAL REVIEW B, 58 (7), 3641-3662 (1998). 
 Relativistic separable dual-space Gaussian pseudopotentials from H to Rn.
 https://doi.org/10.1103/PhysRevB.58.3641

 Lippert, G; Hutter, J; Parrinello, M. 
 MOLECULAR PHYSICS, 92 (3), 477-487 (1997). 
 A hybrid Gaussian and plane wave density functional scheme.
 https://doi.org/10.1080/002689797170220

 Perdew, JP; Burke, K; Ernzerhof, M. 
 PHYSICAL REVIEW LETTERS, 77 (18), 3865-3868 (1996). 
 Generalized gradient approximation made simple.
 https://doi.org/10.1103/PhysRevLett.77.3865

 Goedecker, S; Teter, M; Hutter, J. 
 PHYSICAL REVIEW B, 54 (3), 1703-1710 (1996). 
 Separable dual-space Gaussian pseudopotentials.
 https://doi.org/10.1103/PhysRevB.54.1703


 -------------------------------------------------------------------------------
 -                                                                             -
 -                                T I M I N G                                  -
 -                                                                             -
 -------------------------------------------------------------------------------
 SUBROUTINE                       CALLS  ASD         SELF TIME        TOTAL TIME
                                MAXIMUM       AVERAGE  MAXIMUM  AVERAGE  MAXIMUM
 CP2K                                 1  1.0    0.008    0.008   27.432   27.432
 qs_energies                          1  2.0    0.000    0.000   27.056   27.056
 ls_scf                               1  3.0    0.000    0.000   26.927   26.927
 ls_scf_main                          4  4.0    0.001    0.001   17.661   17.661
 ls_scf_dm_to_ks                      9  5.0    0.000    0.000   17.581   17.581
 qs_ks_update_qs_env                 10  6.0    0.000    0.000   14.655   14.655
 rebuild_ks_matrix                   10  7.0    0.000    0.000   14.654   14.654
 qs_ks_build_kohn_sham_matrix        10  8.0    0.002    0.002   14.654   14.654
 qs_vxc_create                       10  9.0    0.000    0.000    8.677    8.677
 xc_vxc_pw_create                    10 10.0    0.135    0.135    8.677    8.677
 pw_transfer                        191 11.1    0.020    0.020    7.066    7.066
 pao_update                           4  4.0    0.008    0.008    6.899    6.899
 fft_wrap_pw1pw2                    171 12.3    0.003    0.003    6.874    6.874
 fft_wrap_pw1pw2_200                111 13.7    0.625    0.625    6.663    6.663
 pao_calc_energy                    422  5.0    0.003    0.003    6.243    6.243
 xc_rho_set_and_dset_create          10 11.0    0.159    0.159    5.268    5.268
 qs_rho_update_rho_low               10  6.0    0.000    0.000    5.226    5.226
 calculate_rho_elec                  10  7.0    0.037    0.037    5.226    5.226
 dbcsr_multiply_generic           23073  8.4    0.314    0.314    4.949    4.949
 xc_pw_derive                        60 12.0    0.001    0.001    4.768    4.768
 sum_up_and_integrate                10  9.0    0.084    0.084    4.700    4.700
 integrate_v_rspace                  10 10.0    0.001    0.001    4.616    4.616
 grid_integrate_task_list            10 11.0    3.904    3.904    3.904    3.904
 grid_collocate_task_list            10  8.0    3.616    3.616    3.616    3.616
 pao_dm_trs4                        422  6.0    0.003    0.003    3.249    3.249
 xc_pw_divergence                    10 11.0    0.001    0.001    3.179    3.179
 density_matrix_trs4                431  7.0    0.104    0.104    3.134    3.134
 fft3d_s                            172 14.2    3.059    3.059    3.072    3.072
 ls_scf_init_matrix_S               426  7.0    0.003    0.003    2.999    2.999
 pao_rebuild_S                      422  6.0    0.001    0.001    2.947    2.947
 matrix_sqrt_Newton_Schulz          426  8.0    0.078    0.078    2.705    2.705
 xc_functional_eval                  10 12.0    0.000    0.000    2.536    2.536
 pbe_lda_eval                        10 13.0    2.536    2.536    2.536    2.536
 pao_guess_initial_P                  1  4.0    0.000    0.000    2.305    2.305
 pao_read_preopt_dm                   1  5.0    0.000    0.000    2.305    2.305
 make_m2s                         46146  9.4    0.117    0.117    1.864    1.864
 multiply_cannon                  23073  9.4    0.751    0.751    1.845    1.845
 make_images                      46146 10.4    0.464    0.464    1.652    1.652
 pw_scatter_s                        90 14.7    1.615    1.615    1.615    1.615
 density_rs2pw                       10  8.0    0.001    0.001    1.573    1.573
 pw_gather_s                         81 13.8    1.539    1.539    1.539    1.539
 arnoldi_extremal                   857  8.5    0.003    0.003    0.990    0.990
 arnoldi_normal_ev                  857  9.5    0.010    0.010    0.987    0.987
 pw_derive                           60 13.0    0.875    0.875    0.875    0.875
 build_subspace                     857 10.5    0.041    0.041    0.762    0.762
 potential_pw2rs                     10 11.0    0.002    0.002    0.711    0.711
 dbcsr_matrix_vector_mult         20557 11.5    0.083    0.083    0.709    0.709
 pao_calc_AB                        557  5.8    0.001    0.001    0.651    0.651
 pw_copy                            120 11.8    0.651    0.651    0.651    0.651
 pao_calc_AB_equi                   557  6.8    0.022    0.022    0.651    0.651
 pao_calc_grad_lnv_wrt_AB           134  7.0    0.005    0.005    0.581    0.581
 dbcsr_finalize                   55596  9.6    0.113    0.113    0.553    0.553
 -------------------------------------------------------------------------------

 The number of warnings for this run is : 0
 
 -------------------------------------------------------------------------------
  **** **** ******  **  PROGRAM ENDED AT                 2023-02-01 10:45:47.260
 ***** ** ***  *** **   PROGRAM RAN ON                                    moritz
 **    ****   ******    PROGRAM RAN BY                                       ole
 ***** **    ** ** **   PROGRAM PROCESS ID                                148575
  **** **  *******  **  PROGRAM STOPPED IN /home/ole/git/pao_ml_equivar/2H2O_rot
                                           ations/phi_12
