 DBCSR| CPU Multiplication driver                                           BLAS
 DBCSR| Multrec recursion limit                                              512
 DBCSR| Multiplication stack size                                           1000
 DBCSR| Maximum elements for images                                    UNLIMITED
 DBCSR| Multiplicative factor virtual images                                   1
 DBCSR| Use multiplication densification                                       T
 DBCSR| Multiplication size stacks                                             3


  **** **** ******  **  PROGRAM STARTED AT               2019-03-28 17:24:28.488
 ***** ** ***  *** **   PROGRAM STARTED ON        oleschuett.zrh.corp.google.com
 **    ****   ******    PROGRAM STARTED BY                            oleschuett
 ***** **    ** ** **   PROGRAM PROCESS ID                                  5517
  **** **  *******  **  PROGRAM STARTED IN /usr/local/google/home/oleschuett/git
                                           /pao_ml_equivar/2H2O_rotations/phi_12

 CP2K| version string:                    CP2K version 7.0 (Development Version)
 CP2K| source code revision number:                                git:d9814d431
 CP2K| cp2kflags: libint fftw3 libxc libderiv_max_am1=5 libint_max_am=6         
 CP2K| is freely available from                            https://www.cp2k.org/
 CP2K| Program compiled at                          Mon Mar 25 16:50:07 CET 2019
 CP2K| Program compiled on                        oleschuett.zrh.corp.google.com
 CP2K| Program compiled for                                                local
 CP2K| Data directory path       /usr/local/google/home/oleschuett/git/cp2k/data
 CP2K| Input file name                                              2H2O_ref.inp

 GLOBAL| Force Environment number                                              1
 GLOBAL| Basis set file name                                        BASIS_MOLOPT
 GLOBAL| Potential file name                                      GTH_POTENTIALS
 GLOBAL| MM Potential file name                                     MM_POTENTIAL
 GLOBAL| Coordinate file name                                         coords.xyz
 GLOBAL| Method name                                                        CP2K
 GLOBAL| Project name                                                   2H2O_ref
 GLOBAL| Preferred FFT library                                             FFTW3
 GLOBAL| Preferred diagonalization lib.                                       SL
 GLOBAL| Run type                                                         ENERGY
 GLOBAL| All-to-all communication in single precision                          F
 GLOBAL| FFTs using library dependent lengths                                  F
 GLOBAL| Global print level                                                  LOW
 GLOBAL| MPI I/O enabled                                                       T
 GLOBAL| Total number of message passing processes                             1
 GLOBAL| Number of threads for this process                                    1
 GLOBAL| This output is from process                                           0
 GLOBAL| CPU model name :  Intel(R) Xeon(R) CPU E5-1650 v4 @ 3.60GHz

 MEMORY| system memory details [Kb]
 MEMORY|                        rank 0           min           max       average
 MEMORY| MemTotal             65953612      65953612      65953612      65953612
 MEMORY| MemFree               4745948       4745948       4745948       4745948
 MEMORY| Buffers               2547700       2547700       2547700       2547700
 MEMORY| Cached               25357504      25357504      25357504      25357504
 MEMORY| Slab                  3623544       3623544       3623544       3623544
 MEMORY| SReclaimable          2423020       2423020       2423020       2423020
 MEMORY| MemLikelyFree        35074172      35074172      35074172      35074172


 GENERATE|  Preliminary Number of Bonds generated:                             0
 GENERATE|  Achieved consistency in connectivity generation.

 *******************************************************************************
 *******************************************************************************
 **                                                                           **
 **     #####                         ##              ##                      **
 **    ##   ##            ##          ##              ##                      **
 **   ##     ##                       ##            ######                    **
 **   ##     ##  ##   ##  ##   #####  ##  ##   ####   ##    #####    #####    **
 **   ##     ##  ##   ##  ##  ##      ## ##   ##      ##   ##   ##  ##   ##   **
 **   ##  ## ##  ##   ##  ##  ##      ####     ###    ##   ######   ######    **
 **    ##  ###   ##   ##  ##  ##      ## ##      ##   ##   ##       ##        **
 **     #######   #####   ##   #####  ##  ##  ####    ##    #####   ##        **
 **           ##                                                    ##        **
 **                                                                           **
 **                                                ... make the atoms dance   **
 **                                                                           **
 **            Copyright (C) by CP2K developers group (2000 - 2018)           **
 **                                                                           **
 *******************************************************************************


 TOTAL NUMBERS AND MAXIMUM NUMBERS

  Total number of            - Atomic kinds:                                   2
                             - Atoms:                                          6
                             - Shell sets:                                     6
                             - Shells:                                        22
                             - Primitive Cartesian functions:                 42
                             - Cartesian basis functions:                     48
                             - Spherical basis functions:                     46

  Maximum angular momentum of- Orbital basis functions:                        2
                             - Local part of the GTH pseudopotential:          2
                             - Non-local part of the GTH pseudopotential:      0

 ------------------------------ Linear scaling SCF -----------------------------
 eps_scf:                                                              0.100E-07
 eps_filter:                                                           0.100E-07
 mixing_fraction:                                                      0.450E+00
 max_scf:                                                                     25
 fixed chemical potential (mu)                                                 F
 has unit metric:                                                              F
 Computing inv(S):                                                             T
 Computing sqrt(S):                                                            T
 Computing s preconditioner                                                    F
 sign sqrt order:                                                              3
 Extrapolation order:                                                          4
 Use single precision matrices                                                 F
 S preconditioner type                                                      NONE
 Polarized Atomic Orbitals (PAO)                                               F
 Purification method                                   Trace resetting 4th order
 Cluster type                                                             ATOMIC
 Computing Chebyshev                                                       FALSE
 Using PAO                                                                     F
 -------------------------------------------------------------------------------


     Lanczos converged:  T threshold:   0.100E-02
     Est. extremal eigenvalues:    0.406E+01   0.113E-01
     Est. condition number :    0.359E+03
     NS sqrt iter    1 1.00000000   0.105E+01       0.002      221.617
     NS sqrt iter    2 1.00000000   0.617E+00       0.002      389.908
     NS sqrt iter    3 1.00000000   0.343E+00       0.002      385.605
     NS sqrt iter    4 1.00000000   0.234E+00       0.002      382.719
     NS sqrt iter    5 1.00000000   0.117E+00       0.002      377.520
     NS sqrt iter    6 1.00000000   0.145E-01       0.002      396.209
     NS sqrt iter    7 1.00000000   0.354E-04       0.002      340.052
     Final NS sqrt iter    7 1.00000000   0.259E-08



 Guess for atomic kind: O

 Electronic structure
    Total number of core electrons                                          2.00
    Total number of valence electrons                                       6.00
    Total number of electrons                                               8.00
    Multiplicity                                                   not specified
    S   [  2.00] 2.00
    P      4.00


 *******************************************************************************
                  Iteration          Convergence                     Energy [au]
 *******************************************************************************
                          1        0.708315                     -15.576645311500
                          2        0.608879                     -15.587933561584
                          3        0.102828E-01                 -15.656849565404
                          4        0.113889E-02                 -15.656866888140
                          5        0.434197E-03                 -15.656867072159
                          6        0.263771E-03                 -15.656867091904
                          7        0.478536E-06                 -15.656867103452

 Energy components [Hartree]           Total Energy ::          -15.656867103452
                                        Band Energy ::           -3.000198112285
                                     Kinetic Energy ::           11.759971203220
                                   Potential Energy ::          -27.416838306672
                                      Virial (-V/T) ::            2.331369510426
                                        Core Energy ::          -26.140716385623
                                          XC Energy ::           -3.154051012914
                                     Coulomb Energy ::           13.637900295084
                       Total Pseudopotential Energy ::          -37.935781716540
                       Local Pseudopotential Energy ::          -39.218907440693
                    Nonlocal Pseudopotential Energy ::            1.283125724153
                                        Confinement ::            0.350941276976

 Orbital energies  State     L     Occupation   Energy[a.u.]          Energy[eV]

                       1     0          2.000      -0.864471          -23.523463

                       1     1          4.000      -0.317814           -8.648154


 Total Electron Density at R=0:                                         0.000068

 Guess for atomic kind: H

 Electronic structure
    Total number of core electrons                                          0.00
    Total number of valence electrons                                       1.00
    Total number of electrons                                               1.00
    Multiplicity                                                   not specified
    S      1.00


 *******************************************************************************
                  Iteration          Convergence                     Energy [au]
 *******************************************************************************
                          1        0.437545E-02                  -0.424159432110
                          2        0.531356E-03                  -0.424178438213
                          3        0.259176E-06                  -0.424178722480

 Energy components [Hartree]           Total Energy ::           -0.424178722480
                                        Band Energy ::           -0.199015229016
                                     Kinetic Energy ::            0.464007633961
                                   Potential Energy ::           -0.888186356441
                                      Virial (-V/T) ::            1.914163240935
                                        Core Energy ::           -0.479160803564
                                          XC Energy ::           -0.244352904054
                                     Coulomb Energy ::            0.299334985138
                       Total Pseudopotential Energy ::           -0.962295316385
                       Local Pseudopotential Energy ::           -0.962295316385
                    Nonlocal Pseudopotential Energy ::            0.000000000000
                                        Confinement ::            0.191268788606

 Orbital energies  State     L     Occupation   Energy[a.u.]          Energy[eV]

                       1     0          1.000      -0.199015           -5.415480


 Total Electron Density at R=0:                                         0.242907
 Re-scaling the density matrix to get the right number of electrons
                  # Electrons              Trace(P)               Scaling factor
                           16                15.990                        1.001
 Energy with the initial guess:       -34.130365095

     Est. extremal eigenvalues     -1.07107     3.82994  converged:  T
     TRS4 it   1 1.00000000   0.179E+01       0.001      117.484   0.100E-07
     TRS4 it   2 1.00000000   0.158E+01       0.001      117.484   0.100E-07
     TRS4 it   3 1.00000000   0.911E+00       0.001      221.476   0.100E-07
     TRS4 it   4 1.00000000   0.557E+00       0.001      226.240   0.100E-07
     TRS4 it   5 1.00000000   0.332E+00       0.001      224.327   0.100E-07
     TRS4 it   6 1.00000000   0.151E+00       0.001      217.748   0.100E-07
     TRS4 it   7 1.00000000   0.418E-01       0.001      203.825   0.100E-07
     TRS4 it   8 1.00000000   0.409E-02       0.001      227.627   0.100E-07
     TRS4 it   9 1.00000000   0.492E-04       0.001      218.301   0.100E-07
     TRS4 it  10 1.00000000   0.742E-08       0.001      200.072   0.100E-07
     Final TRS4 iteration   10 1.00000000   0.742E-08
     Chemical potential (mu):      -0.22692

 SCF     1       -34.246743012       -34.246743012    2.416627

*********************************************************
 Using MIXING_FRACTION=0.450 to mix KS matrix:  iscf=  2
 KS_nw=0.450*KS + 0.550*KS_old
*********************************************************
     Est. extremal eigenvalues     -0.92877     3.95529  converged:  T
     TRS4 it   1 1.00000000   0.176E+01       0.001      117.484   0.100E-07
     TRS4 it   2 1.00000000   0.161E+01       0.001      117.484   0.100E-07
     TRS4 it   3 1.00000000   0.975E+00       0.001      214.216   0.100E-07
     TRS4 it   4 1.00000000   0.594E+00       0.001      217.695   0.100E-07
     TRS4 it   5 1.00000000   0.396E+00       0.001      217.850   0.100E-07
     TRS4 it   6 1.00000000   0.229E+00       0.001      216.060   0.100E-07
     TRS4 it   7 1.00000000   0.105E+00       0.001      229.904   0.100E-07
     TRS4 it   8 1.00000000   0.292E-01       0.001      189.246   0.100E-07
     TRS4 it   9 1.00000000   0.315E-02       0.001      209.393   0.100E-07
     TRS4 it  10 1.00000000   0.428E-04       0.001      211.646   0.100E-07
     TRS4 it  11 1.00000000   0.815E-08       0.001      212.536   0.100E-07
     Final TRS4 iteration   11 1.00000000   0.815E-08
     Chemical potential (mu):      -0.11411

 SCF     2       -34.439876171        -0.193133159    2.075331

*********************************************************
 Using MIXING_FRACTION=0.450 to mix KS matrix:  iscf=  3
 KS_nw=0.450*KS + 0.550*KS_old
*********************************************************
     Est. extremal eigenvalues     -0.95169     3.94295  converged:  T
     TRS4 it   1 1.00000000   0.177E+01       0.001      117.484   0.100E-07
     TRS4 it   2 1.00000000   0.160E+01       0.000      117.484   0.100E-07
     TRS4 it   3 1.00000000   0.964E+00       0.001      234.968   0.100E-07
     TRS4 it   4 1.00000000   0.592E+00       0.001      234.968   0.100E-07
     TRS4 it   5 1.00000000   0.390E+00       0.001      234.968   0.100E-07
     TRS4 it   6 1.00000000   0.219E+00       0.001      234.899   0.100E-07
     TRS4 it   7 1.00000000   0.954E-01       0.001      234.968   0.100E-07
     TRS4 it   8 1.00000000   0.244E-01       0.001      234.968   0.100E-07
     TRS4 it   9 1.00000000   0.227E-02       0.001      234.968   0.100E-07
     TRS4 it  10 1.00000000   0.232E-04       0.001      234.968   0.100E-07
     TRS4 it  11 1.00000000   0.242E-08       0.001      234.968   0.100E-07
     Final TRS4 iteration   11 1.00000000   0.242E-08
     Chemical potential (mu):      -0.12484

 SCF     3       -34.449599136        -0.009722965    2.034847

*********************************************************
 Using MIXING_FRACTION=0.450 to mix KS matrix:  iscf=  4
 KS_nw=0.450*KS + 0.550*KS_old
*********************************************************
     Est. extremal eigenvalues     -0.93999     3.95502  converged:  T
     TRS4 it   1 1.00000000   0.177E+01       0.001       88.338   0.100E-07
     TRS4 it   2 1.00000000   0.161E+01       0.001      117.484   0.100E-07
     TRS4 it   3 1.00000000   0.968E+00       0.001      234.968   0.100E-07
     TRS4 it   4 1.00000000   0.594E+00       0.001      234.968   0.100E-07
     TRS4 it   5 1.00000000   0.395E+00       0.001      234.968   0.100E-07
     TRS4 it   6 1.00000000   0.226E+00       0.001      234.968   0.100E-07
     TRS4 it   7 1.00000000   0.102E+00       0.001      234.968   0.100E-07
     TRS4 it   8 1.00000000   0.283E-01       0.001      234.968   0.100E-07
     TRS4 it   9 1.00000000   0.315E-02       0.001      234.968   0.100E-07
     TRS4 it  10 1.00000000   0.455E-04       0.001      234.968   0.100E-07
     TRS4 it  11 1.00000000   0.940E-08       0.001      234.968   0.100E-07
     Final TRS4 iteration   11 1.00000000   0.940E-08
     Chemical potential (mu):      -0.11459

 SCF     4       -34.450332728        -0.000733592    1.742612

*********************************************************
 Using MIXING_FRACTION=0.450 to mix KS matrix:  iscf=  5
 KS_nw=0.450*KS + 0.550*KS_old
*********************************************************
     Est. extremal eigenvalues     -0.94034     3.95640  converged:  T
     TRS4 it   1 1.00000000   0.177E+01       0.001      117.484   0.100E-07
     TRS4 it   2 1.00000000   0.161E+01       0.000      117.484   0.100E-07
     TRS4 it   3 1.00000000   0.968E+00       0.001      234.968   0.100E-07
     TRS4 it   4 1.00000000   0.595E+00       0.001      234.968   0.100E-07
     TRS4 it   5 1.00000000   0.396E+00       0.001      234.968   0.100E-07
     TRS4 it   6 1.00000000   0.227E+00       0.001      234.968   0.100E-07
     TRS4 it   7 1.00000000   0.103E+00       0.001      234.968   0.100E-07
     TRS4 it   8 1.00000000   0.287E-01       0.001      234.968   0.100E-07
     TRS4 it   9 1.00000000   0.329E-02       0.001      234.968   0.100E-07
     TRS4 it  10 1.00000000   0.503E-04       0.001      234.968   0.100E-07
     TRS4 it  11 1.00000000   0.115E-07       0.001      234.968   0.100E-07
     Final TRS4 iteration   11 1.00000000   0.115E-07
     Chemical potential (mu):      -0.11341

 SCF     5       -34.450393767        -0.000061039    1.724017

*********************************************************
 Using MIXING_FRACTION=0.450 to mix KS matrix:  iscf=  6
 KS_nw=0.450*KS + 0.550*KS_old
*********************************************************
     Est. extremal eigenvalues     -0.93872     3.95843  converged:  T
     TRS4 it   1 1.00000000   0.177E+01       0.000      117.484   0.100E-07
     TRS4 it   2 1.00000000   0.161E+01       0.000      117.484   0.100E-07
     TRS4 it   3 1.00000000   0.969E+00       0.001      234.968   0.100E-07
     TRS4 it   4 1.00000000   0.595E+00       0.001      234.968   0.100E-07
     TRS4 it   5 1.00000000   0.396E+00       0.001      213.167   0.100E-07
     TRS4 it   6 1.00000000   0.228E+00       0.001      234.968   0.100E-07
     TRS4 it   7 1.00000000   0.104E+00       0.001      234.968   0.100E-07
     TRS4 it   8 1.00000000   0.294E-01       0.001      234.968   0.100E-07
     TRS4 it   9 1.00000000   0.347E-02       0.001      233.849   0.100E-07
     TRS4 it  10 1.00000000   0.564E-04       0.001      234.968   0.100E-07
     TRS4 it  11 1.00000000   0.145E-07       0.001      234.968   0.100E-07
     Final TRS4 iteration   11 1.00000000   0.145E-07
     Chemical potential (mu):      -0.11171

 SCF     6       -34.450400704        -0.000006937    2.188112

*********************************************************
 Using MIXING_FRACTION=0.450 to mix KS matrix:  iscf=  7
 KS_nw=0.450*KS + 0.550*KS_old
*********************************************************
     Est. extremal eigenvalues     -0.93837     3.95914  converged:  T
     TRS4 it   1 1.00000000   0.177E+01       0.001      117.484   0.100E-07
     TRS4 it   2 1.00000000   0.161E+01       0.001      117.484   0.100E-07
     TRS4 it   3 1.00000000   0.969E+00       0.001      215.949   0.100E-07
     TRS4 it   4 1.00000000   0.595E+00       0.001      232.149   0.100E-07
     TRS4 it   5 1.00000000   0.397E+00       0.001      206.119   0.100E-07
     TRS4 it   6 1.00000000   0.228E+00       0.001      192.332   0.100E-07
     TRS4 it   7 1.00000000   0.104E+00       0.001      158.209   0.100E-07
     TRS4 it   8 1.00000000   0.297E-01       0.001      191.521   0.100E-07
     TRS4 it   9 1.00000000   0.355E-02       0.001      234.968   0.100E-07
     TRS4 it  10 1.00000000   0.590E-04       0.001      234.968   0.100E-07
     TRS4 it  11 1.00000000   0.159E-07       0.001      234.968   0.100E-07
     Final TRS4 iteration   11 1.00000000   0.159E-07
     Chemical potential (mu):      -0.11110

 SCF     7       -34.450401898        -0.000001194    1.766140

*********************************************************
 Using MIXING_FRACTION=0.450 to mix KS matrix:  iscf=  8
 KS_nw=0.450*KS + 0.550*KS_old
*********************************************************
     Est. extremal eigenvalues     -0.93804     3.95960  converged:  T
     TRS4 it   1 1.00000000   0.177E+01       0.001      117.484   0.100E-07
     TRS4 it   2 1.00000000   0.161E+01       0.001      117.484   0.100E-07
     TRS4 it   3 1.00000000   0.969E+00       0.001      195.159   0.100E-07
     TRS4 it   4 1.00000000   0.595E+00       0.001      213.598   0.100E-07
     TRS4 it   5 1.00000000   0.397E+00       0.001      214.076   0.100E-07
     TRS4 it   6 1.00000000   0.228E+00       0.001      208.648   0.100E-07
     TRS4 it   7 1.00000000   0.104E+00       0.001      223.007   0.100E-07
     TRS4 it   8 1.00000000   0.299E-01       0.001      221.146   0.100E-07
     TRS4 it   9 1.00000000   0.359E-02       0.001      219.398   0.100E-07
     TRS4 it  10 1.00000000   0.607E-04       0.001      223.106   0.100E-07
     TRS4 it  11 1.00000000   0.168E-07       0.001      224.782   0.100E-07
     Final TRS4 iteration   11 1.00000000   0.168E-07
     Chemical potential (mu):      -0.11072

 SCF     8       -34.450402177        -0.000000279    1.732151

*********************************************************
 Using MIXING_FRACTION=0.450 to mix KS matrix:  iscf=  9
 KS_nw=0.450*KS + 0.550*KS_old
*********************************************************
     Est. extremal eigenvalues     -0.93791     3.95982  converged:  T
     TRS4 it   1 1.00000000   0.177E+01       0.001      117.484   0.100E-07
     TRS4 it   2 1.00000000   0.161E+01       0.000      117.484   0.100E-07
     TRS4 it   3 1.00000000   0.969E+00       0.001      234.968   0.100E-07
     TRS4 it   4 1.00000000   0.596E+00       0.001      234.968   0.100E-07
     TRS4 it   5 1.00000000   0.397E+00       0.001      234.968   0.100E-07
     TRS4 it   6 1.00000000   0.228E+00       0.001      234.968   0.100E-07
     TRS4 it   7 1.00000000   0.104E+00       0.001      234.968   0.100E-07
     TRS4 it   8 1.00000000   0.299E-01       0.001      234.968   0.100E-07
     TRS4 it   9 1.00000000   0.362E-02       0.001      226.660   0.100E-07
     TRS4 it  10 1.00000000   0.615E-04       0.001      234.968   0.100E-07
     TRS4 it  11 1.00000000   0.172E-07       0.001      234.968   0.100E-07
     Final TRS4 iteration   11 1.00000000   0.172E-07
     Chemical potential (mu):      -0.11052

 SCF     9       -34.450402251        -0.000000074    1.848342

 Writing restart DM 2H2O_ref_LS_DM_SPIN_1_RESTART.dm with checksum:       0.72071451E+02

 ENERGY| Total FORCE_EVAL ( QS ) energy (a.u.):              -34.450402251030752


 -------------------------------------------------------------------------------
 -                                                                             -
 -                                DBCSR STATISTICS                             -
 -                                                                             -
 -------------------------------------------------------------------------------
 COUNTER                                    TOTAL       BLAS       SMM       ACC
 flops     5 x     5 x     5              2778000     100.0%      0.0%      0.0%
 flops     5 x    13 x     5              3120000     100.0%      0.0%      0.0%
 flops    13 x     5 x     5              3120000     100.0%      0.0%      0.0%
 flops     5 x     5 x    13              3601000     100.0%      0.0%      0.0%
 flops    13 x     5 x    13              4062760     100.0%      0.0%      0.0%
 flops     5 x    13 x    13              4062760     100.0%      0.0%      0.0%
 flops    13 x    13 x     5              5313360     100.0%      0.0%      0.0%
 flops    13 x    13 x    13              6942520     100.0%      0.0%      0.0%
 flops inhomo. stacks                           0       0.0%      0.0%      0.0%
 flops total                        33.000400E+06     100.0%      0.0%      0.0%
 flops max/rank                     33.000400E+06     100.0%      0.0%      0.0%
 matmuls inhomo. stacks                         0       0.0%      0.0%      0.0%
 matmuls total                              35784     100.0%      0.0%      0.0%
 number of processed stacks                  1960     100.0%      0.0%      0.0%
 average stack size                                    18.3       0.0       0.0
 marketing flops                    47.889312E+06
 -------------------------------------------------------------------------------
 # multiplications                            246
 max memory usage/rank             327.745536E+06
 # max total images/rank                        1
 # max 3D layers                                1
 # MPI messages exchanged                       0
 MPI messages size (bytes):
  total size                         0.000000E+00
  min size                           0.000000E+00
  max size                           0.000000E+00
  average size                       0.000000E+00
 MPI breakdown and total messages size (bytes):
             size <=      128                   0                        0
       128 < size <=     8192                   0                        0
      8192 < size <=    32768                   0                        0
     32768 < size <=   131072                   0                        0
    131072 < size <=  4194304                   0                        0
   4194304 < size <= 16777216                   0                        0
  16777216 < size                               0                        0
 -------------------------------------------------------------------------------

 MEMORY| Estimated peak process memory [MiB]                                 313

 -------------------------------------------------------------------------------
 -                                                                             -
 -                           R E F E R E N C E S                               -
 -                                                                             -
 -------------------------------------------------------------------------------
 
 CP2K version 7.0 (Development Version), the CP2K developers group (2018).
 CP2K is freely available from https://www.cp2k.org/ .

 Schuett, Ole; Messmer, Peter; Hutter, Juerg; VandeVondele, Joost. 
 Electronic Structure Calculations on Graphics Processing Units, John Wiley & Sons, Ltd, 173-190 (2016). 
 GPU-Accelerated Sparse Matrix-Matrix Multiplication for Linear Scaling Density Functional Theory.
 https://dx.doi.org/10.1002/9781118670712.ch8


 Borstnik, U; VandeVondele, J; Weber, V; Hutter, J. 
 PARALLEL COMPUTING, 40 (5-6), 47-58 (2014). 
 Sparse matrix multiplication: The distributed block-compressed sparse
 row library.
 https://dx.doi.org/10.1016/j.parco.2014.03.012


 Hutter, J; Iannuzzi, M; Schiffmann, F; VandeVondele, J. 
 WILEY INTERDISCIPLINARY REVIEWS-COMPUTATIONAL MOLECULAR SCIENCE, 4 (1), 15-25 (2014). 
 CP2K: atomistic simulations of condensed matter systems.
 https://dx.doi.org/10.1002/wcms.1159


 VandeVondele, J; Borstnik, U; Hutter, J. 
 JOURNAL OF CHEMICAL THEORY AND COMPUTATION, 8 (10), 3565-3573 (2012). 
 Linear Scaling Self-Consistent Field Calculations with Millions of Atoms
 in the Condensed Phase.
 https://dx.doi.org/10.1021/ct200897x


 VandeVondele, J; Hutter, J. 
 JOURNAL OF CHEMICAL PHYSICS, 127 (11), 114105 (2007). 
 Gaussian basis sets for accurate calculations on molecular systems in
 gas and condensed phases.
 https://dx.doi.org/10.1063/1.2770708


 Krack, M. 
 THEORETICAL CHEMISTRY ACCOUNTS, 114 (1-3), 145-152 (2005). 
 Pseudopotentials for H to Kr optimized for gradient-corrected
 exchange-correlation functionals.
 https://dx.doi.org/10.1007/s00214-005-0655-y


 VandeVondele, J; Krack, M; Mohamed, F; Parrinello, M; Chassaing, T;
 Hutter, J. COMPUTER PHYSICS COMMUNICATIONS, 167 (2), 103-128 (2005). 
 QUICKSTEP: Fast and accurate density functional calculations using a
 mixed Gaussian and plane waves approach.
 https://dx.doi.org/10.1016/j.cpc.2004.12.014


 Frigo, M; Johnson, SG. 
 PROCEEDINGS OF THE IEEE, 93 (2), 216-231 (2005). 
 The design and implementation of FFTW3.
 https://dx.doi.org/10.1109/JPROC.2004.840301


 Niklasson, AMN; Tymczak, CJ; Challacombe, M. 
 JOURNAL OF CHEMICAL PHYSICS, 118 (19), 8611-8620 (2003). 
 Trace resetting density matrix purification in O(N)
 self-consistent-field theory.
 https://dx.doi.org/10.1063/1.1559913


 Hartwigsen, C; Goedecker, S; Hutter, J. 
 PHYSICAL REVIEW B, 58 (7), 3641-3662 (1998). 
 Relativistic separable dual-space Gaussian pseudopotentials from H to Rn.
 https://dx.doi.org/10.1103/PhysRevB.58.3641


 Lippert, G; Hutter, J; Parrinello, M. 
 MOLECULAR PHYSICS, 92 (3), 477-487 (1997). 
 A hybrid Gaussian and plane wave density functional scheme.
 https://dx.doi.org/10.1080/002689797170220


 Perdew, JP; Burke, K; Ernzerhof, M. 
 PHYSICAL REVIEW LETTERS, 77 (18), 3865-3868 (1996). 
 Generalized gradient approximation made simple.
 https://dx.doi.org/10.1103/PhysRevLett.77.3865


 Goedecker, S; Teter, M; Hutter, J. 
 PHYSICAL REVIEW B, 54 (3), 1703-1710 (1996). 
 Separable dual-space Gaussian pseudopotentials.
 https://dx.doi.org/10.1103/PhysRevB.54.1703


 -------------------------------------------------------------------------------
 -                                                                             -
 -                                T I M I N G                                  -
 -                                                                             -
 -------------------------------------------------------------------------------
 SUBROUTINE                       CALLS  ASD         SELF TIME        TOTAL TIME
                                MAXIMUM       AVERAGE  MAXIMUM  AVERAGE  MAXIMUM
 CP2K                                 1  1.0    0.013    0.013   20.547   20.547
 qs_energies                          1  2.0    0.000    0.000   20.052   20.052
 ls_scf                               1  3.0    0.000    0.000   19.865   19.865
 ls_scf_main                          1  4.0    0.001    0.001   17.529   17.529
 ls_scf_dm_to_ks                      9  5.0    0.000    0.000   17.405   17.405
 qs_ks_update_qs_env                 10  6.1    0.000    0.000   14.087   14.087
 rebuild_ks_matrix                   10  7.1    0.000    0.000   14.086   14.086
 qs_ks_build_kohn_sham_matrix        10  8.1    0.001    0.001   14.086   14.086
 qs_vxc_create                       10  9.1    0.000    0.000    8.580    8.580
 xc_vxc_pw_create                    10 10.1    0.113    0.113    8.580    8.580
 xc_rho_set_and_dset_create          10 11.1    0.033    0.033    6.274    6.274
 pw_transfer                        191 10.7    0.016    0.016    5.851    5.851
 fft_wrap_pw1pw2                    171 11.8    0.002    0.002    5.753    5.753
 qs_rho_update_rho                   10  6.1    0.000    0.000    5.630    5.630
 calculate_rho_elec                  10  7.1    4.350    4.350    5.630    5.630
 fft_wrap_pw1pw2_200                111 12.9    0.332    0.332    5.499    5.499
 sum_up_and_integrate                10  9.1    0.019    0.019    4.616    4.616
 integrate_v_rspace                  10 10.1    3.930    3.930    4.597    4.597
 xc_functional_eval                  10 12.1    0.000    0.000    4.410    4.410
 pbe_lda_eval                        10 13.1    4.410    4.410    4.410    4.410
 fft3d_s                            172 13.7    3.100    3.100    3.115    3.115
 ls_scf_init_scf                      1  4.0    0.000    0.000    2.335    2.335
 ls_scf_initial_guess                 1  5.0    0.000    0.000    2.316    2.316
 ls_scf_qs_atomic_guess               1  6.0    0.000    0.000    2.316    2.316
 density_rs2pw                       10  8.1    0.001    0.001    1.266    1.266
 pw_gather_s                         81 13.2    1.247    1.247    1.247    1.247
 pw_scatter_s                        90 14.3    1.044    1.044    1.044    1.044
 potential_pw2rs                     10 11.1    0.002    0.002    0.665    0.665
 qs_init_subsys                       1  2.0    0.001    0.001    0.441    0.441
 qs_env_setup                         1  3.0    0.000    0.000    0.438    0.438
 qs_env_rebuild_pw_env                2  3.5    0.000    0.000    0.438    0.438
 pw_env_rebuild                       1  5.0    0.000    0.000    0.438    0.438
 pw_grid_setup                        4  6.0    0.000    0.000    0.414    0.414
 pw_grid_setup_internal               4  7.0    0.007    0.007    0.414    0.414
 -------------------------------------------------------------------------------

 The number of warnings for this run is : 0
 
 -------------------------------------------------------------------------------
  **** **** ******  **  PROGRAM ENDED AT                 2019-03-28 17:24:49.096
 ***** ** ***  *** **   PROGRAM RAN ON            oleschuett.zrh.corp.google.com
 **    ****   ******    PROGRAM RAN BY                                oleschuett
 ***** **    ** ** **   PROGRAM PROCESS ID                                  5517
  **** **  *******  **  PROGRAM STOPPED IN /usr/local/google/home/oleschuett/git
                                           /pao_ml_equivar/2H2O_rotations/phi_12
