 DBCSR| CPU Multiplication driver                                           XSMM (U)
 DBCSR| Multrec recursion limit                                              512 (U)
 DBCSR| Multiplication stack size                                           1000 (D)
 DBCSR| Maximum elements for images                                    UNLIMITED (U)
 DBCSR| Multiplicative factor virtual images                                   1 (U)
 DBCSR| Use multiplication densification                                       T (D)
 DBCSR| Multiplication size stacks                                             3 (U)
 DBCSR| Use memory pool for CPU allocation                                     F (U)
 DBCSR| Number of 3D layers                                               SINGLE (U)
 DBCSR| Use MPI memory allocation                                              F (U)
 DBCSR| Use RMA algorithm                                                      F (U)
 DBCSR| Use Communication thread                                               T (U)
 DBCSR| Communication thread load                                             87 (D)
 DBCSR| MPI: My process id                                                     0
 DBCSR| MPI: Number of processes                                              32
 DBCSR| OMP: Current number of threads                                         1
 DBCSR| OMP: Max number of threads                                             1
 DBCSR| Split modifier for TAS multiplication algorithm                  1.0E+00 (U)


  **** **** ******  **  PROGRAM STARTED AT               2024-09-24 01:07:31.144
 ***** ** ***  *** **   PROGRAM STARTED ON                                moritz
 **    ****   ******    PROGRAM STARTED BY                                   ole
 ***** **    ** ** **   PROGRAM PROCESS ID                                165818
  **** **  *******  **  PROGRAM STARTED IN /home/ole/git/pao_ml_equivar/64H2O_MD
                                           /Frame2300

 CP2K| version string:                 CP2K version 2024.3 (Development Version)
 CP2K| source code revision number:                                  git:3f890bb
 CP2K| cp2kflags: omp libint fftw3 libxc libgrpp pexsi elpa parallel scalapack c
 CP2K|            osma quip deepmd xsmm plumed2 spglib libdftd4 sirius libvori l
 CP2K|            libbqb libvdwxc hdf5
 CP2K| is freely available from                            https://www.cp2k.org/
 CP2K| Program compiled at                          Mo 23 Sep 2024 17:17:04 CEST
 CP2K| Program compiled on                                                moritz
 CP2K| Program compiled for                                                local
 CP2K| Data directory path                               /home/ole/git/cp2k/data
 CP2K| Input file name                                           64H2O_pao44.inp

 GLOBAL| Force Environment number                                              1
 GLOBAL| Basis set file name                                        BASIS_MOLOPT
 GLOBAL| Potential file name                                      GTH_POTENTIALS
 GLOBAL| MM Potential file name                                     MM_POTENTIAL
 GLOBAL| Coordinate file name                                         coords.xyz
 GLOBAL| Method name                                                        CP2K
 GLOBAL| Project name                                                64H2O_pao44
 GLOBAL| Run type                                                         ENERGY
 GLOBAL| FFT library                                                       FFTW3
 GLOBAL| Diagonalization library                                            ELPA
 GLOBAL| DGEMM library                                                      BLAS
 GLOBAL| Minimum number of eigenvectors for ELPA usage                        16
 GLOBAL| Orthonormality check for eigenvectors                          DISABLED
 GLOBAL| Matrix multiplication library                                     COSMA
 GLOBAL| All-to-all communication in single precision                          F
 GLOBAL| FFTs using library dependent lengths                                  F
 GLOBAL| Grid backend                                                       AUTO
 GLOBAL| Global print level                                                  LOW
 GLOBAL| MPI I/O enabled                                                       T
 GLOBAL| Total number of message passing processes                            32
 GLOBAL| Number of threads for this process                                    1
 GLOBAL| This output is from process                                           0
 GLOBAL| Stack size for threads created by OpenMP (OMP_STACKSIZE)        default
 GLOBAL| CPU model name           AMD Ryzen Threadripper 3970X 32-Core Processor
 GLOBAL| CPUID                                                              1002

 MEMORY| system memory details [Kb]
 MEMORY|                        rank 0           min           max       average
 MEMORY| MemTotal            131752136     131752136     131752136     131752136
 MEMORY| MemFree             114293980     114293980     114293980     114293980
 MEMORY| Buffers               1998360       1998360       1998360       1998360
 MEMORY| Cached                8639624       8639624       8639624       8639624
 MEMORY| Slab                  1642720       1642720       1642720       1642720
 MEMORY| SReclaimable          1143812       1143812       1143812       1143812
 MEMORY| MemLikelyFree       126075776     126075776     126075776     126075776


 GENERATE|  Preliminary Number of Bonds generated:                             0
 GENERATE|  Achieved consistency in connectivity generation.

 *******************************************************************************
 *******************************************************************************
 **                                                                           **
 **     #####                         ##              ##                      **
 **    ##   ##            ##          ##              ##                      **
 **   ##     ##                       ##            ######                    **
 **   ##     ##  ##   ##  ##   #####  ##  ##   ####   ##    #####    #####    **
 **   ##     ##  ##   ##  ##  ##      ## ##   ##      ##   ##   ##  ##   ##   **
 **   ##  ## ##  ##   ##  ##  ##      ####     ###    ##   ######   ######    **
 **    ##  ###   ##   ##  ##  ##      ## ##      ##   ##   ##       ##        **
 **     #######   #####   ##   #####  ##  ##  ####    ##    #####   ##        **
 **           ##                                                    ##        **
 **                                                                           **
 **                                                ... make the atoms dance   **
 **                                                                           **
 **            Copyright (C) by CP2K developers group (2000-2024)             **
 **                      J. Chem. Phys. 152, 194103 (2020)                    **
 **                                                                           **
 *******************************************************************************


 TOTAL NUMBERS AND MAXIMUM NUMBERS

  Total number of            - Atomic kinds:                                   2
                             - Atoms:                                        192
                             - Shell sets:                                   192
                             - Shells:                                       704
                             - Primitive Cartesian functions:               1344
                             - Cartesian basis functions:                   1536
                             - Spherical basis functions:                   1472

  Maximum angular momentum of- Orbital basis functions:                        2
                             - Local part of the GTH pseudopotential:          2
                             - Non-local part of the GTH pseudopotential:      0

 ------------------------------ Linear scaling SCF -----------------------------
 eps_scf:                                                              0.100E-07
 eps_filter:                                                           0.100E-11
 mixing_fraction:                                                      0.450E+00
 max_scf:                                                                     25
 fixed chemical potential (mu)                                                 F
 has unit metric:                                                              F
 Computing inv(S):                                                             T
 Computing sqrt(S):                                                            T
 Computing S preconditioner                                                    F
 S sqrt method:                                                     NEWTONSCHULZ
 S sqrt order:                                                                 3
 Extrapolation order:                                                          1
 S preconditioner type                                                      NONE
 Polarized Atomic Orbitals (PAO)                                               T
 Purification method                                   Trace resetting 4th order
 Cluster type                                                             ATOMIC
 Computing Chebyshev                                                       FALSE
 Using PAO                                                                     T
 -------------------------------------------------------------------------------

 
 PAO|                                  EPS_PAO                           0.5E-06
 PAO|                                  MIXING                            0.5E+00
 PAO|                                  MAX_PAO                              1500
 PAO|                                  MAX_CYCLES                           1000
 PAO|                                  PARAMETERIZATION              EQUIVARIANT
 PAO|                                  PRECONDITION                            F
 PAO|                                  REGULARIZATION                    0.0E+00
 PAO|                                  EPS_PGF                           0.1E-09
 PAO|                                  PENALTY_DISTANCE                  0.1E+00
 PAO|                                  PENALTY_STRENGTH                  0.5E-02
 PAO|                                  LINPOT_PRECONDITION_DELTA         0.0E+00
 PAO|                                  LINPOT_INITGUESS_DELT             0.0E+00
 PAO|                                  LINPOT_REGULARIZATION_DELTA       0.0E+00
 PAO|                                  LINPOT_REGULARIZATION_STRENGTH    0.0E+00
 PAO|                                  OPTIMIZER                              CG
 PAO|                                  CG_INIT_STEPS                           2
 PAO|                                  CG_RESET_LIMIT                    0.1E+00
 PAO|                                  CHECK_UNITARY_TOL                -0.1E+01
 PAO|                                  CHECK_GRADIENT_TOL               -0.1E+01
 PAO|                                  NUM_GRADIENT_ORDER                      2
 PAO|                                  NUM_GRADIENT_EPS                  0.1E-07
 PAO|                                  PRINT%RESTART%WRITE_CYCLES            100
 PAO|                                  RESTART_FILE 
 PAO|                                  PREOPT_DM_FILE 64H2O_ref_LS_DM_SPIN_1_RESTART.dm
 PAO|                                  MACHINE_LEARNING%METHOD       GAUSSIAN_PR
 PAO|                                  MACHINE_LEARNING%PRIOR               ZERO
 PAO|                                  MACHINE_LEARNING%DESCRIPTOR     POTENTIAL
 PAO|                                  MACHINE_LEARNING%TOLERANCE        0.1E-01
 PAO|                                  MACHINE_LEARNING%GP_NOISE_VAR     0.1E+00
 PAO|                                  MACHINE_LEARNING%GP_SCALE         0.5E-01
 

 Calculating atomic Fock matrix for atomic kind: O

 Electronic structure
    Total number of core electrons                                          2.00
    Total number of valence electrons                                       6.00
    Total number of electrons                                               8.00
    Multiplicity                                                   not specified
    S   [  2.00] 2.00
    P      4.00


 *******************************************************************************
                  Iteration          Convergence                     Energy [au]
 *******************************************************************************
                          1        0.708315                     -15.576645311500
                          2        0.608879                     -15.587933561584
                          3        0.102828E-01                 -15.656849565404
                          4        0.113889E-02                 -15.656866888140
                          5        0.434197E-03                 -15.656867072159
                          6        0.263771E-03                 -15.656867091904
                          7        0.478536E-06                 -15.656867103452

 Energy components [Hartree]           Total Energy ::          -15.656867103452
                                        Band Energy ::           -3.000198112285
                                     Kinetic Energy ::           11.759971203220
                                   Potential Energy ::          -27.416838306672
                                      Virial (-V/T) ::            2.331369510426
                                        Core Energy ::          -26.140716385623
                                          XC Energy ::           -3.154051012914
                                     Coulomb Energy ::           13.637900295084
                       Total Pseudopotential Energy ::          -37.935781716540
                       Local Pseudopotential Energy ::          -39.218907440693
                    Nonlocal Pseudopotential Energy ::            1.283125724153
                                        Confinement ::            0.350941276976

 Orbital energies  State     L     Occupation   Energy[a.u.]          Energy[eV]

                       1     0          2.000      -0.864471          -23.523463

                       1     1          4.000      -0.317814           -8.648154


 Total Electron Density at R=0:                                         0.000068

 Calculating atomic Fock matrix for atomic kind: H

 Electronic structure
    Total number of core electrons                                          0.00
    Total number of valence electrons                                       1.00
    Total number of electrons                                               1.00
    Multiplicity                                                   not specified
    S      1.00


 *******************************************************************************
                  Iteration          Convergence                     Energy [au]
 *******************************************************************************
                          1        0.437545E-02                  -0.424159432110
                          2        0.531356E-03                  -0.424178438213
                          3        0.259176E-06                  -0.424178722480

 Energy components [Hartree]           Total Energy ::           -0.424178722480
                                        Band Energy ::           -0.199015229016
                                     Kinetic Energy ::            0.464007633961
                                   Potential Energy ::           -0.888186356441
                                      Virial (-V/T) ::            1.914163240935
                                        Core Energy ::           -0.479160803564
                                          XC Energy ::           -0.244352904054
                                     Coulomb Energy ::            0.299334985138
                       Total Pseudopotential Energy ::           -0.962295316385
                       Local Pseudopotential Energy ::           -0.962295316385
                    Nonlocal Pseudopotential Energy ::            0.000000000000
                                        Confinement ::            0.191268788606

 Orbital energies  State     L     Occupation   Energy[a.u.]          Energy[eV]

                       1     0          1.000      -0.199015           -5.415480


 Total Electron Density at R=0:                                         0.242907
 PAO| Made initial guess for matrix_X with norm:   27.712812921102035     

     Lanczos converged:  F threshold:   0.100E-02
     Est. extremal eigenvalues:    0.608E+01   0.950E-01
     Est. condition number :    0.640E+02

 Order=           3
     NS sqrt iter    1 1.00000000   0.148E+01       0.021     2669.566
     NS sqrt iter    2 1.00000000   0.809E+00       0.034     3342.055
     NS sqrt iter    3 1.00000000   0.326E+00       0.034     3330.119
     NS sqrt iter    4 1.00000000   0.898E-01       0.034     3334.025
     NS sqrt iter    5 1.00000000   0.308E-02       0.034     3329.002
     NS sqrt iter    6 1.00000000   0.231E-06       0.029     2924.557
     Symmetrizing Results
     Final NS sqrt iter    6 1.00000000   0.115E-12

 PAO| Read restart DM 64H2O_ref_LS_DM_SPIN_1_RESTART.dm with checksum:    6212.5075294943990     
 PAO| Quickstep energy from restart density:  -1103.1546503453856     
 PAO| ======================= Iteration:         1 =============================

     Lanczos converged:  F threshold:   0.100E-02
     Est. extremal eigenvalues:    0.608E+01   0.950E-01
     Est. condition number :    0.640E+02

 Order=           3
     NS sqrt iter    1 1.00000000   0.148E+01       0.021     2699.629
     NS sqrt iter    2 1.00000000   0.809E+00       0.034     3361.331
     NS sqrt iter    3 1.00000000   0.326E+00       0.034     3358.622
     NS sqrt iter    4 1.00000000   0.898E-01       0.034     3358.144
     NS sqrt iter    5 1.00000000   0.308E-02       0.034     3370.053
     NS sqrt iter    6 1.00000000   0.231E-06       0.029     2907.135
     Symmetrizing Results
     Final NS sqrt iter    6 1.00000000   0.114E-12

     Est. extremal eigenvalues     -0.81847     2.64545  converged:  T
     TRS4 it   1 1.00000000   0.274E+02       0.007     2127.295   0.100E-11
     TRS4 it   2 1.00000000   0.238E+02       0.013     2169.326   0.100E-11
     TRS4 it   3 1.00000000   0.160E+02       0.013     2187.350   0.100E-11
     TRS4 it   4 1.00000000   0.998E+01       0.013     2213.604   0.100E-11
     TRS4 it   5 1.00000000   0.479E+01       0.013     2189.337   0.100E-11
     TRS4 it   6 1.00000000   0.159E+01       0.013     2244.266   0.100E-11
     TRS4 it   7 1.00000000   0.311E+00       0.013     2215.702   0.100E-11
     TRS4 it   8 1.00000000   0.214E-01       0.013     2186.353   0.100E-11
     TRS4 it   9 1.00000000   0.163E-03       0.013     2211.480   0.100E-11
     TRS4 it  10 1.00000000   0.852E-08       0.013     2209.933   0.100E-11
     TRS4 it  11 1.00000000   0.213E-13       0.013     2193.145   0.100E-11
     Final TRS4 iteration   11 1.00000000   0.213E-13
     Chemical potential (mu):       0.00959
 
 PAO| energy:  -186.03283172408788      penalty:   1.5598491805581095E-031
 PAO|CG| warming up with steepest descent
 PAO|CG| beta:    0.0000000000000000     
 PAO| norm of gradient:   3.9713679591319226     
 PAO|LS| adapt:  T F F
 PAO|LS| adapt: scan_steps:    0.0000000000000000        0.0000000000000000        0.0000000000000000     
 PAO|LS| adapt: energies:   -186.03283172408788        0.0000000000000000        0.0000000000000000     
 PAO| ======================= Iteration:         2 =============================

     Lanczos converged:  F threshold:   0.100E-02
     Est. extremal eigenvalues:    0.586E+01   0.100E+00
     Est. condition number :    0.584E+02

 Order=           3
     NS sqrt iter    1 1.00000000   0.144E+01       0.021     2696.009
     NS sqrt iter    2 1.00000000   0.780E+00       0.034     3346.966
     NS sqrt iter    3 1.00000000   0.305E+00       0.034     3354.878
     NS sqrt iter    4 1.00000000   0.753E-01       0.034     3338.598
     NS sqrt iter    5 1.00000000   0.190E-02       0.034     3360.197
     NS sqrt iter    6 1.00000000   0.648E-07       0.029     2898.686
     Symmetrizing Results
     Final NS sqrt iter    6 1.00000000   0.107E-13

     Est. extremal eigenvalues     -0.82171     2.64831  converged:  T
     TRS4 it   1 1.00000000   0.276E+02       0.007     2097.961   0.100E-11
     TRS4 it   2 1.00000000   0.238E+02       0.013     2207.073   0.100E-11
     TRS4 it   3 1.00000000   0.159E+02       0.013     2192.167   0.100E-11
     TRS4 it   4 1.00000000   0.978E+01       0.013     2213.251   0.100E-11
     TRS4 it   5 1.00000000   0.458E+01       0.013     2191.893   0.100E-11
     TRS4 it   6 1.00000000   0.146E+01       0.013     2216.226   0.100E-11
     TRS4 it   7 1.00000000   0.266E+00       0.013     2207.552   0.100E-11
     TRS4 it   8 1.00000000   0.152E-01       0.013     2202.168   0.100E-11
     TRS4 it   9 1.00000000   0.744E-04       0.013     2240.795   0.100E-11
     TRS4 it  10 1.00000000   0.202E-08       0.013     2202.343   0.100E-11
     TRS4 it  11 1.00000000   0.178E-14       0.013     2202.096   0.100E-11
     Final TRS4 iteration   11 1.00000000   0.178E-14
     Chemical potential (mu):       0.01530
 
 PAO| energy:  -187.48178063782342      penalty:   4.6971965568746832E-007
 PAO|LS| adapt:  T T F
 PAO|LS| adapt: scan_steps:    0.0000000000000000       0.10000000000000001        0.0000000000000000     
 PAO|LS| adapt: energies:   -186.03283172408788       -187.48178063782342        0.0000000000000000     
 PAO| ======================= Iteration:         3 =============================

     Lanczos converged:  F threshold:   0.100E-02
     Est. extremal eigenvalues:    0.565E+01   0.105E+00
     Est. condition number :    0.541E+02

 Order=           3
     NS sqrt iter    1 1.00000000   0.140E+01       0.021     2692.032
     NS sqrt iter    2 1.00000000   0.751E+00       0.034     3362.355
     NS sqrt iter    3 1.00000000   0.285E+00       0.034     3336.538
     NS sqrt iter    4 1.00000000   0.629E-01       0.034     3359.020
     NS sqrt iter    5 1.00000000   0.119E-02       0.034     3341.187
     NS sqrt iter    6 1.00000000   0.196E-07       0.029     2896.202
     Symmetrizing Results
     Final NS sqrt iter    6 1.00000000   0.383E-14

     Est. extremal eigenvalues     -0.82480     2.65128  converged:  T
     TRS4 it   1 1.00000000   0.279E+02       0.007     2132.335   0.100E-11
     TRS4 it   2 1.00000000   0.238E+02       0.013     2184.683   0.100E-11
     TRS4 it   3 1.00000000   0.158E+02       0.013     2196.574   0.100E-11
     TRS4 it   4 1.00000000   0.959E+01       0.013     2182.992   0.100E-11
     TRS4 it   5 1.00000000   0.438E+01       0.013     2208.907   0.100E-11
     TRS4 it   6 1.00000000   0.133E+01       0.013     2195.505   0.100E-11
     TRS4 it   7 1.00000000   0.225E+00       0.013     2227.719   0.100E-11
     TRS4 it   8 1.00000000   0.105E-01       0.013     2206.436   0.100E-11
     TRS4 it   9 1.00000000   0.318E-04       0.013     2186.064   0.100E-11
     TRS4 it  10 1.00000000   0.421E-09       0.013     2190.457   0.100E-11
     TRS4 it  11 1.00000000   0.533E-14       0.013     2196.139   0.100E-11
     Final TRS4 iteration   11 1.00000000   0.533E-14
     Chemical potential (mu):       0.02172
 
 PAO| energy:  -188.65803836853027      penalty:   7.5155144909936621E-006
 PAO|LS| adapt:  T T F
 PAO|LS| adapt: scan_steps:    0.0000000000000000       0.20000000000000001        0.0000000000000000     
 PAO|LS| adapt: energies:   -186.03283172408788       -188.65803836853027        0.0000000000000000     
 PAO| ======================= Iteration:         4 =============================

     Lanczos converged:  T threshold:   0.100E-02
     Est. extremal eigenvalues:    0.525E+01   0.113E+00
     Est. condition number :    0.466E+02

 Order=           3
     NS sqrt iter    1 1.00000000   0.132E+01       0.021     2700.984
     NS sqrt iter    2 1.00000000   0.696E+00       0.034     3345.975
     NS sqrt iter    3 1.00000000   0.248E+00       0.034     3353.386
     NS sqrt iter    4 1.00000000   0.440E-01       0.034     3351.551
     NS sqrt iter    5 1.00000000   0.490E-03       0.034     3369.997
     NS sqrt iter    6 1.00000000   0.190E-08       0.029     2838.914
     Symmetrizing Results
     Final NS sqrt iter    6 1.00000000   0.158E-13

     Est. extremal eigenvalues     -0.82990     2.65594  converged:  T
     TRS4 it   1 1.00000000   0.283E+02       0.007     2131.457   0.100E-11
     TRS4 it   2 1.00000000   0.238E+02       0.013     2212.328   0.100E-11
     TRS4 it   3 1.00000000   0.156E+02       0.013     2212.909   0.100E-11
     TRS4 it   4 1.00000000   0.927E+01       0.013     2192.033   0.100E-11
     TRS4 it   5 1.00000000   0.402E+01       0.013     2208.595   0.100E-11
     TRS4 it   6 1.00000000   0.112E+01       0.013     2194.349   0.100E-11
     TRS4 it   7 1.00000000   0.159E+00       0.013     2205.772   0.100E-11
     TRS4 it   8 1.00000000   0.490E-02       0.013     2217.981   0.100E-11
     TRS4 it   9 1.00000000   0.581E-05       0.013     2211.891   0.100E-11
     TRS4 it  10 1.00000000   0.160E-10       0.013     2191.770   0.100E-11
     Final TRS4 iteration   10 1.00000000   0.160E-10
     Chemical potential (mu):       0.04069
 
 PAO| energy:  -190.15066731005425      penalty:   1.2024823185585031E-004
 PAO|LS| Need extra step
 PAO|LS| adapt:  T T F
 PAO|LS| adapt: scan_steps:    0.0000000000000000       0.40000000000000002        0.0000000000000000     
 PAO|LS| adapt: energies:   -186.03283172408788       -190.15066731005425        0.0000000000000000     
 PAO| ======================= Iteration:         5 =============================

     Lanczos converged:  T threshold:   0.100E-02
     Est. extremal eigenvalues:    0.463E+01   0.128E+00
     Est. condition number :    0.363E+02

 Order=           3
     NS sqrt iter    1 1.00000000   0.120E+01       0.021     2666.402
     NS sqrt iter    2 1.00000000   0.610E+00       0.034     3365.488
     NS sqrt iter    3 1.00000000   0.192E+00       0.034     3347.565
     NS sqrt iter    4 1.00000000   0.232E-01       0.034     3358.906
     NS sqrt iter    5 1.00000000   0.966E-04       0.034     3347.497
     NS sqrt iter    6 1.00000000   0.225E-10       0.017     2191.983
     Symmetrizing Results
     Final NS sqrt iter    6 1.00000000   0.200E-11

     Est. extremal eigenvalues     -0.83316     2.65599  converged:  T
     TRS4 it   1 1.00000000   0.289E+02       0.007     2151.951   0.100E-11
     TRS4 it   2 1.00000000   0.238E+02       0.013     2216.223   0.100E-11
     TRS4 it   3 1.00000000   0.154E+02       0.013     2226.755   0.100E-11
     TRS4 it   4 1.00000000   0.879E+01       0.013     2222.849   0.100E-11
     TRS4 it   5 1.00000000   0.351E+01       0.013     2194.159   0.100E-11
     TRS4 it   6 1.00000000   0.832E+00       0.013     2219.787   0.100E-11
     TRS4 it   7 1.00000000   0.875E-01       0.013     2187.726   0.100E-11
     TRS4 it   8 1.00000000   0.143E-02       0.013     2192.330   0.100E-11
     TRS4 it   9 1.00000000   0.521E-06       0.013     2187.452   0.100E-11
     TRS4 it  10 1.00000000   0.123E-12       0.013     2209.488   0.100E-11
     Final TRS4 iteration   10 1.00000000   0.123E-12
     Chemical potential (mu):       0.06117
 
 PAO| energy:  -189.82231492709300      penalty:   1.9239717096932157E-003
 PAO|LS| Need extra step
 PAO|LS| adapt:  T T T
 PAO|LS| adapt: scan_steps:    0.0000000000000000       0.40000000000000002       0.80000000000000004     
 PAO|LS| adapt: energies:   -186.03283172408788       -190.15066731005425       -189.82231492709300     
 PAO|LS| adapt: suggested step_size:   0.57045987391842656     
 PAO|LS| adapt: predicted energy  -190.55438907817941     
 PAO| ======================= Iteration:         6 =============================

     Lanczos converged:  T threshold:   0.100E-02
     Est. extremal eigenvalues:    0.496E+01   0.119E+00
     Est. condition number :    0.415E+02

 Order=           3
     NS sqrt iter    1 1.00000000   0.126E+01       0.021     2674.952
     NS sqrt iter    2 1.00000000   0.655E+00       0.034     3373.477
     NS sqrt iter    3 1.00000000   0.221E+00       0.034     3347.448
     NS sqrt iter    4 1.00000000   0.330E-01       0.034     3365.822
     NS sqrt iter    5 1.00000000   0.238E-03       0.034     3364.584
     NS sqrt iter    6 1.00000000   0.271E-09       0.028     2631.727
     Symmetrizing Results
     Final NS sqrt iter    6 1.00000000   0.637E-12

     Est. extremal eigenvalues     -0.83258     2.65728  converged:  T
     TRS4 it   1 1.00000000   0.286E+02       0.007     2135.429   0.100E-11
     TRS4 it   2 1.00000000   0.238E+02       0.013     2228.302   0.100E-11
     TRS4 it   3 1.00000000   0.155E+02       0.013     2208.033   0.100E-11
     TRS4 it   4 1.00000000   0.904E+01       0.013     2212.506   0.100E-11
     TRS4 it   5 1.00000000   0.378E+01       0.013     2177.991   0.100E-11
     TRS4 it   6 1.00000000   0.975E+00       0.013     2197.312   0.100E-11
     TRS4 it   7 1.00000000   0.120E+00       0.013     2208.055   0.100E-11
     TRS4 it   8 1.00000000   0.270E-02       0.013     2187.008   0.100E-11
     TRS4 it   9 1.00000000   0.175E-05       0.013     2204.262   0.100E-11
     TRS4 it  10 1.00000000   0.155E-11       0.013     2204.172   0.100E-11
     Final TRS4 iteration   10 1.00000000   0.155E-11
     Chemical potential (mu):       0.05057
 
 PAO| energy:  -190.52757403083385      penalty:   4.9743820812474379E-004
 PAO|CG| warming up with steepest descent
 PAO|CG| beta:    0.0000000000000000     
 PAO| norm of gradient:   2.0744212583100285     
 PAO| energy improvement:  -4.4947423067459624     
 PAO| step      6                 -190.527574031  0.405E-02  0.570E+00     2.391
 PAO|LS| adapt:  T F F
 PAO|LS| adapt: scan_steps:    0.0000000000000000        0.0000000000000000        0.0000000000000000     
 PAO|LS| adapt: energies:   -190.52757403083385        0.0000000000000000        0.0000000000000000     
 PAO| ======================= Iteration:         7 =============================

     Lanczos converged:  T threshold:   0.100E-02
     Est. extremal eigenvalues:    0.481E+01   0.127E+00
     Est. condition number :    0.379E+02

 Order=           3
     NS sqrt iter    1 1.00000000   0.123E+01       0.021     2648.903
     NS sqrt iter    2 1.00000000   0.631E+00       0.034     3309.970
     NS sqrt iter    3 1.00000000   0.204E+00       0.035     3255.000
     NS sqrt iter    4 1.00000000   0.266E-01       0.034     3346.730
     NS sqrt iter    5 1.00000000   0.132E-03       0.034     3359.294
     NS sqrt iter    6 1.00000000   0.504E-10       0.021     2323.785
     Symmetrizing Results
     Final NS sqrt iter    6 1.00000000   0.219E-11

     Est. extremal eigenvalues     -0.83261     2.64318  converged:  T
     TRS4 it   1 1.00000000   0.287E+02       0.007     2097.692   0.100E-11
     TRS4 it   2 1.00000000   0.239E+02       0.013     2201.687   0.100E-11
     TRS4 it   3 1.00000000   0.156E+02       0.013     2221.017   0.100E-11
     TRS4 it   4 1.00000000   0.916E+01       0.013     2194.486   0.100E-11
     TRS4 it   5 1.00000000   0.386E+01       0.013     2208.888   0.100E-11
     TRS4 it   6 1.00000000   0.999E+00       0.013     2204.254   0.100E-11
     TRS4 it   7 1.00000000   0.122E+00       0.013     2221.492   0.100E-11
     TRS4 it   8 1.00000000   0.282E-02       0.013     2217.822   0.100E-11
     TRS4 it   9 1.00000000   0.205E-05       0.013     2192.200   0.100E-11
     TRS4 it  10 1.00000000   0.225E-11       0.013     2216.030   0.100E-11
     Final TRS4 iteration   10 1.00000000   0.225E-11
     Chemical potential (mu):       0.05183
 
 PAO| energy:  -189.61084652632309      penalty:   6.9677778029834361E-004
 PAO|LS| adapt:  T F T
 PAO|LS| adapt: scan_steps:    0.0000000000000000        0.0000000000000000       0.57045987391842656     
 PAO|LS| adapt: energies:   -190.52757403083385        0.0000000000000000       -189.61084652632309     
 PAO| ======================= Iteration:         8 =============================

     Lanczos converged:  T threshold:   0.100E-02
     Est. extremal eigenvalues:    0.488E+01   0.123E+00
     Est. condition number :    0.397E+02

 Order=           3
     NS sqrt iter    1 1.00000000   0.124E+01       0.021     2686.363
     NS sqrt iter    2 1.00000000   0.643E+00       0.034     3352.948
     NS sqrt iter    3 1.00000000   0.212E+00       0.034     3360.973
     NS sqrt iter    4 1.00000000   0.297E-01       0.034     3353.961
     NS sqrt iter    5 1.00000000   0.178E-03       0.034     3345.021
     NS sqrt iter    6 1.00000000   0.119E-09       0.025     2489.770
     Symmetrizing Results
     Final NS sqrt iter    6 1.00000000   0.170E-11

     Est. extremal eigenvalues     -0.83394     2.65049  converged:  T
     TRS4 it   1 1.00000000   0.286E+02       0.007     2115.568   0.100E-11
     TRS4 it   2 1.00000000   0.238E+02       0.013     2192.830   0.100E-11
     TRS4 it   3 1.00000000   0.156E+02       0.013     2192.486   0.100E-11
     TRS4 it   4 1.00000000   0.907E+01       0.013     2186.792   0.100E-11
     TRS4 it   5 1.00000000   0.380E+01       0.013     2199.584   0.100E-11
     TRS4 it   6 1.00000000   0.980E+00       0.013     2218.014   0.100E-11
     TRS4 it   7 1.00000000   0.121E+00       0.013     2185.677   0.100E-11
     TRS4 it   8 1.00000000   0.275E-02       0.013     2217.628   0.100E-11
     TRS4 it   9 1.00000000   0.188E-05       0.013     2205.470   0.100E-11
     TRS4 it  10 1.00000000   0.174E-11       0.013     2226.038   0.100E-11
     Final TRS4 iteration   10 1.00000000   0.174E-11
     Chemical potential (mu):       0.04999
 
 PAO| energy:  -190.89807466289096      penalty:   5.2694208539861317E-004
 PAO|LS| adapt:  T T T
 PAO|LS| adapt: scan_steps:    0.0000000000000000       0.28522993695921328       0.57045987391842656     
 PAO|LS| adapt: energies:   -190.52757403083385       -190.89807466289096       -189.61084652632309     
 PAO|LS| adapt: suggested step_size:   0.20636355867428288     
 PAO|LS| adapt: predicted energy  -190.96144369326493     
 PAO| ======================= Iteration:         9 =============================

     Lanczos converged:  T threshold:   0.100E-02
     Est. extremal eigenvalues:    0.490E+01   0.122E+00
     Est. condition number :    0.402E+02

 Order=           3
     NS sqrt iter    1 1.00000000   0.125E+01       0.021     2687.950
     NS sqrt iter    2 1.00000000   0.646E+00       0.034     3359.249
     NS sqrt iter    3 1.00000000   0.215E+00       0.033     3386.849
     NS sqrt iter    4 1.00000000   0.306E-01       0.034     3377.706
     NS sqrt iter    5 1.00000000   0.193E-03       0.034     3359.082
     NS sqrt iter    6 1.00000000   0.150E-09       0.026     2522.613
     Symmetrizing Results
     Final NS sqrt iter    6 1.00000000   0.143E-11

     Est. extremal eigenvalues     -0.83384     2.65244  converged:  T
     TRS4 it   1 1.00000000   0.286E+02       0.007     2139.520   0.100E-11
     TRS4 it   2 1.00000000   0.238E+02       0.013     2188.495   0.100E-11
     TRS4 it   3 1.00000000   0.155E+02       0.013     2192.922   0.100E-11
     TRS4 it   4 1.00000000   0.906E+01       0.013     2185.173   0.100E-11
     TRS4 it   5 1.00000000   0.379E+01       0.013     2165.627   0.100E-11
     TRS4 it   6 1.00000000   0.977E+00       0.013     2200.174   0.100E-11
     TRS4 it   7 1.00000000   0.120E+00       0.013     2210.034   0.100E-11
     TRS4 it   8 1.00000000   0.274E-02       0.013     2176.432   0.100E-11
     TRS4 it   9 1.00000000   0.184E-05       0.013     2195.878   0.100E-11
     TRS4 it  10 1.00000000   0.167E-11       0.013     2190.294   0.100E-11
     Final TRS4 iteration   10 1.00000000   0.167E-11
     Chemical potential (mu):       0.04991
 
 PAO| energy:  -190.96591313602664      penalty:   5.0937763634149793E-004
 PAO|CG| trace_G_new   0.71362970344784227     
 PAO|CG| trace_G_prev    4.3032235569285628     
 PAO|CG| trace_G_mix   -4.3153888463026514E-002
 PAO|CG| trace_D    4.3032235569285628     
 PAO|CG| trace_D_Gnew   4.3153888463026514E-002
 PAO|CG| beta:   0.17586434492634750     
 PAO| norm of gradient:  0.84476606433251222     
 PAO| energy improvement: -0.43833910519279584     
 PAO| step      9                 -190.965913136  0.165E-02  0.206E+00     1.473
 PAO|LS| adapt:  T F F
 PAO|LS| adapt: scan_steps:    0.0000000000000000        0.0000000000000000        0.0000000000000000     
 PAO|LS| adapt: energies:   -190.96591313602664        0.0000000000000000        0.0000000000000000     
 PAO| ======================= Iteration:        10 =============================

     Lanczos converged:  T threshold:   0.100E-02
     Est. extremal eigenvalues:    0.485E+01   0.125E+00
     Est. condition number :    0.387E+02

 Order=           3
     NS sqrt iter    1 1.00000000   0.124E+01       0.021     2690.283
     NS sqrt iter    2 1.00000000   0.638E+00       0.034     3364.910
     NS sqrt iter    3 1.00000000   0.209E+00       0.034     3379.097
     NS sqrt iter    4 1.00000000   0.284E-01       0.034     3363.055
     NS sqrt iter    5 1.00000000   0.156E-03       0.034     3320.127
     NS sqrt iter    6 1.00000000   0.776E-10       0.024     2383.844
     Symmetrizing Results
     Final NS sqrt iter    6 1.00000000   0.206E-11

     Est. extremal eigenvalues     -0.83437     2.63735  converged:  T
     TRS4 it   1 1.00000000   0.286E+02       0.007     2139.025   0.100E-11
     TRS4 it   2 1.00000000   0.238E+02       0.013     2181.186   0.100E-11
     TRS4 it   3 1.00000000   0.155E+02       0.013     2196.661   0.100E-11
     TRS4 it   4 1.00000000   0.904E+01       0.013     2207.054   0.100E-11
     TRS4 it   5 1.00000000   0.377E+01       0.013     2190.041   0.100E-11
     TRS4 it   6 1.00000000   0.966E+00       0.013     2207.860   0.100E-11
     TRS4 it   7 1.00000000   0.118E+00       0.013     2198.485   0.100E-11
     TRS4 it   8 1.00000000   0.262E-02       0.013     2201.882   0.100E-11
     TRS4 it   9 1.00000000   0.171E-05       0.013     2194.041   0.100E-11
     TRS4 it  10 1.00000000   0.142E-11       0.013     2213.828   0.100E-11
     Final TRS4 iteration   10 1.00000000   0.142E-11
     Chemical potential (mu):       0.05046
 
 PAO| energy:  -191.06413821105932      penalty:   5.1155952657199746E-004
 PAO|LS| adapt:  T T F
 PAO|LS| adapt: scan_steps:    0.0000000000000000       0.20636355867428288        0.0000000000000000     
 PAO|LS| adapt: energies:   -190.96591313602664       -191.06413821105932        0.0000000000000000     
 PAO| ======================= Iteration:        11 =============================

     Lanczos converged:  T threshold:   0.100E-02
     Est. extremal eigenvalues:    0.480E+01   0.129E+00
     Est. condition number :    0.373E+02

 Order=           3
     NS sqrt iter    1 1.00000000   0.123E+01       0.021     2710.942
     NS sqrt iter    2 1.00000000   0.630E+00       0.034     3338.370
     NS sqrt iter    3 1.00000000   0.204E+00       0.034     3348.969
     NS sqrt iter    4 1.00000000   0.264E-01       0.034     3365.889
     NS sqrt iter    5 1.00000000   0.125E-03       0.034     3348.054
     NS sqrt iter    6 1.00000000   0.400E-10       0.020     2224.383
     Symmetrizing Results
     Final NS sqrt iter    6 1.00000000   0.222E-11

     Est. extremal eigenvalues     -0.83450     2.62213  converged:  T
     TRS4 it   1 1.00000000   0.286E+02       0.007     2114.691   0.100E-11
     TRS4 it   2 1.00000000   0.237E+02       0.013     2183.565   0.100E-11
     TRS4 it   3 1.00000000   0.155E+02       0.013     2200.067   0.100E-11
     TRS4 it   4 1.00000000   0.901E+01       0.013     2205.752   0.100E-11
     TRS4 it   5 1.00000000   0.374E+01       0.013     2195.500   0.100E-11
     TRS4 it   6 1.00000000   0.952E+00       0.013     2195.849   0.100E-11
     TRS4 it   7 1.00000000   0.114E+00       0.013     2207.663   0.100E-11
     TRS4 it   8 1.00000000   0.249E-02       0.013     2182.358   0.100E-11
     TRS4 it   9 1.00000000   0.156E-05       0.013     2204.375   0.100E-11
     TRS4 it  10 1.00000000   0.115E-11       0.013     2186.857   0.100E-11
     Final TRS4 iteration   10 1.00000000   0.115E-11
     Chemical potential (mu):       0.05110
 
 PAO| energy:  -191.07000708606736      penalty:   5.2368392875915947E-004
 PAO|LS| adapt:  T T F
 PAO|LS| adapt: scan_steps:    0.0000000000000000       0.41272711734856576        0.0000000000000000     
 PAO|LS| adapt: energies:   -190.96591313602664       -191.07000708606736        0.0000000000000000     
 PAO| ======================= Iteration:        12 =============================

     Lanczos converged:  T threshold:   0.100E-02
     Est. extremal eigenvalues:    0.471E+01   0.136E+00
     Est. condition number :    0.347E+02

 Order=           3
     NS sqrt iter    1 1.00000000   0.121E+01       0.021     2675.816
     NS sqrt iter    2 1.00000000   0.615E+00       0.034     3340.040
     NS sqrt iter    3 1.00000000   0.194E+00       0.034     3368.510
     NS sqrt iter    4 1.00000000   0.228E-01       0.034     3354.672
     NS sqrt iter    5 1.00000000   0.806E-04       0.034     3364.869
     NS sqrt iter    6 1.00000000   0.103E-10       0.015     2143.661
     Symmetrizing Results
     Final NS sqrt iter    6 1.00000000   0.154E-11

     Est. extremal eigenvalues     -0.83368     2.59209  converged:  T
     TRS4 it   1 1.00000000   0.285E+02       0.007     2147.145   0.100E-11
     TRS4 it   2 1.00000000   0.235E+02       0.013     2203.602   0.100E-11
     TRS4 it   3 1.00000000   0.155E+02       0.013     2187.392   0.100E-11
     TRS4 it   4 1.00000000   0.895E+01       0.013     2191.947   0.100E-11
     TRS4 it   5 1.00000000   0.368E+01       0.013     2210.899   0.100E-11
     TRS4 it   6 1.00000000   0.920E+00       0.013     2213.021   0.100E-11
     TRS4 it   7 1.00000000   0.107E+00       0.013     2195.823   0.100E-11
     TRS4 it   8 1.00000000   0.220E-02       0.013     2192.628   0.100E-11
     TRS4 it   9 1.00000000   0.125E-05       0.013     2185.400   0.100E-11
     TRS4 it  10 1.00000000   0.709E-12       0.013     2218.121   0.100E-11
     Final TRS4 iteration   10 1.00000000   0.709E-12
     Chemical potential (mu):       0.05260
 
 PAO| energy:  -190.82111970036837      penalty:   5.8490204358748626E-004
 PAO|LS| Need extra step
 PAO|LS| adapt:  T T T
 PAO|LS| adapt: scan_steps:    0.0000000000000000       0.41272711734856576       0.82545423469713153     
 PAO|LS| adapt: energies:   -190.96591313602664       -191.07000708606736       -190.82111970036837     
 PAO|LS| adapt: suggested step_size:   0.32807649809556860     
 PAO|LS| adapt: predicted energy  -191.07743139469468     
 PAO| ======================= Iteration:        13 =============================

     Lanczos converged:  T threshold:   0.100E-02
     Est. extremal eigenvalues:    0.482E+01   0.127E+00
     Est. condition number :    0.378E+02

 Order=           3
     NS sqrt iter    1 1.00000000   0.123E+01       0.021     2677.340
     NS sqrt iter    2 1.00000000   0.633E+00       0.034     3358.711
     NS sqrt iter    3 1.00000000   0.206E+00       0.034     3370.499
     NS sqrt iter    4 1.00000000   0.272E-01       0.034     3366.436
     NS sqrt iter    5 1.00000000   0.137E-03       0.034     3353.358
     NS sqrt iter    6 1.00000000   0.525E-10       0.021     2299.708
     Symmetrizing Results
     Final NS sqrt iter    6 1.00000000   0.223E-11

     Est. extremal eigenvalues     -0.83450     2.62837  converged:  T
     TRS4 it   1 1.00000000   0.286E+02       0.007     2122.814   0.100E-11
     TRS4 it   2 1.00000000   0.237E+02       0.013     2216.592   0.100E-11
     TRS4 it   3 1.00000000   0.155E+02       0.013     2226.085   0.100E-11
     TRS4 it   4 1.00000000   0.903E+01       0.013     2210.698   0.100E-11
     TRS4 it   5 1.00000000   0.375E+01       0.013     2195.158   0.100E-11
     TRS4 it   6 1.00000000   0.958E+00       0.013     2203.602   0.100E-11
     TRS4 it   7 1.00000000   0.116E+00       0.013     2195.588   0.100E-11
     TRS4 it   8 1.00000000   0.255E-02       0.013     2194.127   0.100E-11
     TRS4 it   9 1.00000000   0.163E-05       0.013     2188.155   0.100E-11
     TRS4 it  10 1.00000000   0.128E-11       0.013     2184.727   0.100E-11
     Final TRS4 iteration   10 1.00000000   0.128E-11
     Chemical potential (mu):       0.05083
 
 PAO| energy:  -191.07851545247112      penalty:   5.1742526304438550E-004
 PAO|CG| trace_G_new   0.27014785269037556     
 PAO|CG| trace_G_prev   0.71362970344784227     
 PAO|CG| trace_G_mix   -1.1516509189992901E-002
 PAO|CG| trace_D   0.83154249343910580     
 PAO|CG| trace_D_Gnew   1.1626350550260367E-002
 PAO|CG| beta:   0.39469259830347680     
 PAO| norm of gradient:  0.51975749411660777     
 PAO| energy improvement: -0.11260231644448027     
 PAO| step     13                 -191.078515452  0.102E-02  0.328E+00     1.893
 PAO|LS| adapt:  T F F
 PAO|LS| adapt: scan_steps:    0.0000000000000000        0.0000000000000000        0.0000000000000000     
 PAO|LS| adapt: energies:   -191.07851545247112        0.0000000000000000        0.0000000000000000     
 PAO| ======================= Iteration:        14 =============================

     Lanczos converged:  T threshold:   0.100E-02
     Est. extremal eigenvalues:    0.476E+01   0.130E+00
     Est. condition number :    0.366E+02

 Order=           3
     NS sqrt iter    1 1.00000000   0.122E+01       0.021     2680.915
     NS sqrt iter    2 1.00000000   0.623E+00       0.034     3351.367
     NS sqrt iter    3 1.00000000   0.200E+00       0.034     3330.929
     NS sqrt iter    4 1.00000000   0.252E-01       0.034     3347.779
     NS sqrt iter    5 1.00000000   0.110E-03       0.034     3377.069
     NS sqrt iter    6 1.00000000   0.278E-10       0.018     2207.206
     Symmetrizing Results
     Final NS sqrt iter    6 1.00000000   0.218E-11

     Est. extremal eigenvalues     -0.83496     2.62377  converged:  T
     TRS4 it   1 1.00000000   0.286E+02       0.007     2144.440   0.100E-11
     TRS4 it   2 1.00000000   0.237E+02       0.013     2206.002   0.100E-11
     TRS4 it   3 1.00000000   0.155E+02       0.013     2179.330   0.100E-11
     TRS4 it   4 1.00000000   0.897E+01       0.013     2202.311   0.100E-11
     TRS4 it   5 1.00000000   0.370E+01       0.013     2194.394   0.100E-11
     TRS4 it   6 1.00000000   0.930E+00       0.013     2202.488   0.100E-11
     TRS4 it   7 1.00000000   0.109E+00       0.013     2215.757   0.100E-11
     TRS4 it   8 1.00000000   0.229E-02       0.013     2189.578   0.100E-11
     TRS4 it   9 1.00000000   0.134E-05       0.013     2194.946   0.100E-11
     TRS4 it  10 1.00000000   0.840E-12       0.013     2192.101   0.100E-11
     Final TRS4 iteration   10 1.00000000   0.840E-12
     Chemical potential (mu):       0.05233
 
 PAO| energy:  -191.12939937460607      penalty:   5.1869825075267833E-004
 PAO|LS| adapt:  T T F
 PAO|LS| adapt: scan_steps:    0.0000000000000000       0.32807649809556860        0.0000000000000000     
 PAO|LS| adapt: energies:   -191.07851545247112       -191.12939937460607        0.0000000000000000     
 PAO| ======================= Iteration:        15 =============================

     Lanczos converged:  T threshold:   0.100E-02
     Est. extremal eigenvalues:    0.470E+01   0.132E+00
     Est. condition number :    0.355E+02

 Order=           3
     NS sqrt iter    1 1.00000000   0.121E+01       0.021     2672.662
     NS sqrt iter    2 1.00000000   0.614E+00       0.034     3357.044
     NS sqrt iter    3 1.00000000   0.194E+00       0.034     3337.025
     NS sqrt iter    4 1.00000000   0.234E-01       0.034     3348.483
     NS sqrt iter    5 1.00000000   0.894E-04       0.034     3328.527
     NS sqrt iter    6 1.00000000   0.149E-10       0.016     2157.515
     Symmetrizing Results
     Final NS sqrt iter    6 1.00000000   0.181E-11

     Est. extremal eigenvalues     -0.83500     2.61905  converged:  T
     TRS4 it   1 1.00000000   0.287E+02       0.007     2108.409   0.100E-11
     TRS4 it   2 1.00000000   0.237E+02       0.013     2192.771   0.100E-11
     TRS4 it   3 1.00000000   0.155E+02       0.013     2180.171   0.100E-11
     TRS4 it   4 1.00000000   0.892E+01       0.013     2216.896   0.100E-11
     TRS4 it   5 1.00000000   0.364E+01       0.013     2193.743   0.100E-11
     TRS4 it   6 1.00000000   0.902E+00       0.013     2183.259   0.100E-11
     TRS4 it   7 1.00000000   0.103E+00       0.013     2205.451   0.100E-11
     TRS4 it   8 1.00000000   0.206E-02       0.013     2195.016   0.100E-11
     TRS4 it   9 1.00000000   0.110E-05       0.013     2184.568   0.100E-11
     TRS4 it  10 1.00000000   0.583E-12       0.013     2203.223   0.100E-11
     Final TRS4 iteration   10 1.00000000   0.583E-12
     Chemical potential (mu):       0.05375
 
 PAO| energy:  -191.10889932681923      penalty:   5.3469996957631173E-004
 PAO|LS| adapt:  T T T
 PAO|LS| adapt: scan_steps:    0.0000000000000000       0.32807649809556860       0.65615299619113721     
 PAO|LS| adapt: energies:   -191.07851545247112       -191.12939937460607       -191.10889932681923     
 PAO|LS| adapt: suggested step_size:   0.39789774161581609     
 PAO|LS| adapt: predicted energy  -191.13101594871475     
 PAO| ======================= Iteration:        16 =============================

     Lanczos converged:  T threshold:   0.100E-02
     Est. extremal eigenvalues:    0.475E+01   0.131E+00
     Est. condition number :    0.364E+02

 Order=           3
     NS sqrt iter    1 1.00000000   0.122E+01       0.021     2666.627
     NS sqrt iter    2 1.00000000   0.621E+00       0.034     3352.205
     NS sqrt iter    3 1.00000000   0.199E+00       0.034     3324.143
     NS sqrt iter    4 1.00000000   0.248E-01       0.034     3352.069
     NS sqrt iter    5 1.00000000   0.105E-03       0.034     3352.744
     NS sqrt iter    6 1.00000000   0.244E-10       0.018     2186.121
     Symmetrizing Results
     Final NS sqrt iter    6 1.00000000   0.211E-11

     Est. extremal eigenvalues     -0.83500     2.62277  converged:  T
     TRS4 it   1 1.00000000   0.286E+02       0.007     2121.915   0.100E-11
     TRS4 it   2 1.00000000   0.237E+02       0.013     2213.959   0.100E-11
     TRS4 it   3 1.00000000   0.155E+02       0.013     2199.220   0.100E-11
     TRS4 it   4 1.00000000   0.896E+01       0.013     2202.161   0.100E-11
     TRS4 it   5 1.00000000   0.369E+01       0.013     2206.530   0.100E-11
     TRS4 it   6 1.00000000   0.924E+00       0.013     2210.123   0.100E-11
     TRS4 it   7 1.00000000   0.108E+00       0.013     2220.875   0.100E-11
     TRS4 it   8 1.00000000   0.224E-02       0.013     2214.688   0.100E-11
     TRS4 it   9 1.00000000   0.128E-05       0.013     2201.027   0.100E-11
     TRS4 it  10 1.00000000   0.769E-12       0.013     2199.863   0.100E-11
     Final TRS4 iteration   10 1.00000000   0.769E-12
     Chemical potential (mu):       0.05264
 
 PAO| energy:  -191.13095927654138      penalty:   5.2082201864642609E-004
 PAO|CG| trace_G_new   0.10428549061999570     
 PAO|CG| trace_G_prev   0.27014785269037556     
 PAO|CG| trace_G_mix    4.2352224014882240E-003
 PAO|CG| trace_D   0.39050974190870980     
 PAO|CG| trace_D_Gnew   7.3717932287156599E-004
 PAO|CG| beta:   0.37035374230117624     
 PAO| norm of gradient:  0.32293264099498475     
 PAO| energy improvement:  -5.2443824070252276E-002
 PAO| step     16                 -191.130959277  0.631E-03  0.398E+00     1.452
 PAO|LS| adapt:  T F F
 PAO|LS| adapt: scan_steps:    0.0000000000000000        0.0000000000000000        0.0000000000000000     
 PAO|LS| adapt: energies:   -191.13095927654138        0.0000000000000000        0.0000000000000000     
 PAO| ======================= Iteration:        17 =============================

     Lanczos converged:  T threshold:   0.100E-02
     Est. extremal eigenvalues:    0.471E+01   0.131E+00
     Est. condition number :    0.359E+02

 Order=           3
     NS sqrt iter    1 1.00000000   0.121E+01       0.021     2676.354
     NS sqrt iter    2 1.00000000   0.617E+00       0.034     3345.309
     NS sqrt iter    3 1.00000000   0.196E+00       0.034     3341.579
     NS sqrt iter    4 1.00000000   0.240E-01       0.033     3382.688
     NS sqrt iter    5 1.00000000   0.965E-04       0.033     3385.336
     NS sqrt iter    6 1.00000000   0.186E-10       0.016     2179.963
     Symmetrizing Results
     Final NS sqrt iter    6 1.00000000   0.199E-11

     Est. extremal eigenvalues     -0.83504     2.62153  converged:  T
     TRS4 it   1 1.00000000   0.287E+02       0.007     2122.849   0.100E-11
     TRS4 it   2 1.00000000   0.237E+02       0.013     2188.569   0.100E-11
     TRS4 it   3 1.00000000   0.155E+02       0.013     2188.238   0.100E-11
     TRS4 it   4 1.00000000   0.891E+01       0.013     2199.028   0.100E-11
     TRS4 it   5 1.00000000   0.364E+01       0.013     2215.729   0.100E-11
     TRS4 it   6 1.00000000   0.904E+00       0.013     2218.524   0.100E-11
     TRS4 it   7 1.00000000   0.104E+00       0.013     2202.575   0.100E-11
     TRS4 it   8 1.00000000   0.208E-02       0.013     2200.407   0.100E-11
     TRS4 it   9 1.00000000   0.110E-05       0.013     2222.998   0.100E-11
     TRS4 it  10 1.00000000   0.581E-12       0.013     2189.211   0.100E-11
     Final TRS4 iteration   10 1.00000000   0.581E-12
     Chemical potential (mu):       0.05367
 
 PAO| energy:  -191.13523596874202      penalty:   5.1300284240052426E-004
 PAO|LS| adapt:  T T F
 PAO|LS| adapt: scan_steps:    0.0000000000000000       0.39789774161581609        0.0000000000000000     
 PAO|LS| adapt: energies:   -191.13095927654138       -191.13523596874202        0.0000000000000000     
 PAO| ======================= Iteration:        18 =============================

     Lanczos converged:  T threshold:   0.100E-02
     Est. extremal eigenvalues:    0.467E+01   0.132E+00
     Est. condition number :    0.354E+02

 Order=           3
     NS sqrt iter    1 1.00000000   0.120E+01       0.021     2691.515
     NS sqrt iter    2 1.00000000   0.612E+00       0.034     3366.210
     NS sqrt iter    3 1.00000000   0.194E+00       0.034     3357.245
     NS sqrt iter    4 1.00000000   0.233E-01       0.034     3335.946
     NS sqrt iter    5 1.00000000   0.885E-04       0.034     3355.086
     NS sqrt iter    6 1.00000000   0.144E-10       0.016     2149.492
     Symmetrizing Results
     Final NS sqrt iter    6 1.00000000   0.180E-11

     Est. extremal eigenvalues     -0.83489     2.62021  converged:  T
     TRS4 it   1 1.00000000   0.287E+02       0.007     2080.353   0.100E-11
     TRS4 it   2 1.00000000   0.236E+02       0.013     2169.968   0.100E-11
     TRS4 it   3 1.00000000   0.154E+02       0.013     2182.797   0.100E-11
     TRS4 it   4 1.00000000   0.887E+01       0.013     2201.933   0.100E-11
     TRS4 it   5 1.00000000   0.360E+01       0.013     2206.910   0.100E-11
     TRS4 it   6 1.00000000   0.885E+00       0.013     2224.955   0.100E-11
     TRS4 it   7 1.00000000   0.999E-01       0.013     2212.770   0.100E-11
     TRS4 it   8 1.00000000   0.193E-02       0.013     2199.567   0.100E-11
     TRS4 it   9 1.00000000   0.952E-06       0.013     2211.838   0.100E-11
     TRS4 it  10 1.00000000   0.385E-12       0.013     2190.444   0.100E-11
     Final TRS4 iteration   10 1.00000000   0.385E-12
     Chemical potential (mu):       0.05475
 
 PAO| energy:  -191.06513903793362      penalty:   5.1320450614672530E-004
 PAO|LS| adapt:  T T T
 PAO|LS| adapt: scan_steps:    0.0000000000000000       0.39789774161581609       0.79579548323163218     
 PAO|LS| adapt: energies:   -191.13095927654138       -191.13523596874202       -191.06513903793362     
 PAO|LS| adapt: suggested step_size:   0.22182910844291809     
 PAO|LS| adapt: predicted energy  -191.14251728642412     
 PAO| ======================= Iteration:        19 =============================

     Lanczos converged:  T threshold:   0.100E-02
     Est. extremal eigenvalues:    0.473E+01   0.131E+00
     Est. condition number :    0.361E+02

 Order=           3
     NS sqrt iter    1 1.00000000   0.121E+01       0.021     2690.320
     NS sqrt iter    2 1.00000000   0.619E+00       0.033     3380.710
     NS sqrt iter    3 1.00000000   0.197E+00       0.034     3352.102
     NS sqrt iter    4 1.00000000   0.244E-01       0.034     3363.990
     NS sqrt iter    5 1.00000000   0.100E-03       0.034     3364.399
     NS sqrt iter    6 1.00000000   0.210E-10       0.017     2180.433
     Symmetrizing Results
     Final NS sqrt iter    6 1.00000000   0.203E-11

     Est. extremal eigenvalues     -0.83505     2.62209  converged:  T
     TRS4 it   1 1.00000000   0.286E+02       0.007     2145.002   0.100E-11
     TRS4 it   2 1.00000000   0.237E+02       0.013     2195.341   0.100E-11
     TRS4 it   3 1.00000000   0.155E+02       0.013     2192.618   0.100E-11
     TRS4 it   4 1.00000000   0.893E+01       0.013     2203.627   0.100E-11
     TRS4 it   5 1.00000000   0.366E+01       0.013     2223.156   0.100E-11
     TRS4 it   6 1.00000000   0.913E+00       0.013     2195.585   0.100E-11
     TRS4 it   7 1.00000000   0.106E+00       0.013     2194.899   0.100E-11
     TRS4 it   8 1.00000000   0.215E-02       0.013     2215.950   0.100E-11
     TRS4 it   9 1.00000000   0.118E-05       0.013     2209.615   0.100E-11
     TRS4 it  10 1.00000000   0.670E-12       0.013     2216.181   0.100E-11
     Final TRS4 iteration   10 1.00000000   0.670E-12
     Chemical potential (mu):       0.05320
 
 PAO| energy:  -191.14250527066523      penalty:   5.1549016213458762E-004
 PAO|CG| trace_G_new    2.1780824744401316E-002
 PAO|CG| trace_G_prev   0.10428549061999570     
 PAO|CG| trace_G_mix   -3.8443632352471227E-004
 PAO|CG| trace_D   0.15730251237415252     
 PAO|CG| trace_D_Gnew  -4.2763956182483584E-005
 PAO|CG| beta:   0.21254405513316979     
 PAO| norm of gradient:  0.14758328070754259     
 PAO| energy improvement:  -1.1545994123849823E-002
 PAO| step     19                 -191.142505271  0.288E-03  0.222E+00     1.448
 PAO|LS| adapt:  T F F
 PAO|LS| adapt: scan_steps:    0.0000000000000000        0.0000000000000000        0.0000000000000000     
 PAO|LS| adapt: energies:   -191.14250527066523        0.0000000000000000        0.0000000000000000     
 PAO| ======================= Iteration:        20 =============================

     Lanczos converged:  T threshold:   0.100E-02
     Est. extremal eigenvalues:    0.472E+01   0.131E+00
     Est. condition number :    0.360E+02

 Order=           3
     NS sqrt iter    1 1.00000000   0.121E+01       0.021     2690.683
     NS sqrt iter    2 1.00000000   0.618E+00       0.034     3350.326
     NS sqrt iter    3 1.00000000   0.197E+00       0.034     3365.557
     NS sqrt iter    4 1.00000000   0.244E-01       0.034     3337.189
     NS sqrt iter    5 1.00000000   0.100E-03       0.034     3360.307
     NS sqrt iter    6 1.00000000   0.206E-10       0.017     2173.069
     Symmetrizing Results
     Final NS sqrt iter    6 1.00000000   0.202E-11

     Est. extremal eigenvalues     -0.83505     2.62084  converged:  T
     TRS4 it   1 1.00000000   0.286E+02       0.007     2124.215   0.100E-11
     TRS4 it   2 1.00000000   0.237E+02       0.013     2218.233   0.100E-11
     TRS4 it   3 1.00000000   0.155E+02       0.013     2228.016   0.100E-11
     TRS4 it   4 1.00000000   0.892E+01       0.013     2199.093   0.100E-11
     TRS4 it   5 1.00000000   0.365E+01       0.013     2188.243   0.100E-11
     TRS4 it   6 1.00000000   0.908E+00       0.013     2192.550   0.100E-11
     TRS4 it   7 1.00000000   0.105E+00       0.013     2194.614   0.100E-11
     TRS4 it   8 1.00000000   0.212E-02       0.013     2213.129   0.100E-11
     TRS4 it   9 1.00000000   0.115E-05       0.013     2182.755   0.100E-11
     TRS4 it  10 1.00000000   0.622E-12       0.013     2211.743   0.100E-11
     Final TRS4 iteration   10 1.00000000   0.622E-12
     Chemical potential (mu):       0.05338
 
 PAO| energy:  -191.14641685698939      penalty:   5.0549996085582022E-004
 PAO|LS| adapt:  T T F
 PAO|LS| adapt: scan_steps:    0.0000000000000000       0.22182910844291809        0.0000000000000000     
 PAO|LS| adapt: energies:   -191.14250527066523       -191.14641685698939        0.0000000000000000     
 PAO| ======================= Iteration:        21 =============================

     Lanczos converged:  T threshold:   0.100E-02
     Est. extremal eigenvalues:    0.472E+01   0.131E+00
     Est. condition number :    0.360E+02

 Order=           3
     NS sqrt iter    1 1.00000000   0.121E+01       0.021     2703.483
     NS sqrt iter    2 1.00000000   0.618E+00       0.034     3367.526
     NS sqrt iter    3 1.00000000   0.197E+00       0.034     3365.606
     NS sqrt iter    4 1.00000000   0.244E-01       0.034     3358.656
     NS sqrt iter    5 1.00000000   0.996E-04       0.034     3362.938
     NS sqrt iter    6 1.00000000   0.203E-10       0.017     2178.790
     Symmetrizing Results
     Final NS sqrt iter    6 1.00000000   0.200E-11

     Est. extremal eigenvalues     -0.83506     2.61957  converged:  T
     TRS4 it   1 1.00000000   0.286E+02       0.007     2103.167   0.100E-11
     TRS4 it   2 1.00000000   0.236E+02       0.013     2233.573   0.100E-11
     TRS4 it   3 1.00000000   0.155E+02       0.013     2210.079   0.100E-11
     TRS4 it   4 1.00000000   0.891E+01       0.013     2215.100   0.100E-11
     TRS4 it   5 1.00000000   0.364E+01       0.013     2207.971   0.100E-11
     TRS4 it   6 1.00000000   0.904E+00       0.013     2207.326   0.100E-11
     TRS4 it   7 1.00000000   0.104E+00       0.013     2182.623   0.100E-11
     TRS4 it   8 1.00000000   0.209E-02       0.013     2219.765   0.100E-11
     TRS4 it   9 1.00000000   0.111E-05       0.013     2233.608   0.100E-11
     TRS4 it  10 1.00000000   0.576E-12       0.013     2199.302   0.100E-11
     Final TRS4 iteration   10 1.00000000   0.576E-12
     Chemical potential (mu):       0.05356
 
 PAO| energy:  -191.14847076841565      penalty:   4.9596421146916249E-004
 PAO|LS| adapt:  T T F
 PAO|LS| adapt: scan_steps:    0.0000000000000000       0.44365821688583618        0.0000000000000000     
 PAO|LS| adapt: energies:   -191.14250527066523       -191.14847076841565        0.0000000000000000     
 PAO| ======================= Iteration:        22 =============================

     Lanczos converged:  T threshold:   0.100E-02
     Est. extremal eigenvalues:    0.471E+01   0.131E+00
     Est. condition number :    0.359E+02

 Order=           3
     NS sqrt iter    1 1.00000000   0.121E+01       0.021     2684.208
     NS sqrt iter    2 1.00000000   0.617E+00       0.034     3358.392
     NS sqrt iter    3 1.00000000   0.197E+00       0.034     3352.898
     NS sqrt iter    4 1.00000000   0.244E-01       0.034     3360.861
     NS sqrt iter    5 1.00000000   0.991E-04       0.034     3359.564
     NS sqrt iter    6 1.00000000   0.196E-10       0.017     2178.072
     Symmetrizing Results
     Final NS sqrt iter    6 1.00000000   0.203E-11

     Est. extremal eigenvalues     -0.83506     2.61703  converged:  T
     TRS4 it   1 1.00000000   0.287E+02       0.007     2125.611   0.100E-11
     TRS4 it   2 1.00000000   0.236E+02       0.013     2194.019   0.100E-11
     TRS4 it   3 1.00000000   0.154E+02       0.013     2210.977   0.100E-11
     TRS4 it   4 1.00000000   0.889E+01       0.013     2196.176   0.100E-11
     TRS4 it   5 1.00000000   0.362E+01       0.013     2200.494   0.100E-11
     TRS4 it   6 1.00000000   0.896E+00       0.013     2212.756   0.100E-11
     TRS4 it   7 1.00000000   0.102E+00       0.013     2199.654   0.100E-11
     TRS4 it   8 1.00000000   0.203E-02       0.013     2199.175   0.100E-11
     TRS4 it   9 1.00000000   0.105E-05       0.013     2210.055   0.100E-11
     TRS4 it  10 1.00000000   0.515E-12       0.013     2208.868   0.100E-11
     Final TRS4 iteration   10 1.00000000   0.515E-12
     Chemical potential (mu):       0.05392
 
 PAO| energy:  -191.14692343311020      penalty:   4.7822624350548877E-004
 PAO|LS| Need extra step
 PAO|LS| adapt:  T T T
 PAO|LS| adapt: scan_steps:    0.0000000000000000       0.44365821688583618       0.88731643377167235     
 PAO|LS| adapt: energies:   -191.14250527066523       -191.14847076841565       -191.14692343311020     
 PAO|LS| adapt: suggested step_size:   0.57411193904856328     
 PAO|LS| adapt: predicted energy  -191.14879554868239     
 PAO| ======================= Iteration:        23 =============================

     Lanczos converged:  T threshold:   0.100E-02
     Est. extremal eigenvalues:    0.471E+01   0.131E+00
     Est. condition number :    0.360E+02

 Order=           3
     NS sqrt iter    1 1.00000000   0.121E+01       0.021     2686.823
     NS sqrt iter    2 1.00000000   0.618E+00       0.033     3384.704
     NS sqrt iter    3 1.00000000   0.197E+00       0.034     3345.869
     NS sqrt iter    4 1.00000000   0.244E-01       0.034     3356.535
     NS sqrt iter    5 1.00000000   0.995E-04       0.034     3351.587
     NS sqrt iter    6 1.00000000   0.201E-10       0.017     2180.786
     Symmetrizing Results
     Final NS sqrt iter    6 1.00000000   0.201E-11

     Est. extremal eigenvalues     -0.83506     2.61883  converged:  T
     TRS4 it   1 1.00000000   0.287E+02       0.007     2127.229   0.100E-11
     TRS4 it   2 1.00000000   0.236E+02       0.013     2220.423   0.100E-11
     TRS4 it   3 1.00000000   0.154E+02       0.013     2186.293   0.100E-11
     TRS4 it   4 1.00000000   0.890E+01       0.013     2220.277   0.100E-11
     TRS4 it   5 1.00000000   0.364E+01       0.013     2184.578   0.100E-11
     TRS4 it   6 1.00000000   0.902E+00       0.013     2217.366   0.100E-11
     TRS4 it   7 1.00000000   0.104E+00       0.013     2199.470   0.100E-11
     TRS4 it   8 1.00000000   0.207E-02       0.013     2205.738   0.100E-11
     TRS4 it   9 1.00000000   0.109E-05       0.013     2163.535   0.100E-11
     TRS4 it  10 1.00000000   0.567E-12       0.013     2209.157   0.100E-11
     Final TRS4 iteration   10 1.00000000   0.567E-12
     Chemical potential (mu):       0.05367
 
 PAO| energy:  -191.14880292693039      penalty:   4.9056539405269736E-004
 PAO|CG| trace_G_new    1.7674627700078837E-002
 PAO|CG| trace_G_prev    2.1780824744401316E-002
 PAO|CG| trace_G_mix    1.1198137594100666E-004
 PAO|CG| trace_D    2.8905140316249595E-002
 PAO|CG| trace_D_Gnew  -4.5919876670740171E-005
 PAO|CG| beta:   0.80633522973698435     
 PAO| norm of gradient:  0.13294595781774954     
 PAO| energy improvement:  -6.2976562651613222E-003
 PAO| step     23                 -191.148802927  0.260E-03  0.574E+00     1.877
 PAO|LS| adapt:  T F F
 PAO|LS| adapt: scan_steps:    0.0000000000000000        0.0000000000000000        0.0000000000000000     
 PAO|LS| adapt: energies:   -191.14880292693039        0.0000000000000000        0.0000000000000000     
 PAO| ======================= Iteration:        24 =============================

     Lanczos converged:  T threshold:   0.100E-02
     Est. extremal eigenvalues:    0.470E+01   0.131E+00
     Est. condition number :    0.359E+02

 Order=           3
     NS sqrt iter    1 1.00000000   0.121E+01       0.021     2701.502
     NS sqrt iter    2 1.00000000   0.616E+00       0.034     3360.306
     NS sqrt iter    3 1.00000000   0.197E+00       0.034     3352.020
     NS sqrt iter    4 1.00000000   0.243E-01       0.034     3371.108
     NS sqrt iter    5 1.00000000   0.992E-04       0.033     3392.889
     NS sqrt iter    6 1.00000000   0.197E-10       0.017     2193.039
     Symmetrizing Results
     Final NS sqrt iter    6 1.00000000   0.202E-11

     Est. extremal eigenvalues     -0.83507     2.61497  converged:  T
     TRS4 it   1 1.00000000   0.287E+02       0.007     2131.907   0.100E-11
     TRS4 it   2 1.00000000   0.236E+02       0.013     2210.197   0.100E-11
     TRS4 it   3 1.00000000   0.154E+02       0.013     2204.836   0.100E-11
     TRS4 it   4 1.00000000   0.887E+01       0.013     2191.657   0.100E-11
     TRS4 it   5 1.00000000   0.361E+01       0.013     2195.537   0.100E-11
     TRS4 it   6 1.00000000   0.892E+00       0.013     2206.475   0.100E-11
     TRS4 it   7 1.00000000   0.102E+00       0.013     2189.512   0.100E-11
     TRS4 it   8 1.00000000   0.201E-02       0.013     2193.006   0.100E-11
     TRS4 it   9 1.00000000   0.104E-05       0.013     2200.662   0.100E-11
     TRS4 it  10 1.00000000   0.496E-12       0.013     2185.492   0.100E-11
     Final TRS4 iteration   10 1.00000000   0.496E-12
     Chemical potential (mu):       0.05396
 
 PAO| energy:  -191.15212767947085      penalty:   4.5102998167916448E-004
 PAO|LS| adapt:  T T F
 PAO|LS| adapt: scan_steps:    0.0000000000000000       0.57411193904856328        0.0000000000000000     
 PAO|LS| adapt: energies:   -191.14880292693039       -191.15212767947085        0.0000000000000000     
 PAO| ======================= Iteration:        25 =============================

     Lanczos converged:  T threshold:   0.100E-02
     Est. extremal eigenvalues:    0.468E+01   0.131E+00
     Est. condition number :    0.359E+02

 Order=           3
     NS sqrt iter    1 1.00000000   0.120E+01       0.021     2648.896
     NS sqrt iter    2 1.00000000   0.615E+00       0.034     3359.047
     NS sqrt iter    3 1.00000000   0.196E+00       0.034     3339.318
     NS sqrt iter    4 1.00000000   0.243E-01       0.034     3334.779
     NS sqrt iter    5 1.00000000   0.991E-04       0.034     3335.447
     NS sqrt iter    6 1.00000000   0.194E-10       0.017     2201.708
     Symmetrizing Results
     Final NS sqrt iter    6 1.00000000   0.200E-11

     Est. extremal eigenvalues     -0.83506     2.61098  converged:  T
     TRS4 it   1 1.00000000   0.287E+02       0.007     2128.829   0.100E-11
     TRS4 it   2 1.00000000   0.236E+02       0.013     2199.093   0.100E-11
     TRS4 it   3 1.00000000   0.154E+02       0.013     2199.531   0.100E-11
     TRS4 it   4 1.00000000   0.885E+01       0.013     2204.315   0.100E-11
     TRS4 it   5 1.00000000   0.359E+01       0.013     2187.691   0.100E-11
     TRS4 it   6 1.00000000   0.883E+00       0.013     2226.670   0.100E-11
     TRS4 it   7 1.00000000   0.100E+00       0.013     2209.056   0.100E-11
     TRS4 it   8 1.00000000   0.195E-02       0.013     2191.495   0.100E-11
     TRS4 it   9 1.00000000   0.983E-06       0.013     2195.793   0.100E-11
     TRS4 it  10 1.00000000   0.469E-12       0.013     2229.829   0.100E-11
     Final TRS4 iteration   10 1.00000000   0.469E-12
     Chemical potential (mu):       0.05425
 
 PAO| energy:  -191.14151707449460      penalty:   4.1604689411819262E-004
 PAO|LS| adapt:  T T T
 PAO|LS| adapt: scan_steps:    0.0000000000000000       0.57411193904856328        1.1482238780971266     
 PAO|LS| adapt: energies:   -191.14880292693039       -191.15212767947085       -191.14151707449460     
 PAO|LS| adapt: suggested step_size:   0.42402985954277056     
 PAO|LS| adapt: predicted energy  -191.15260383917513     
 PAO| ======================= Iteration:        26 =============================

     Lanczos converged:  T threshold:   0.100E-02
     Est. extremal eigenvalues:    0.470E+01   0.131E+00
     Est. condition number :    0.359E+02

 Order=           3
     NS sqrt iter    1 1.00000000   0.121E+01       0.021     2679.967
     NS sqrt iter    2 1.00000000   0.617E+00       0.034     3361.980
     NS sqrt iter    3 1.00000000   0.197E+00       0.034     3359.684
     NS sqrt iter    4 1.00000000   0.243E-01       0.034     3349.940
     NS sqrt iter    5 1.00000000   0.993E-04       0.034     3356.836
     NS sqrt iter    6 1.00000000   0.198E-10       0.017     2157.090
     Symmetrizing Results
     Final NS sqrt iter    6 1.00000000   0.202E-11

     Est. extremal eigenvalues     -0.83507     2.61599  converged:  T
     TRS4 it   1 1.00000000   0.287E+02       0.007     2159.891   0.100E-11
     TRS4 it   2 1.00000000   0.236E+02       0.013     2193.216   0.100E-11
     TRS4 it   3 1.00000000   0.154E+02       0.013     2204.769   0.100E-11
     TRS4 it   4 1.00000000   0.888E+01       0.013     2213.957   0.100E-11
     TRS4 it   5 1.00000000   0.362E+01       0.013     2207.139   0.100E-11
     TRS4 it   6 1.00000000   0.895E+00       0.013     2196.786   0.100E-11
     TRS4 it   7 1.00000000   0.102E+00       0.013     2219.737   0.100E-11
     TRS4 it   8 1.00000000   0.202E-02       0.013     2209.070   0.100E-11
     TRS4 it   9 1.00000000   0.105E-05       0.013     2207.535   0.100E-11
     TRS4 it  10 1.00000000   0.517E-12       0.013     2218.323   0.100E-11
     Final TRS4 iteration   10 1.00000000   0.517E-12
     Chemical potential (mu):       0.05388
 
 PAO| energy:  -191.15258863252825      penalty:   4.6091660797044527E-004
 PAO|CG| trace_G_new    1.4255647994414193E-002
 PAO|CG| trace_G_prev    1.7674627700078837E-002
 PAO|CG| trace_G_mix    2.8443436152908203E-004
 PAO|CG| trace_D    3.6542124369993795E-002
 PAO|CG| trace_D_Gnew  -8.6199023153695926E-005
 PAO|CG| beta:   0.79046720926533531     
 PAO| norm of gradient:  0.11939701836484105     
 PAO| energy improvement:  -3.7857055978633980E-003
 PAO| step     26                 -191.152588633  0.233E-03  0.424E+00     1.450
 PAO|LS| adapt:  T F F
 PAO|LS| adapt: scan_steps:    0.0000000000000000        0.0000000000000000        0.0000000000000000     
 PAO|LS| adapt: energies:   -191.15258863252825        0.0000000000000000        0.0000000000000000     
 PAO| ======================= Iteration:        27 =============================

     Lanczos converged:  T threshold:   0.100E-02
     Est. extremal eigenvalues:    0.469E+01   0.130E+00
     Est. condition number :    0.359E+02

 Order=           3
     NS sqrt iter    1 1.00000000   0.120E+01       0.021     2679.302
     NS sqrt iter    2 1.00000000   0.615E+00       0.034     3361.728
     NS sqrt iter    3 1.00000000   0.196E+00       0.034     3360.067
     NS sqrt iter    4 1.00000000   0.242E-01       0.034     3358.342
     NS sqrt iter    5 1.00000000   0.990E-04       0.034     3356.903
     NS sqrt iter    6 1.00000000   0.198E-10       0.017     2191.586
     Symmetrizing Results
     Final NS sqrt iter    6 1.00000000   0.201E-11

     Est. extremal eigenvalues     -0.83509     2.61375  converged:  T
     TRS4 it   1 1.00000000   0.287E+02       0.007     2131.332   0.100E-11
     TRS4 it   2 1.00000000   0.236E+02       0.013     2200.948   0.100E-11
     TRS4 it   3 1.00000000   0.154E+02       0.013     2204.696   0.100E-11
     TRS4 it   4 1.00000000   0.886E+01       0.013     2212.307   0.100E-11
     TRS4 it   5 1.00000000   0.360E+01       0.013     2197.003   0.100E-11
     TRS4 it   6 1.00000000   0.887E+00       0.013     2189.041   0.100E-11
     TRS4 it   7 1.00000000   0.101E+00       0.013     2183.654   0.100E-11
     TRS4 it   8 1.00000000   0.198E-02       0.013     2194.041   0.100E-11
     TRS4 it   9 1.00000000   0.101E-05       0.013     2186.441   0.100E-11
     TRS4 it  10 1.00000000   0.503E-12       0.013     2223.764   0.100E-11
     Final TRS4 iteration   10 1.00000000   0.503E-12
     Chemical potential (mu):       0.05411
 
 PAO| energy:  -191.15548337840866      penalty:   4.2423766599982419E-004
 PAO|LS| adapt:  T T F
 PAO|LS| adapt: scan_steps:    0.0000000000000000       0.42402985954277056        0.0000000000000000     
 PAO|LS| adapt: energies:   -191.15258863252825       -191.15548337840866        0.0000000000000000     
 PAO| ======================= Iteration:        28 =============================

     Lanczos converged:  T threshold:   0.100E-02
     Est. extremal eigenvalues:    0.467E+01   0.130E+00
     Est. condition number :    0.360E+02

 Order=           3
     NS sqrt iter    1 1.00000000   0.120E+01       0.021     2696.245
     NS sqrt iter    2 1.00000000   0.613E+00       0.034     3353.467
     NS sqrt iter    3 1.00000000   0.196E+00       0.034     3348.925
     NS sqrt iter    4 1.00000000   0.241E-01       0.034     3354.085
     NS sqrt iter    5 1.00000000   0.989E-04       0.034     3326.554
     NS sqrt iter    6 1.00000000   0.200E-10       0.017     2158.188
     Symmetrizing Results
     Final NS sqrt iter    6 1.00000000   0.202E-11

     Est. extremal eigenvalues     -0.83510     2.61137  converged:  T
     TRS4 it   1 1.00000000   0.287E+02       0.007     2063.968   0.100E-11
     TRS4 it   2 1.00000000   0.236E+02       0.013     2191.419   0.100E-11
     TRS4 it   3 1.00000000   0.154E+02       0.013     2208.976   0.100E-11
     TRS4 it   4 1.00000000   0.884E+01       0.013     2203.680   0.100E-11
     TRS4 it   5 1.00000000   0.358E+01       0.013     2177.278   0.100E-11
     TRS4 it   6 1.00000000   0.879E+00       0.013     2204.247   0.100E-11
     TRS4 it   7 1.00000000   0.993E-01       0.013     2207.059   0.100E-11
     TRS4 it   8 1.00000000   0.194E-02       0.013     2220.586   0.100E-11
     TRS4 it   9 1.00000000   0.970E-06       0.013     2195.898   0.100E-11
     TRS4 it  10 1.00000000   0.433E-12       0.013     2229.684   0.100E-11
     Final TRS4 iteration   10 1.00000000   0.433E-12
     Chemical potential (mu):       0.05433
 
 PAO| energy:  -191.15195601311794      penalty:   3.9084538294607043E-004
 PAO|LS| adapt:  T T T
 PAO|LS| adapt: scan_steps:    0.0000000000000000       0.42402985954277056       0.84805971908554112     
 PAO|LS| adapt: energies:   -191.15258863252825       -191.15548337840866       -191.15195601311794     
 PAO|LS| adapt: suggested step_size:   0.40314502023136484     
 PAO|LS| adapt: predicted energy  -191.15549116804567     
 PAO| ======================= Iteration:        29 =============================

     Lanczos converged:  T threshold:   0.100E-02
     Est. extremal eigenvalues:    0.469E+01   0.130E+00
     Est. condition number :    0.359E+02

 Order=           3
     NS sqrt iter    1 1.00000000   0.120E+01       0.021     2691.183
     NS sqrt iter    2 1.00000000   0.615E+00       0.034     3357.681
     NS sqrt iter    3 1.00000000   0.196E+00       0.034     3350.453
     NS sqrt iter    4 1.00000000   0.242E-01       0.034     3367.928
     NS sqrt iter    5 1.00000000   0.990E-04       0.034     3336.296
     NS sqrt iter    6 1.00000000   0.198E-10       0.017     2156.716
     Symmetrizing Results
     Final NS sqrt iter    6 1.00000000   0.201E-11

     Est. extremal eigenvalues     -0.83508     2.61386  converged:  T
     TRS4 it   1 1.00000000   0.287E+02       0.007     2133.934   0.100E-11
     TRS4 it   2 1.00000000   0.236E+02       0.013     2202.217   0.100E-11
     TRS4 it   3 1.00000000   0.154E+02       0.013     2188.260   0.100E-11
     TRS4 it   4 1.00000000   0.886E+01       0.013     2216.074   0.100E-11
     TRS4 it   5 1.00000000   0.360E+01       0.013     2207.809   0.100E-11
     TRS4 it   6 1.00000000   0.887E+00       0.013     2202.446   0.100E-11
     TRS4 it   7 1.00000000   0.101E+00       0.013     2190.125   0.100E-11
     TRS4 it   8 1.00000000   0.198E-02       0.013     2199.231   0.100E-11
     TRS4 it   9 1.00000000   0.101E-05       0.013     2208.549   0.100E-11
[...]
     TRS4 it   3 1.00000000   0.156E+02       0.013     2200.482   0.100E-11
     TRS4 it   4 1.00000000   0.922E+01       0.013     2193.030   0.100E-11
     TRS4 it   5 1.00000000   0.413E+01       0.013     2181.003   0.100E-11
     TRS4 it   6 1.00000000   0.130E+01       0.013     2173.735   0.100E-11
     TRS4 it   7 1.00000000   0.239E+00       0.013     2201.635   0.100E-11
     TRS4 it   8 1.00000000   0.128E-01       0.013     2191.485   0.100E-11
     TRS4 it   9 1.00000000   0.423E-04       0.013     2176.289   0.100E-11
     TRS4 it  10 1.00000000   0.626E-09       0.013     2191.559   0.100E-11
     TRS4 it  11 1.00000000   0.355E-14       0.013     2193.765   0.100E-11
     Final TRS4 iteration   11 1.00000000   0.355E-14
     Chemical potential (mu):       0.01984
 
 PAO| energy:  -190.75917176259824      penalty:   1.9462242406642208E-008
 PAO| Writing restart file.
     Est. extremal eigenvalues     -0.83548     2.62451  converged:  T
     TRS4 it   1 1.00000000   0.290E+02       0.007     2131.760   0.100E-11
     TRS4 it   2 1.00000000   0.239E+02       0.013     2191.159   0.100E-11
     TRS4 it   3 1.00000000   0.156E+02       0.013     2204.609   0.100E-11
     TRS4 it   4 1.00000000   0.922E+01       0.013     2202.004   0.100E-11
     TRS4 it   5 1.00000000   0.413E+01       0.013     2195.341   0.100E-11
     TRS4 it   6 1.00000000   0.130E+01       0.013     2198.848   0.100E-11
     TRS4 it   7 1.00000000   0.239E+00       0.013     2184.559   0.100E-11
     TRS4 it   8 1.00000000   0.128E-01       0.013     2208.372   0.100E-11
     TRS4 it   9 1.00000000   0.423E-04       0.013     2218.069   0.100E-11
     TRS4 it  10 1.00000000   0.626E-09       0.013     2196.720   0.100E-11
     TRS4 it  11 1.00000000   0.355E-14       0.013     2196.812   0.100E-11
     Final TRS4 iteration   11 1.00000000   0.355E-14
     Chemical potential (mu):       0.01984

 SCF     1     -1103.062331212     -1103.062331212    1.754229

*********************************************************
 Using MIXING_FRACTION=0.450 to mix KS matrix:  iscf=  2
 KS_nw=0.450*KS + 0.550*KS_old
*********************************************************
     Est. extremal eigenvalues     -0.83548     2.62451  converged:  T
     TRS4 it   1 1.00000000   0.290E+02       0.007     2120.714   0.100E-11
     TRS4 it   2 1.00000000   0.239E+02       0.013     2182.756   0.100E-11
     TRS4 it   3 1.00000000   0.156E+02       0.013     2180.061   0.100E-11
     TRS4 it   4 1.00000000   0.922E+01       0.013     2180.175   0.100E-11
     TRS4 it   5 1.00000000   0.413E+01       0.013     2194.619   0.100E-11
     TRS4 it   6 1.00000000   0.130E+01       0.013     2175.390   0.100E-11
     TRS4 it   7 1.00000000   0.239E+00       0.013     2172.876   0.100E-11
     TRS4 it   8 1.00000000   0.128E-01       0.013     2177.544   0.100E-11
     TRS4 it   9 1.00000000   0.423E-04       0.013     2170.329   0.100E-11
     TRS4 it  10 1.00000000   0.626E-09       0.013     2171.677   0.100E-11
     TRS4 it  11 1.00000000   0.195E-13       0.013     2207.331   0.100E-11
     Final TRS4 iteration   11 1.00000000   0.195E-13
     Chemical potential (mu):       0.01984

 SCF     2     -1103.062331212        -0.000000000    1.756129


 SCF run converged in     2 steps.

 PAO| Storing density matrix for ASPC guess in slot:           1

 ENERGY| Total FORCE_EVAL ( QS ) energy [a.u.]:            -1103.062331212079016

 -------------------------------------------------------------------------------
 -                                                                             -
 -                                DBCSR STATISTICS                             -
 -                                                                             -
 -------------------------------------------------------------------------------
 COUNTER                                    TOTAL       BLAS       SMM       ACC
 flops     5 x     5 x     4             23116800       0.0%    100.0%      0.0%     
 flops    13 x     5 x     4             29818880       0.0%    100.0%      0.0%     
 flops     5 x    13 x     4             29818880       0.0%    100.0%      0.0%     
 flops    13 x    13 x     4             39370240       0.0%    100.0%      0.0%     
 flops     4 x     4 x     5           6515589120       0.0%    100.0%      0.0%     
 flops     5 x     4 x     5           8044544000       0.0%    100.0%      0.0%     
 flops     4 x     4 x    13           8470265856       0.0%    100.0%      0.0%     
 flops    13 x     4 x     5          10457907200       0.0%    100.0%      0.0%     
 flops     5 x     4 x    13          10457907200       0.0%    100.0%      0.0%     
 flops    13 x     4 x    13          13595279360       0.0%    100.0%      0.0%     
 flops     5 x     4 x     4         405005017280       0.0%    100.0%      0.0%     
 flops    13 x     4 x     4         533159165760       0.0%    100.0%      0.0%     
 flops     4 x     4 x     4       29915825354368       0.0%    100.0%      0.0%     
 flops inhomo. stacks                           0       0.0%      0.0%      0.0%
 flops total                        30.911653E+12       0.0%    100.0%      0.0%
 flops max/rank                    975.843918E+09       0.0%    100.0%      0.0%
 matmuls inhomo. stacks                         0       0.0%      0.0%      0.0%
 matmuls total                       237682143709       0.0%    100.0%      0.0%
 number of processed stacks             242818571       0.0%    100.0%      0.0%
 average stack size                                     0.0     978.8       0.0
 marketing flops                    53.584792E+12
 -------------------------------------------------------------------------------
 # multiplications                          50280
 max memory usage/rank             616.640512E+06
 # max total images/rank                        2
 # max 3D layers                                1
 # MPI messages exchanged                20916480
 MPI messages size (bytes):
  total size                         2.479136E+12
  min size                           0.000000E+00
  max size                         541.696000E+03
  average size                     118.525508E+03
 MPI breakdown and total messages size (bytes):
             size <=      128              893880                     6144
       128 < size <=     8192              341805               1315276800
      8192 < size <=    32768               56581               1314785152
     32768 < size <=   131072             8968778             666251719040
    131072 < size <=  4194304            10655436            1810630882560
   4194304 < size <= 16777216                   0                        0
  16777216 < size                               0                        0
 -------------------------------------------------------------------------------

 *** WARNING in dbcsr_mm.F:301 :: Using a non-square number of MPI ranks ***
 *** might lead to poor performance. Used ranks: 32 Suggested: 36 64     ***

 -------------------------------------------------------------------------------
 -                                                                             -
 -                      DBCSR MESSAGE PASSING PERFORMANCE                      -
 -                                                                             -
 -------------------------------------------------------------------------------
 ROUTINE             CALLS      AVE VOLUME [Bytes]
 MP_Bcast               14                     12.
 MP_Allreduce       302632                     37.
 MP_Alltoall        129825                  14582.
 MP_ISend          1682704                  55201.
 MP_IRecv          1645832                  56494.
 -------------------------------------------------------------------------------

 -------------------------------------------------------------------------------
 -                                                                             -
 -                                DBM STATISTICS                               -
 -                                                                             -
 -------------------------------------------------------------------------------
    M  x    N  x    K                                          COUNT     PERCENT
 -------------------------------------------------------------------------------

 -------------------------------------------------------------------------------
 -                                                                             -
 -                                GRID STATISTICS                              -
 -                                                                             -
 -------------------------------------------------------------------------------
 LP    KERNEL             BACKEND                              COUNT     PERCENT
 2     collocate ortho    CPU                               11467428      28.83%
 2     integrate ortho    CPU                               11467428      28.83%
 3     collocate ortho    CPU                                7371588      18.53%
 3     integrate ortho    CPU                                7371588      18.53%
 4     collocate ortho    CPU                                1048754       2.64%
 4     integrate ortho    CPU                                1048754       2.64%
 0     collocate general  CPU                                   6144       0.02%
 -------------------------------------------------------------------------------

 MEMORY| Estimated peak process memory [MiB]                                 589

 -------------------------------------------------------------------------------
 -                                                                             -
 -                         MESSAGE PASSING PERFORMANCE                         -
 -                                                                             -
 -------------------------------------------------------------------------------

 ROUTINE             CALLS      AVE VOLUME [Bytes]
 MP_Group                5
 MP_Bcast           335562                   2046.
 MP_Allreduce       834228                    514.
 MP_Sync                 5
 MP_Alltoall           369                4987808.
 MP_SendRecv          1302                  18832.
 MP_ISendRecv         1302                  18832.
 MP_Wait              3696
 MP_ISend             2166                 108220.
 MP_IRecv             2166                 108236.
 -------------------------------------------------------------------------------


 -------------------------------------------------------------------------------
 -                                                                             -
 -                           R E F E R E N C E S                               -
 -                                                                             -
 -------------------------------------------------------------------------------
 
 CP2K version 2024.3 (Development Version), the CP2K developers group (2024).
 CP2K is freely available from https://www.cp2k.org/ .
 
 T. D. Kuehne, M. Iannuzzi, M. Del Ben, V. V. Rybkin, P. Seewald, F. Stein, T. 
 Laino, R. Z. Khaliullin, O. Schuett, F. Schiffmann, D. Golze, J. Wilhelm, S. 
 Chulkov, M. H. Bani-Hashemian, V. Weber, U. Borstnik, M. Taillefumier, A. S. 
 Jakobovits, A. Lazzaro, H. Pabst, T. Mueller, R. Schade, M. Guidon, S. 
 Andermatt, N. Holmberg, G. K. Schenter, A. Hehn, A. Bussy, F. Belleflamme, G. 
 Tabacchi, A. Gloess, M. Lass, I. Bethune, C. J. Mundy, C. Plessl, M. Watkins, 
 J. VandeVondele, M. Krack, J. Hutter.
 J. Chem. Phys. 152, 194103 (2020).
 CP2K: An electronic structure and molecular dynamics software package - 
 Quickstep: Efficient and accurate electronic structure calculations.
 https://doi.org/10.1063/5.0007045

 O. Schuett, J. VandeVondele.
 J. Chem. Theory Comput. 14, 4168-4175 (2018).
 Machine Learning Adaptive Basis Sets for Efficient Large Scale Density 
 Functional Theory Simulation.
 https://doi.org/10.1021/acs.jctc.8b00378

 O. Schuett, P. Messmer, J. Hutter, J. VandeVondele.
 Electronic Structure Calculations on Graphics Processing Units, 173-190 (2016).
 GPU-Accelerated Sparse Matrix-Matrix Multiplication for Linear Scaling Density 
 Functional Theory.
 https://doi.org/10.1002/9781118670712.ch8

 A. Heinecke, G. Henry, M. Hutchinson, H. Pabst.
 Proceedings of Intl. Supercomputing Conference, 981-991 (2016).
 LIBXSMM: Accelerating Small Matrix Multiplications by Runtime Code Generation.
 https://doi.org/10.1109/SC.2016.83

 J. Hutter, M. Iannuzzi, F. Schiffmann, J. VandeVondele.
 WIREs Comput Mol Sci. 4, 15-25 (2014).
 CP2K: atomistic simulations of condensed matter systems.
 https://doi.org/10.1002/wcms.1159

 U. Borstnik, J. VandeVondele, V. Weber, J. Hutter.
 Parallel Comput. 40, 47-58 (2014).
 Sparse matrix multiplication: The distributed block-compressed sparse row 
 library.
 https://doi.org/10.1016/j.parco.2014.03.012

 A. Marek, V. Blum, R. Johanni, V. Havu, B. Lang, T. Auckenthaler, A. Heinecke, 
 H. Bungartz, H. Lederer.
 J. Phys. Condens. Matter 26, 213201 (2014).
 The ELPA library: scalable parallel eigenvalue solutions for electronic 
 structure theory and computational science.
 https://doi.org/10.1088/0953-8984/26/21/213201

 J. VandeVondele, U. Borstnik, J. Hutter.
 J. Chem. Theory Comput. 8, 3565-3573 (2012).
 Linear Scaling Self-Consistent Field Calculations with Millions of Atoms in the 
 Condensed Phase.
 https://doi.org/10.1021/ct200897x

 J. VandeVondele, J. Hutter.
 J. Chem. Phys. 127, 114105 (2007).
 Gaussian basis sets for accurate calculations on molecular systems in gas and 
 condensed phases.
 https://doi.org/10.1063/1.2770708

 J. VandeVondele, M. Krack, F. Mohamed, M. Parrinello, T. Chassaing, J. Hutter.
 Comput. Phys. Commun. 167, 103-128 (2005).
 QUICKSTEP: Fast and accurate density functional calculations using a mixed 
 Gaussian and plane waves approach.
 https://doi.org/10.1016/j.cpc.2004.12.014

 M. Krack.
 Theor. Chem. Acc. 114, 145-152 (2005).
 Pseudopotentials for H to Kr optimized for gradient-corrected 
 exchange-correlation functionals.
 https://doi.org/10.1007/s00214-005-0655-y

 M. Frigo, S. G. Johnson.
 Proc. IEEE 93, 216-231 (2005).
 The design and implementation of FFTW3.
 https://doi.org/10.1109/JPROC.2004.840301

 A. M. N. Niklasson, C. J. Tymczak, M. Challacombe.
 J. Chem. Phys. 118, 8611-8620 (2003).
 Trace resetting density matrix purification in O(N) self-consistent-field 
 theory.
 https://doi.org/10.1063/1.1559913

 C. Hartwigsen, S. Goedecker, J. Hutter.
 Phys. Rev. B 58, 3641-3662 (1998).
 Relativistic separable dual-space Gaussian pseudopotentials from H to Rn.
 https://doi.org/10.1103/PhysRevB.58.3641

 G. Lippert, J. Hutter, M. Parrinello.
 Mol. Phys. 92, 477-487 (1997).
 A hybrid Gaussian and plane wave density functional scheme.
 https://doi.org/10.1080/002689797170220

 S. Goedecker, M. Teter, J. Hutter.
 Phys. Rev. B 54, 1703-1710 (1996).
 Separable dual-space Gaussian pseudopotentials.
 https://doi.org/10.1103/PhysRevB.54.1703

 J. P. Perdew, K. Burke, M. Ernzerhof.
 Phys. Rev. Lett. 77, 3865-3868 (1996).
 Generalized gradient approximation made simple.
 https://doi.org/10.1103/PhysRevLett.77.3865


 -------------------------------------------------------------------------------
 -                                                                             -
 -                                T I M I N G                                  -
 -                                                                             -
 -------------------------------------------------------------------------------
 SUBROUTINE                       CALLS  ASD         SELF TIME        TOTAL TIME
                                MAXIMUM       AVERAGE  MAXIMUM  AVERAGE  MAXIMUM
 CP2K                                 1  1.0    0.012    0.016  439.676  439.677
 qs_energies                          1  2.0    0.000    0.000  439.525  439.526
 ls_scf                               1  3.0    0.000    0.000  438.416  438.416
 pao_update                           6  4.0    0.006    0.028  412.310  412.311
 pao_calc_energy                    819  5.0    0.003    0.020  369.203  369.205
 dbcsr_multiply_generic           50280  8.4    1.399    1.475  349.387  349.648
 multiply_cannon                  50280  9.4    2.592    2.973  282.222  287.987
 multiply_cannon_loop             50280 10.4    1.883    2.194  271.629  275.019
 ls_scf_init_matrix_S               825  7.0    0.009    0.009  210.015  210.061
 pao_rebuild_S                      819  6.0    0.003    0.003  208.444  208.490
 matrix_sqrt_Newton_Schulz          825  8.0    0.170    0.298  194.682  194.715
 multiply_cannon_multrec         402240 11.4  177.715  179.431  178.537  180.231
 pao_dm_trs4                        819  6.0    0.006    0.007  160.367  160.396
 density_matrix_trs4                832  7.0    0.215    0.372  154.164  154.211
 mp_waitall_1                   3219450 12.6   89.925   96.326   89.925   96.326
 multiply_cannon_metrocomm3      402240 11.4    0.704    0.761   71.895   76.662
 arnoldi_extremal                  1657  8.5    0.013    0.015   54.941   54.984
 arnoldi_normal_ev                 1657  9.5    0.034    0.058   54.925   54.967
 make_m2s                        100560  9.4    0.552    0.733   51.696   52.528
 make_images                     100560 10.4    7.374    7.663   50.325   51.247
 build_subspace                    5405 10.7    0.331    0.353   48.384   48.423
 dbcsr_matrix_vector_mult        165464 11.7    0.708    1.067   45.607   46.058
 pao_calc_AB                       1086  5.8    0.002    0.002   42.656   42.659
 pao_calc_AB_equi                  1086  6.8    0.040    0.100   42.654   42.657
 pao_calc_grad_lnv_wrt_AB           266  7.0    0.020    0.023   42.234   42.261
 dbcsr_matrix_vector_mult_local  165464 12.7   38.939   39.240   39.124   39.424
 make_images_data                100560 11.4    0.867    1.042   22.126   24.384
 ls_scf_main                          6  4.0    0.000    0.001   22.833   22.834
 hybrid_alltoall_any             102206 12.4    0.902    1.805   17.332   21.331
 ls_scf_dm_to_ks                     13  5.0    0.000    0.000   20.246   20.247
 matrix_qs_to_ls                   1657  7.5    0.016    0.020   17.205   17.323
 mp_sum_l                        205453  9.5    7.924   13.836    7.924   13.836
 calculate_norms                 751008 11.4   11.683   12.648   11.683   12.648
 qs_ks_update_qs_env                 14  6.0    0.000    0.000   12.156   12.158
 rebuild_ks_matrix                   14  7.0    0.000    0.000   12.146   12.148
 qs_ks_build_kohn_sham_matrix        14  8.0    0.002    0.002   12.145   12.148
 make_images_pack                100560 11.4   11.111   11.550   11.247   11.687
 qs_rho_update_rho_low               14  6.0    0.000    0.000    9.569    9.572
 calculate_rho_elec                  14  7.0    0.005    0.005    9.569    9.572
 sum_up_and_integrate                14  9.0    0.000    0.000    9.197    9.200
 integrate_v_rspace                  14 10.0    0.000    0.000    9.184    9.187
 dbcsr_multiply_generic_mpsum_f   36906  9.5    0.027    0.034    4.519    9.113
 -------------------------------------------------------------------------------

 The number of warnings for this run is : 1
 
 -------------------------------------------------------------------------------
  **** **** ******  **  PROGRAM ENDED AT                 2024-09-24 01:14:51.387
 ***** ** ***  *** **   PROGRAM RAN ON                                    moritz
 **    ****   ******    PROGRAM RAN BY                                       ole
 ***** **    ** ** **   PROGRAM PROCESS ID                                165818
  **** **  *******  **  PROGRAM STOPPED IN /home/ole/git/pao_ml_equivar/64H2O_MD
                                           /Frame2300
