 DBCSR| CPU Multiplication driver                                           XSMM (U)
 DBCSR| Multrec recursion limit                                              512 (U)
 DBCSR| Multiplication stack size                                           1000 (D)
 DBCSR| Maximum elements for images                                    UNLIMITED (U)
 DBCSR| Multiplicative factor virtual images                                   1 (U)
 DBCSR| Use multiplication densification                                       T (D)
 DBCSR| Multiplication size stacks                                             3 (U)
 DBCSR| Use memory pool for CPU allocation                                     F (U)
 DBCSR| OMP: Current number of threads                                         1
 DBCSR| OMP: Max number of threads                                             1
 DBCSR| Split modifier for TAS multiplication algorithm                  1.0E+00 (U)


  **** **** ******  **  PROGRAM STARTED AT               2023-02-01 10:47:55.412
 ***** ** ***  *** **   PROGRAM STARTED ON                                moritz
 **    ****   ******    PROGRAM STARTED BY                                   ole
 ***** **    ** ** **   PROGRAM PROCESS ID                                148703
  **** **  *******  **  PROGRAM STARTED IN /home/ole/git/pao_ml_equivar/2H2O_MD/
                                           frame_0400

 CP2K| version string:                 CP2K version 2023.1 (Development Version)
 CP2K| source code revision number:                                  git:03b4147
 CP2K| cp2kflags: omp libint fftw3 libxc quip xsmm spglib libvori libbqb libtorc
 CP2K|            h
 CP2K| is freely available from                            https://www.cp2k.org/
 CP2K| Program compiled at                           Mi 01 Feb 2023 10:36:52 CET
 CP2K| Program compiled on                                                moritz
 CP2K| Program compiled for                                                local
 CP2K| Data directory path                               /home/ole/git/cp2k/data
 CP2K| Input file name                                            2H2O_pao44.inp

 GLOBAL| Force Environment number                                              1
 GLOBAL| Basis set file name                                        BASIS_MOLOPT
 GLOBAL| Potential file name                                      GTH_POTENTIALS
 GLOBAL| MM Potential file name                                     MM_POTENTIAL
 GLOBAL| Coordinate file name                                         coords.xyz
 GLOBAL| Method name                                                        CP2K
 GLOBAL| Project name                                                 2H2O_pao44
 GLOBAL| Run type                                                         ENERGY
 GLOBAL| FFT library                                                       FFTW3
 GLOBAL| Diagonalization library                                       ScaLAPACK
 GLOBAL| DGEMM library                                                      BLAS
 GLOBAL| Orthonormality check for eigenvectors                          DISABLED
 GLOBAL| Matrix multiplication library                                 ScaLAPACK
 GLOBAL| All-to-all communication in single precision                          F
 GLOBAL| FFTs using library dependent lengths                                  F
 GLOBAL| Grid backend                                                       AUTO
 GLOBAL| Global print level                                                  LOW
 GLOBAL| MPI I/O enabled                                                       T
 GLOBAL| Total number of message passing processes                             1
 GLOBAL| Number of threads for this process                                    1
 GLOBAL| This output is from process                                           0
 GLOBAL| Stack size for threads created by OpenMP (OMP_STACKSIZE)        default
 GLOBAL| CPU model name           AMD Ryzen Threadripper 3970X 32-Core Processor
 GLOBAL| CPUID                                                              1002
 GLOBAL| Compiled for CPUID                                                    0

 *** HINT in environment.F:884 :: The compiler target flags (generic) used ***
 *** to build this binary cannot exploit all extensions of this CPU model  ***
 *** (x86_avx2). Consider compiler target flags as part of FCFLAGS and     ***
 *** CFLAGS (ARCH file).                                                   ***


 MEMORY| system memory details [Kb]
 MEMORY|                        rank 0           min           max       average
 MEMORY| MemTotal            131773860     131773860     131773860     131773860
 MEMORY| MemFree             110101284     110101284     110101284     110101284
 MEMORY| Buffers                302624        302624        302624        302624
 MEMORY| Cached                7056636       7056636       7056636       7056636
 MEMORY| Slab                   780228        780228        780228        780228
 MEMORY| SReclaimable           332704        332704        332704        332704
 MEMORY| MemLikelyFree       117793248     117793248     117793248     117793248


 GENERATE|  Preliminary Number of Bonds generated:                             0
 GENERATE|  Achieved consistency in connectivity generation.

 *******************************************************************************
 *******************************************************************************
 **                                                                           **
 **     #####                         ##              ##                      **
 **    ##   ##            ##          ##              ##                      **
 **   ##     ##                       ##            ######                    **
 **   ##     ##  ##   ##  ##   #####  ##  ##   ####   ##    #####    #####    **
 **   ##     ##  ##   ##  ##  ##      ## ##   ##      ##   ##   ##  ##   ##   **
 **   ##  ## ##  ##   ##  ##  ##      ####     ###    ##   ######   ######    **
 **    ##  ###   ##   ##  ##  ##      ## ##      ##   ##   ##       ##        **
 **     #######   #####   ##   #####  ##  ##  ####    ##    #####   ##        **
 **           ##                                                    ##        **
 **                                                                           **
 **                                                ... make the atoms dance   **
 **                                                                           **
 **            Copyright (C) by CP2K developers group (2000-2023)             **
 **                      J. Chem. Phys. 152, 194103 (2020)                    **
 **                                                                           **
 *******************************************************************************


 TOTAL NUMBERS AND MAXIMUM NUMBERS

  Total number of            - Atomic kinds:                                   2
                             - Atoms:                                          6
                             - Shell sets:                                     6
                             - Shells:                                        22
                             - Primitive Cartesian functions:                 42
                             - Cartesian basis functions:                     48
                             - Spherical basis functions:                     46

  Maximum angular momentum of- Orbital basis functions:                        2
                             - Local part of the GTH pseudopotential:          2
                             - Non-local part of the GTH pseudopotential:      0

 ------------------------------ Linear scaling SCF -----------------------------
 eps_scf:                                                              0.100E-07
 eps_filter:                                                           0.100E-07
 mixing_fraction:                                                      0.450E+00
 max_scf:                                                                     25
 fixed chemical potential (mu)                                                 F
 has unit metric:                                                              F
 Computing inv(S):                                                             T
 Computing sqrt(S):                                                            T
 Computing S preconditioner                                                    F
 S sqrt method:                                                     NEWTONSCHULZ
 S sqrt order:                                                                 3
 Extrapolation order:                                                          1
 Use single precision matrices                                                 F
 S preconditioner type                                                      NONE
 Polarized Atomic Orbitals (PAO)                                               T
 Purification method                                   Trace resetting 4th order
 Cluster type                                                             ATOMIC
 Computing Chebyshev                                                       FALSE
 Using PAO                                                                     T
 -------------------------------------------------------------------------------

 
 PAO|                                  EPS_PAO                           0.5E-06
 PAO|                                  MIXING                            0.5E+00
 PAO|                                  MAX_PAO                              1500
 PAO|                                  MAX_CYCLES                           1000
 PAO|                                  PARAMETERIZATION              EQUIVARIANT
 PAO|                                  PRECONDITION                            F
 PAO|                                  REGULARIZATION                    0.0E+00
 PAO|                                  EPS_PGF                           0.1E-09
 PAO|                                  PENALTY_DISTANCE                  0.1E+00
 PAO|                                  PENALTY_STRENGTH                  0.5E-02
 PAO|                                  LINPOT_PRECONDITION_DELTA         0.0E+00
 PAO|                                  LINPOT_INITGUESS_DELT             0.0E+00
 PAO|                                  LINPOT_REGULARIZATION_DELTA       0.0E+00
 PAO|                                  LINPOT_REGULARIZATION_STRENGTH    0.0E+00
 PAO|                                  OPTIMIZER                              CG
 PAO|                                  CG_INIT_STEPS                           2
 PAO|                                  CG_RESET_LIMIT                    0.1E+00
 PAO|                                  CHECK_UNITARY_TOL                -0.1E+01
 PAO|                                  CHECK_GRADIENT_TOL               -0.1E+01
 PAO|                                  NUM_GRADIENT_ORDER                      2
 PAO|                                  NUM_GRADIENT_EPS                  0.1E-07
 PAO|                                  PRINT%RESTART%WRITE_CYCLES            100
 PAO|                                  RESTART_FILE 
 PAO|                                  PREOPT_DM_FILE 2H2O_ref_LS_DM_SPIN_1_RESTART.dm
 PAO|                                  MACHINE_LEARNING%METHOD       GAUSSIAN_PR
 PAO|                                  MACHINE_LEARNING%PRIOR               ZERO
 PAO|                                  MACHINE_LEARNING%DESCRIPTOR     POTENTIAL
 PAO|                                  MACHINE_LEARNING%TOLERANCE        0.1E-01
 PAO|                                  MACHINE_LEARNING%GP_NOISE_VAR     0.1E+00
 PAO|                                  MACHINE_LEARNING%GP_SCALE         0.5E-01
 

 Calculating atomic Fock matrix for atomic kind: O

 Electronic structure
    Total number of core electrons                                          2.00
    Total number of valence electrons                                       6.00
    Total number of electrons                                               8.00
    Multiplicity                                                   not specified
    S   [  2.00] 2.00
    P      4.00


 *******************************************************************************
                  Iteration          Convergence                     Energy [au]
 *******************************************************************************
                          1        0.708315                     -15.576645311500
                          2        0.608879                     -15.587933561584
                          3        0.102828E-01                 -15.656849565404
                          4        0.113889E-02                 -15.656866888140
                          5        0.434197E-03                 -15.656867072159
                          6        0.263771E-03                 -15.656867091904
                          7        0.478536E-06                 -15.656867103452

 Energy components [Hartree]           Total Energy ::          -15.656867103452
                                        Band Energy ::           -3.000198112285
                                     Kinetic Energy ::           11.759971203220
                                   Potential Energy ::          -27.416838306672
                                      Virial (-V/T) ::            2.331369510426
                                        Core Energy ::          -26.140716385623
                                          XC Energy ::           -3.154051012914
                                     Coulomb Energy ::           13.637900295084
                       Total Pseudopotential Energy ::          -37.935781716540
                       Local Pseudopotential Energy ::          -39.218907440693
                    Nonlocal Pseudopotential Energy ::            1.283125724153
                                        Confinement ::            0.350941276976

 Orbital energies  State     L     Occupation   Energy[a.u.]          Energy[eV]

                       1     0          2.000      -0.864471          -23.523463

                       1     1          4.000      -0.317814           -8.648154


 Total Electron Density at R=0:                                         0.000068

 Calculating atomic Fock matrix for atomic kind: H

 Electronic structure
    Total number of core electrons                                          0.00
    Total number of valence electrons                                       1.00
    Total number of electrons                                               1.00
    Multiplicity                                                   not specified
    S      1.00


 *******************************************************************************
                  Iteration          Convergence                     Energy [au]
 *******************************************************************************
                          1        0.437545E-02                  -0.424159432110
                          2        0.531356E-03                  -0.424178438213
                          3        0.259176E-06                  -0.424178722480

 Energy components [Hartree]           Total Energy ::           -0.424178722480
                                        Band Energy ::           -0.199015229016
                                     Kinetic Energy ::            0.464007633961
                                   Potential Energy ::           -0.888186356441
                                      Virial (-V/T) ::            1.914163240935
                                        Core Energy ::           -0.479160803564
                                          XC Energy ::           -0.244352904054
                                     Coulomb Energy ::            0.299334985138
                       Total Pseudopotential Energy ::           -0.962295316385
                       Local Pseudopotential Energy ::           -0.962295316385
                    Nonlocal Pseudopotential Energy ::            0.000000000000
                                        Confinement ::            0.191268788606

 Orbital energies  State     L     Occupation   Energy[a.u.]          Energy[eV]

                       1     0          1.000      -0.199015           -5.415480


 Total Electron Density at R=0:                                         0.242907
 PAO| Made initial guess for matrix_X with norm:   4.8989794855663558     

     Lanczos converged:  T threshold:   0.100E-02
     Est. extremal eigenvalues:    0.336E+01   0.117E+00
     Est. condition number :    0.288E+02

 Order=           3
     NS sqrt iter    1 1.00000000   0.822E+00       0.001       60.403
     NS sqrt iter    2 1.00000000   0.440E+00       0.001      102.653
     NS sqrt iter    3 1.00000000   0.170E+00       0.001      108.374
     NS sqrt iter    4 1.00000000   0.204E-01       0.001      107.024
     NS sqrt iter    5 1.00000000   0.509E-04       0.001       87.393
     Symmetrizing Results
     Final NS sqrt iter    5 1.00000000   0.501E-08

 PAO| Read restart DM 2H2O_ref_LS_DM_SPIN_1_RESTART.dm with checksum:    54.623504940433207     
 PAO| Quickstep energy from restart density:  -34.448342962205579     
 PAO| ======================= Iteration:         1 =============================

     Lanczos converged:  T threshold:   0.100E-02
     Est. extremal eigenvalues:    0.336E+01   0.117E+00
     Est. condition number :    0.288E+02

 Order=           3
     NS sqrt iter    1 1.00000000   0.822E+00       0.001       58.158
     NS sqrt iter    2 1.00000000   0.440E+00       0.001       98.727
     NS sqrt iter    3 1.00000000   0.170E+00       0.001       98.363
     NS sqrt iter    4 1.00000000   0.204E-01       0.001       99.742
     NS sqrt iter    5 1.00000000   0.509E-04       0.001       80.986
     Symmetrizing Results
     Final NS sqrt iter    5 1.00000000   0.501E-08

     Est. extremal eigenvalues     -0.91278     1.78121  converged:  T
     TRS4 it   1 1.00000000   0.857E+00       0.000       16.128   0.100E-07
     TRS4 it   2 1.00000000   0.664E+00       0.001       32.256   0.100E-07
     TRS4 it   3 1.00000000   0.483E+00       0.001       32.256   0.100E-07
     TRS4 it   4 1.00000000   0.300E+00       0.001       32.256   0.100E-07
     TRS4 it   5 1.00000000   0.145E+00       0.001       32.256   0.100E-07
     TRS4 it   6 1.00000000   0.421E-01       0.001       32.256   0.100E-07
     TRS4 it   7 1.00000000   0.472E-02       0.001       32.256   0.100E-07
     TRS4 it   8 1.00000000   0.811E-04       0.001       32.256   0.100E-07
     TRS4 it   9 1.00000000   0.283E-07       0.001       32.256   0.100E-07
     Final TRS4 iteration    9 1.00000000   0.283E-07
     Chemical potential (mu):      -0.06354
 
 PAO| energy:  -7.5951446045044060      penalty:   5.3617889651740646E-033
 PAO|CG| warming up with steepest descent
 PAO|CG| beta:    0.0000000000000000     
 PAO| norm of gradient:  0.78379026164181098     
 PAO|LS| adapt:  T F F
 PAO|LS| adapt: scan_steps:    0.0000000000000000        0.0000000000000000        0.0000000000000000     
 PAO|LS| adapt: energies:   -7.5951446045044060        0.0000000000000000        0.0000000000000000     
 PAO| ======================= Iteration:         2 =============================

     Lanczos converged:  T threshold:   0.100E-02
     Est. extremal eigenvalues:    0.328E+01   0.131E+00
     Est. condition number :    0.250E+02

 Order=           3
     NS sqrt iter    1 1.00000000   0.806E+00       0.001       58.622
     NS sqrt iter    2 1.00000000   0.425E+00       0.001      100.382
     NS sqrt iter    3 1.00000000   0.152E+00       0.001       99.587
     NS sqrt iter    4 1.00000000   0.140E-01       0.001       98.828
     NS sqrt iter    5 1.00000000   0.151E-04       0.001       76.907
     Symmetrizing Results
     Final NS sqrt iter    5 1.00000000   0.336E-09

     Est. extremal eigenvalues     -0.91647     1.73063  converged:  T
     TRS4 it   1 1.00000000   0.851E+00       0.000       16.128   0.100E-07
     TRS4 it   2 1.00000000   0.646E+00       0.001       32.256   0.100E-07
     TRS4 it   3 1.00000000   0.465E+00       0.001       32.256   0.100E-07
     TRS4 it   4 1.00000000   0.278E+00       0.001       32.256   0.100E-07
     TRS4 it   5 1.00000000   0.125E+00       0.001       32.256   0.100E-07
     TRS4 it   6 1.00000000   0.311E-01       0.001       32.256   0.100E-07
     TRS4 it   7 1.00000000   0.260E-02       0.001       32.256   0.100E-07
     TRS4 it   8 1.00000000   0.249E-04       0.001       32.256   0.100E-07
     TRS4 it   9 1.00000000   0.269E-08       0.001       32.256   0.100E-07
     Final TRS4 iteration    9 1.00000000   0.269E-08
     Chemical potential (mu):      -0.05150
 
 PAO| energy:  -7.6506985324834496      penalty:   2.2457854239191677E-008
 PAO|LS| adapt:  T T F
 PAO|LS| adapt: scan_steps:    0.0000000000000000       0.10000000000000001        0.0000000000000000     
 PAO|LS| adapt: energies:   -7.5951446045044060       -7.6506985324834496        0.0000000000000000     
 PAO| ======================= Iteration:         3 =============================

     Lanczos converged:  T threshold:   0.100E-02
     Est. extremal eigenvalues:    0.318E+01   0.143E+00
     Est. condition number :    0.222E+02

 Order=           3
     NS sqrt iter    1 1.00000000   0.788E+00       0.001       58.171
     NS sqrt iter    2 1.00000000   0.408E+00       0.001       97.227
     NS sqrt iter    3 1.00000000   0.135E+00       0.001       99.129
     NS sqrt iter    4 1.00000000   0.955E-02       0.001       97.825
     NS sqrt iter    5 1.00000000   0.461E-05       0.001       77.014
     Symmetrizing Results
     Final NS sqrt iter    5 1.00000000   0.311E-10

     Est. extremal eigenvalues     -0.91993     1.69368  converged:  T
     TRS4 it   1 1.00000000   0.848E+00       0.000       16.128   0.100E-07
     TRS4 it   2 1.00000000   0.631E+00       0.001       32.256   0.100E-07
     TRS4 it   3 1.00000000   0.448E+00       0.001       32.256   0.100E-07
     TRS4 it   4 1.00000000   0.257E+00       0.001       32.256   0.100E-07
     TRS4 it   5 1.00000000   0.106E+00       0.001       32.256   0.100E-07
     TRS4 it   6 1.00000000   0.223E-01       0.001       32.256   0.100E-07
     TRS4 it   7 1.00000000   0.133E-02       0.001       32.256   0.100E-07
     TRS4 it   8 1.00000000   0.652E-05       0.001       32.256   0.100E-07
     TRS4 it   9 1.00000000   0.185E-09       0.001       32.256   0.100E-07
     Final TRS4 iteration    9 1.00000000   0.185E-09
     Chemical potential (mu):      -0.03823
 
 PAO| energy:  -7.6938248817769948      penalty:   3.5932524777253221E-007
 PAO|LS| adapt:  T T F
 PAO|LS| adapt: scan_steps:    0.0000000000000000       0.20000000000000001        0.0000000000000000     
 PAO|LS| adapt: energies:   -7.5951446045044060       -7.6938248817769948        0.0000000000000000     
 PAO| ======================= Iteration:         4 =============================

     Lanczos converged:  T threshold:   0.100E-02
     Est. extremal eigenvalues:    0.298E+01   0.161E+00
     Est. condition number :    0.186E+02

 Order=           3
     NS sqrt iter    1 1.00000000   0.750E+00       0.001       57.624
     NS sqrt iter    2 1.00000000   0.373E+00       0.001       98.185
     NS sqrt iter    3 1.00000000   0.105E+00       0.001      100.158
     NS sqrt iter    4 1.00000000   0.456E-02       0.001       97.606
     NS sqrt iter    5 1.00000000   0.620E-06       0.001       78.714
     Symmetrizing Results
     Final NS sqrt iter    5 1.00000000   0.651E-12

     Est. extremal eigenvalues     -0.92535     1.64914  converged:  T
     TRS4 it   1 1.00000000   0.848E+00       0.000       16.128   0.100E-07
     TRS4 it   2 1.00000000   0.608E+00       0.001       32.256   0.100E-07
     TRS4 it   3 1.00000000   0.419E+00       0.001       32.256   0.100E-07
     TRS4 it   4 1.00000000   0.220E+00       0.001       32.256   0.100E-07
     TRS4 it   5 1.00000000   0.757E-01       0.001       32.256   0.100E-07
     TRS4 it   6 1.00000000   0.108E-01       0.001       32.256   0.100E-07
     TRS4 it   7 1.00000000   0.293E-03       0.001       32.256   0.100E-07
     TRS4 it   8 1.00000000   0.309E-06       0.001       32.256   0.100E-07
     TRS4 it   9 1.00000000   0.416E-12       0.001       32.256   0.100E-07
     Final TRS4 iteration    9 1.00000000   0.416E-12
     Chemical potential (mu):      -0.00894
 
 PAO| energy:  -7.7411253735401955      penalty:   5.7492006039328320E-006
 PAO|LS| Need extra step
 PAO|LS| adapt:  T T F
 PAO|LS| adapt: scan_steps:    0.0000000000000000       0.40000000000000002        0.0000000000000000     
 PAO|LS| adapt: energies:   -7.5951446045044060       -7.7411253735401955        0.0000000000000000     
 PAO| ======================= Iteration:         5 =============================

     Lanczos converged:  T threshold:   0.100E-02
     Est. extremal eigenvalues:    0.262E+01   0.185E+00
     Est. condition number :    0.141E+02

 Order=           3
     NS sqrt iter    1 1.00000000   0.683E+00       0.001       58.468
     NS sqrt iter    2 1.00000000   0.310E+00       0.001       98.663
     NS sqrt iter    3 1.00000000   0.639E-01       0.001       98.922
     NS sqrt iter    4 1.00000000   0.123E-02       0.001      100.469
     NS sqrt iter    5 1.00000000   0.188E-07       0.001       51.163
     Symmetrizing Results
     Final NS sqrt iter    5 1.00000000   0.517E-09

     Est. extremal eigenvalues     -0.92681     1.61655  converged:  T
     TRS4 it   1 1.00000000   0.855E+00       0.000       16.128   0.100E-07
     TRS4 it   2 1.00000000   0.581E+00       0.001       32.256   0.100E-07
     TRS4 it   3 1.00000000   0.377E+00       0.001       32.256   0.100E-07
     TRS4 it   4 1.00000000   0.169E+00       0.001       32.256   0.100E-07
     TRS4 it   5 1.00000000   0.408E-01       0.001       32.256   0.100E-07
     TRS4 it   6 1.00000000   0.275E-02       0.001       32.256   0.100E-07
     TRS4 it   7 1.00000000   0.154E-04       0.001       32.256   0.100E-07
     TRS4 it   8 1.00000000   0.643E-09       0.001       32.256   0.100E-07
     Final TRS4 iteration    8 1.00000000   0.643E-09
     Chemical potential (mu):       0.04113
 
 PAO| energy:  -7.6859483413312368      penalty:   9.1987182779543425E-005
 PAO|LS| Need extra step
 PAO|LS| adapt:  T T T
 PAO|LS| adapt: scan_steps:    0.0000000000000000       0.40000000000000002       0.80000000000000004     
 PAO|LS| adapt: energies:   -7.5951446045044060       -7.7411253735401955       -7.6859483413312368     
 PAO|LS| adapt: suggested step_size:   0.49028109898293271     
 PAO|LS| adapt: predicted energy  -7.7462490367604975     
 PAO| ======================= Iteration:         6 =============================

     Lanczos converged:  T threshold:   0.100E-02
     Est. extremal eigenvalues:    0.289E+01   0.167E+00
     Est. condition number :    0.174E+02

 Order=           3
     NS sqrt iter    1 1.00000000   0.733E+00       0.001       59.630
     NS sqrt iter    2 1.00000000   0.358E+00       0.001       99.328
     NS sqrt iter    3 1.00000000   0.939E-01       0.001       99.271
     NS sqrt iter    4 1.00000000   0.334E-02       0.001       99.527
     NS sqrt iter    5 1.00000000   0.278E-06       0.001       75.761
     Symmetrizing Results
     Final NS sqrt iter    5 1.00000000   0.401E-09

     Est. extremal eigenvalues     -0.92688     1.63745  converged:  T
     TRS4 it   1 1.00000000   0.849E+00       0.000       16.128   0.100E-07
     TRS4 it   2 1.00000000   0.600E+00       0.001       32.256   0.100E-07
     TRS4 it   3 1.00000000   0.407E+00       0.001       32.256   0.100E-07
     TRS4 it   4 1.00000000   0.206E+00       0.001       32.256   0.100E-07
     TRS4 it   5 1.00000000   0.651E-01       0.001       32.256   0.100E-07
     TRS4 it   6 1.00000000   0.774E-02       0.001       32.256   0.100E-07
     TRS4 it   7 1.00000000   0.142E-03       0.001       32.256   0.100E-07
     TRS4 it   8 1.00000000   0.694E-07       0.001       32.256   0.100E-07
     Final TRS4 iteration    8 1.00000000   0.694E-07
     Chemical potential (mu):       0.00413
 
 PAO| energy:  -7.7455517748204885      penalty:   1.2976215641535896E-005
 PAO|CG| warming up with steepest descent
 PAO|CG| beta:    0.0000000000000000     
 PAO| norm of gradient:  0.42136253840127280     
 PAO| energy improvement: -0.15040717031608253     
 PAO| step      6                   -7.745551775  0.263E-01  0.490E+00     0.092
 PAO|LS| adapt:  T F F
 PAO|LS| adapt: scan_steps:    0.0000000000000000        0.0000000000000000        0.0000000000000000     
 PAO|LS| adapt: energies:   -7.7455517748204885        0.0000000000000000        0.0000000000000000     
 PAO| ======================= Iteration:         7 =============================

     Lanczos converged:  T threshold:   0.100E-02
     Est. extremal eigenvalues:    0.280E+01   0.181E+00
     Est. condition number :    0.155E+02

 Order=           3
     NS sqrt iter    1 1.00000000   0.715E+00       0.001       58.891
     NS sqrt iter    2 1.00000000   0.337E+00       0.001       99.642
     NS sqrt iter    3 1.00000000   0.781E-01       0.001       98.678
     NS sqrt iter    4 1.00000000   0.199E-02       0.001       99.966
     NS sqrt iter    5 1.00000000   0.674E-07       0.001       67.084
     Symmetrizing Results
     Final NS sqrt iter    5 1.00000000   0.524E-09

     Est. extremal eigenvalues     -0.92846     1.63723  converged:  T
     TRS4 it   1 1.00000000   0.852E+00       0.000       16.128   0.100E-07
     TRS4 it   2 1.00000000   0.602E+00       0.001       32.256   0.100E-07
     TRS4 it   3 1.00000000   0.410E+00       0.001       32.256   0.100E-07
     TRS4 it   4 1.00000000   0.210E+00       0.001       32.256   0.100E-07
     TRS4 it   5 1.00000000   0.672E-01       0.001       32.256   0.100E-07
     TRS4 it   6 1.00000000   0.806E-02       0.001       32.256   0.100E-07
     TRS4 it   7 1.00000000   0.146E-03       0.001       32.256   0.100E-07
     TRS4 it   8 1.00000000   0.667E-07       0.001       32.256   0.100E-07
     Final TRS4 iteration    8 1.00000000   0.667E-07
     Chemical potential (mu):       0.00461
 
 PAO| energy:  -7.7387603379438286      penalty:   1.9842646975145716E-005
 PAO|LS| adapt:  T F T
 PAO|LS| adapt: scan_steps:    0.0000000000000000        0.0000000000000000       0.49028109898293271     
 PAO|LS| adapt: energies:   -7.7455517748204885        0.0000000000000000       -7.7387603379438286     
 PAO| ======================= Iteration:         8 =============================

     Lanczos converged:  T threshold:   0.100E-02
     Est. extremal eigenvalues:    0.285E+01   0.174E+00
     Est. condition number :    0.164E+02

 Order=           3
     NS sqrt iter    1 1.00000000   0.724E+00       0.001       58.553
     NS sqrt iter    2 1.00000000   0.347E+00       0.001       98.884
     NS sqrt iter    3 1.00000000   0.858E-01       0.001       98.334
     NS sqrt iter    4 1.00000000   0.259E-02       0.001      102.023
     NS sqrt iter    5 1.00000000   0.140E-06       0.001       71.072
     Symmetrizing Results
     Final NS sqrt iter    5 1.00000000   0.749E-09

     Est. extremal eigenvalues     -0.92852     1.63697  converged:  T
     TRS4 it   1 1.00000000   0.850E+00       0.000       16.128   0.100E-07
     TRS4 it   2 1.00000000   0.600E+00       0.001       32.256   0.100E-07
     TRS4 it   3 1.00000000   0.408E+00       0.001       32.256   0.100E-07
     TRS4 it   4 1.00000000   0.207E+00       0.001       32.256   0.100E-07
     TRS4 it   5 1.00000000   0.659E-01       0.001       32.256   0.100E-07
     TRS4 it   6 1.00000000   0.796E-02       0.001       32.256   0.100E-07
     TRS4 it   7 1.00000000   0.148E-03       0.001       32.256   0.100E-07
     TRS4 it   8 1.00000000   0.720E-07       0.001       32.256   0.100E-07
     Final TRS4 iteration    8 1.00000000   0.720E-07
     Chemical potential (mu):       0.00407
 
 PAO| energy:  -7.7654083408799099      penalty:   1.4099744399410697E-005
 PAO|LS| adapt:  T T T
 PAO|LS| adapt: scan_steps:    0.0000000000000000       0.24514054949146635       0.49028109898293271     
 PAO|LS| adapt: energies:   -7.7455517748204885       -7.7654083408799099       -7.7387603379438286     
 PAO|LS| adapt: suggested step_size:   0.22724062477716542     
 PAO|LS| adapt: predicted energy  -7.7655323169102388     
 PAO| ======================= Iteration:         9 =============================

     Lanczos converged:  T threshold:   0.100E-02
     Est. extremal eigenvalues:    0.285E+01   0.173E+00
     Est. condition number :    0.165E+02

 Order=           3
     NS sqrt iter    1 1.00000000   0.724E+00       0.001       59.795
     NS sqrt iter    2 1.00000000   0.348E+00       0.001       97.773
     NS sqrt iter    3 1.00000000   0.864E-01       0.001       98.674
     NS sqrt iter    4 1.00000000   0.264E-02       0.001       98.271
     NS sqrt iter    5 1.00000000   0.147E-06       0.001       71.928
     Symmetrizing Results
     Final NS sqrt iter    5 1.00000000   0.876E-09

     Est. extremal eigenvalues     -0.92846     1.63698  converged:  T
     TRS4 it   1 1.00000000   0.850E+00       0.000       16.128   0.100E-07
     TRS4 it   2 1.00000000   0.600E+00       0.001       32.256   0.100E-07
     TRS4 it   3 1.00000000   0.408E+00       0.001       32.256   0.100E-07
     TRS4 it   4 1.00000000   0.207E+00       0.001       32.256   0.100E-07
     TRS4 it   5 1.00000000   0.659E-01       0.001       32.256   0.100E-07
     TRS4 it   6 1.00000000   0.795E-02       0.001       32.256   0.100E-07
     TRS4 it   7 1.00000000   0.148E-03       0.001       32.256   0.100E-07
     TRS4 it   8 1.00000000   0.721E-07       0.001       32.256   0.100E-07
     Final TRS4 iteration    8 1.00000000   0.721E-07
     Chemical potential (mu):       0.00405
 
 PAO| energy:  -7.7655570839570434      penalty:   1.3905686672865258E-005
 PAO|CG| trace_G_new    3.6591467796817045E-002
 PAO|CG| trace_G_prev   0.17754638876796411     
 PAO|CG| trace_G_mix   -1.3277766594308417E-003
 PAO|CG| trace_D   0.17754638876796411     
 PAO|CG| trace_D_Gnew   1.3277766594308417E-003
 PAO|CG| beta:   0.21357372976932049     
 PAO| norm of gradient:  0.19128896412709501     
 PAO| energy improvement:  -2.0005309136554850E-002
 PAO| step      9                   -7.765557084  0.120E-01  0.227E+00     0.056
 PAO|LS| adapt:  T F F
 PAO|LS| adapt: scan_steps:    0.0000000000000000        0.0000000000000000        0.0000000000000000     
 PAO|LS| adapt: energies:   -7.7655570839570434        0.0000000000000000        0.0000000000000000     
 PAO| ======================= Iteration:        10 =============================

     Lanczos converged:  T threshold:   0.100E-02
     Est. extremal eigenvalues:    0.281E+01   0.178E+00
     Est. condition number :    0.158E+02

 Order=           3
     NS sqrt iter    1 1.00000000   0.716E+00       0.001       58.616
     NS sqrt iter    2 1.00000000   0.340E+00       0.001       98.955
     NS sqrt iter    3 1.00000000   0.806E-01       0.001      100.120
     NS sqrt iter    4 1.00000000   0.217E-02       0.001      100.666
     NS sqrt iter    5 1.00000000   0.838E-07       0.001       68.382
     Symmetrizing Results
     Final NS sqrt iter    5 1.00000000   0.690E-09

     Est. extremal eigenvalues     -0.92937     1.64202  converged:  T
     TRS4 it   1 1.00000000   0.851E+00       0.000       16.128   0.100E-07
     TRS4 it   2 1.00000000   0.601E+00       0.001       32.256   0.100E-07
     TRS4 it   3 1.00000000   0.409E+00       0.001       32.256   0.100E-07
     TRS4 it   4 1.00000000   0.207E+00       0.001       32.256   0.100E-07
     TRS4 it   5 1.00000000   0.651E-01       0.001       32.256   0.100E-07
     TRS4 it   6 1.00000000   0.772E-02       0.001       32.256   0.100E-07
     TRS4 it   7 1.00000000   0.137E-03       0.001       32.256   0.100E-07
     TRS4 it   8 1.00000000   0.598E-07       0.001       32.256   0.100E-07
     Final TRS4 iteration    8 1.00000000   0.598E-07
     Chemical potential (mu):       0.00643
 
 PAO| energy:  -7.7705387995160047      penalty:   1.4419353892396626E-005
 PAO|LS| adapt:  T T F
 PAO|LS| adapt: scan_steps:    0.0000000000000000       0.22724062477716542        0.0000000000000000     
 PAO|LS| adapt: energies:   -7.7655570839570434       -7.7705387995160047        0.0000000000000000     
 PAO| ======================= Iteration:        11 =============================

     Lanczos converged:  T threshold:   0.100E-02
     Est. extremal eigenvalues:    0.277E+01   0.184E+00
     Est. condition number :    0.151E+02

 Order=           3
     NS sqrt iter    1 1.00000000   0.708E+00       0.001       58.870
     NS sqrt iter    2 1.00000000   0.331E+00       0.001       98.163
     NS sqrt iter    3 1.00000000   0.752E-01       0.001       99.583
     NS sqrt iter    4 1.00000000   0.177E-02       0.001      101.479
     NS sqrt iter    5 1.00000000   0.466E-07       0.001       61.046
     Symmetrizing Results
     Final NS sqrt iter    5 1.00000000   0.475E-08

     Est. extremal eigenvalues     -0.92923     1.64812  converged:  T
     TRS4 it   1 1.00000000   0.853E+00       0.000       16.128   0.100E-07
     TRS4 it   2 1.00000000   0.603E+00       0.001       32.256   0.100E-07
     TRS4 it   3 1.00000000   0.409E+00       0.001       32.256   0.100E-07
     TRS4 it   4 1.00000000   0.206E+00       0.001       32.256   0.100E-07
     TRS4 it   5 1.00000000   0.645E-01       0.001       32.256   0.100E-07
     TRS4 it   6 1.00000000   0.750E-02       0.001       32.256   0.100E-07
     TRS4 it   7 1.00000000   0.127E-03       0.001       32.256   0.100E-07
     TRS4 it   8 1.00000000   0.497E-07       0.001       32.256   0.100E-07
     Final TRS4 iteration    8 1.00000000   0.497E-07
     Chemical potential (mu):       0.00883
 
 PAO| energy:  -7.7692213842074249      penalty:   1.5568313377357034E-005
 PAO|LS| adapt:  T T T
 PAO|LS| adapt: scan_steps:    0.0000000000000000       0.22724062477716542       0.45448124955433084     
 PAO|LS| adapt: energies:   -7.7655570839570434       -7.7705387995160047       -7.7692213842074249     
 PAO|LS| adapt: suggested step_size:   0.29333528892825900     
 PAO|LS| adapt: predicted energy  -7.7708052469157991     
 PAO| ======================= Iteration:        12 =============================

     Lanczos converged:  T threshold:   0.100E-02
     Est. extremal eigenvalues:    0.280E+01   0.180E+00
     Est. condition number :    0.156E+02

 Order=           3
     NS sqrt iter    1 1.00000000   0.714E+00       0.001       58.958
     NS sqrt iter    2 1.00000000   0.337E+00       0.001       97.864
     NS sqrt iter    3 1.00000000   0.790E-01       0.001      100.707
     NS sqrt iter    4 1.00000000   0.205E-02       0.001      100.383
     NS sqrt iter    5 1.00000000   0.708E-07       0.001       67.385
     Symmetrizing Results
     Final NS sqrt iter    5 1.00000000   0.518E-09

     Est. extremal eigenvalues     -0.92943     1.64370  converged:  T
     TRS4 it   1 1.00000000   0.852E+00       0.000       16.128   0.100E-07
     TRS4 it   2 1.00000000   0.602E+00       0.001       32.256   0.100E-07
     TRS4 it   3 1.00000000   0.409E+00       0.001       32.256   0.100E-07
     TRS4 it   4 1.00000000   0.206E+00       0.001       32.256   0.100E-07
     TRS4 it   5 1.00000000   0.649E-01       0.001       32.256   0.100E-07
     TRS4 it   6 1.00000000   0.765E-02       0.001       32.256   0.100E-07
     TRS4 it   7 1.00000000   0.134E-03       0.001       32.256   0.100E-07
     TRS4 it   8 1.00000000   0.567E-07       0.001       32.256   0.100E-07
     Final TRS4 iteration    8 1.00000000   0.567E-07
     Chemical potential (mu):       0.00713
 
 PAO| energy:  -7.7707889544730326      penalty:   1.4680717785458648E-005
 PAO|CG| trace_G_new    1.1029766059757643E-002
 PAO|CG| trace_G_prev    3.6591467796817045E-002
 PAO|CG| trace_G_mix   -4.2986894351549308E-004
 PAO|CG| trace_D    4.4122865838461950E-002
 PAO|CG| trace_D_Gnew   2.0211415893293429E-004
 PAO|CG| beta:   0.31317778961219933     
 PAO| norm of gradient:  0.10502269307039143     
 PAO| energy improvement:  -5.2318705159892787E-003
 PAO| step     12                   -7.770788954  0.656E-02  0.293E+00     0.056
 PAO|LS| adapt:  T F F
 PAO|LS| adapt: scan_steps:    0.0000000000000000        0.0000000000000000        0.0000000000000000     
 PAO|LS| adapt: energies:   -7.7707889544730326        0.0000000000000000        0.0000000000000000     
 PAO| ======================= Iteration:        13 =============================

     Lanczos converged:  T threshold:   0.100E-02
     Est. extremal eigenvalues:    0.277E+01   0.184E+00
     Est. condition number :    0.150E+02

 Order=           3
     NS sqrt iter    1 1.00000000   0.706E+00       0.001       58.497
     NS sqrt iter    2 1.00000000   0.330E+00       0.001       98.768
     NS sqrt iter    3 1.00000000   0.747E-01       0.001      101.021
     NS sqrt iter    4 1.00000000   0.174E-02       0.001       98.437
     NS sqrt iter    5 1.00000000   0.444E-07       0.001       60.552
     Symmetrizing Results
     Final NS sqrt iter    5 1.00000000   0.462E-08

     Est. extremal eigenvalues     -0.92990     1.64159  converged:  T
     TRS4 it   1 1.00000000   0.853E+00       0.000       16.128   0.100E-07
     TRS4 it   2 1.00000000   0.600E+00       0.001       32.256   0.100E-07
     TRS4 it   3 1.00000000   0.406E+00       0.001       32.256   0.100E-07
     TRS4 it   4 1.00000000   0.202E+00       0.001       32.256   0.100E-07
     TRS4 it   5 1.00000000   0.621E-01       0.001       32.256   0.100E-07
     TRS4 it   6 1.00000000   0.693E-02       0.001       32.256   0.100E-07
     TRS4 it   7 1.00000000   0.108E-03       0.001       32.256   0.100E-07
     TRS4 it   8 1.00000000   0.361E-07       0.001       32.256   0.100E-07
     Final TRS4 iteration    8 1.00000000   0.361E-07
     Chemical potential (mu):       0.01103
 
 PAO| energy:  -7.7727053115598510      penalty:   1.4929814826281349E-005
 PAO|LS| adapt:  T T F
 PAO|LS| adapt: scan_steps:    0.0000000000000000       0.29333528892825900        0.0000000000000000     
 PAO|LS| adapt: energies:   -7.7707889544730326       -7.7727053115598510        0.0000000000000000     
 PAO| ======================= Iteration:        14 =============================

     Lanczos converged:  T threshold:   0.100E-02
     Est. extremal eigenvalues:    0.273E+01   0.188E+00
     Est. condition number :    0.145E+02

 Order=           3
     NS sqrt iter    1 1.00000000   0.699E+00       0.001       58.539
     NS sqrt iter    2 1.00000000   0.323E+00       0.001       98.860
     NS sqrt iter    3 1.00000000   0.705E-01       0.001      100.542
     NS sqrt iter    4 1.00000000   0.148E-02       0.001      100.165
     NS sqrt iter    5 1.00000000   0.275E-07       0.001       53.825
     Symmetrizing Results
     Final NS sqrt iter    5 1.00000000   0.523E-08

     Est. extremal eigenvalues     -0.92988     1.63956  converged:  T
     TRS4 it   1 1.00000000   0.853E+00       0.000       16.128   0.100E-07
     TRS4 it   2 1.00000000   0.598E+00       0.001       32.256   0.100E-07
     TRS4 it   3 1.00000000   0.403E+00       0.001       32.256   0.100E-07
     TRS4 it   4 1.00000000   0.199E+00       0.001       32.256   0.100E-07
     TRS4 it   5 1.00000000   0.593E-01       0.001       32.256   0.100E-07
     TRS4 it   6 1.00000000   0.629E-02       0.001       32.256   0.100E-07
     TRS4 it   7 1.00000000   0.879E-04       0.001       32.256   0.100E-07
     TRS4 it   8 1.00000000   0.232E-07       0.001       32.256   0.100E-07
     Final TRS4 iteration    8 1.00000000   0.232E-07
     Chemical potential (mu):       0.01478
 
 PAO| energy:  -7.7720652503446912      penalty:   1.5610166265323576E-005
 PAO|LS| adapt:  T T T
 PAO|LS| adapt: scan_steps:    0.0000000000000000       0.29333528892825900       0.58667057785651799     
 PAO|LS| adapt: energies:   -7.7707889544730326       -7.7727053115598510       -7.7720652503446912     
 PAO|LS| adapt: suggested step_size:   0.36655934188962480     
 PAO|LS| adapt: predicted energy  -7.7727849606508643     
 PAO| ======================= Iteration:        15 =============================

     Lanczos converged:  T threshold:   0.100E-02
     Est. extremal eigenvalues:    0.276E+01   0.185E+00
     Est. condition number :    0.149E+02

 Order=           3
     NS sqrt iter    1 1.00000000   0.704E+00       0.001       58.372
     NS sqrt iter    2 1.00000000   0.328E+00       0.001       97.291
     NS sqrt iter    3 1.00000000   0.736E-01       0.001      101.433
     NS sqrt iter    4 1.00000000   0.167E-02       0.001       99.853
     NS sqrt iter    5 1.00000000   0.395E-07       0.001       59.803
     Symmetrizing Results
     Final NS sqrt iter    5 1.00000000   0.214E-08

     Est. extremal eigenvalues     -0.92994     1.64108  converged:  T
     TRS4 it   1 1.00000000   0.853E+00       0.000       16.128   0.100E-07
     TRS4 it   2 1.00000000   0.599E+00       0.001       32.256   0.100E-07
     TRS4 it   3 1.00000000   0.405E+00       0.001       32.256   0.100E-07
     TRS4 it   4 1.00000000   0.202E+00       0.001       32.256   0.100E-07
     TRS4 it   5 1.00000000   0.614E-01       0.001       32.256   0.100E-07
     TRS4 it   6 1.00000000   0.677E-02       0.001       32.256   0.100E-07
     TRS4 it   7 1.00000000   0.103E-03       0.001       32.256   0.100E-07
     TRS4 it   8 1.00000000   0.323E-07       0.001       32.256   0.100E-07
     Final TRS4 iteration    8 1.00000000   0.323E-07
     Chemical potential (mu):       0.01198
 
 PAO| energy:  -7.7727823234528097      penalty:   1.5056863440849538E-005
 PAO|CG| trace_G_new    2.3301822841450878E-003
 PAO|CG| trace_G_prev    1.1029766059757643E-002
 PAO|CG| trace_G_mix    6.5879989033535176E-005
 PAO|CG| trace_D    1.5230755878275444E-002
 PAO|CG| trace_D_Gnew   3.1383576204104254E-005
 PAO|CG| beta:   0.20529014693910072     
 PAO| norm of gradient:   4.8271961676993075E-002
 PAO| energy improvement:  -1.9933689797770882E-003
 PAO| step     15                   -7.772782323  0.302E-02  0.367E+00     0.056
 PAO|LS| adapt:  T F F
 PAO|LS| adapt: scan_steps:    0.0000000000000000        0.0000000000000000        0.0000000000000000     
 PAO|LS| adapt: energies:   -7.7727823234528097        0.0000000000000000        0.0000000000000000     
 PAO| ======================= Iteration:        16 =============================

     Lanczos converged:  T threshold:   0.100E-02
     Est. extremal eigenvalues:    0.275E+01   0.186E+00
     Est. condition number :    0.148E+02

 Order=           3
     NS sqrt iter    1 1.00000000   0.703E+00       0.001       58.969
     NS sqrt iter    2 1.00000000   0.327E+00       0.001       99.730
     NS sqrt iter    3 1.00000000   0.729E-01       0.001      102.965
     NS sqrt iter    4 1.00000000   0.162E-02       0.001       99.678
     NS sqrt iter    5 1.00000000   0.357E-07       0.001       59.366
     Symmetrizing Results
     Final NS sqrt iter    5 1.00000000   0.402E-09

     Est. extremal eigenvalues     -0.92998     1.64120  converged:  T
     TRS4 it   1 1.00000000   0.853E+00       0.000       16.128   0.100E-07
     TRS4 it   2 1.00000000   0.599E+00       0.001       32.256   0.100E-07
     TRS4 it   3 1.00000000   0.404E+00       0.001       32.256   0.100E-07
     TRS4 it   4 1.00000000   0.200E+00       0.001       32.256   0.100E-07
     TRS4 it   5 1.00000000   0.604E-01       0.001       32.256   0.100E-07
     TRS4 it   6 1.00000000   0.656E-02       0.001       32.256   0.100E-07
     TRS4 it   7 1.00000000   0.970E-04       0.001       32.256   0.100E-07
     TRS4 it   8 1.00000000   0.289E-07       0.001       32.256   0.100E-07
     Final TRS4 iteration    8 1.00000000   0.289E-07
     Chemical potential (mu):       0.01294
 
 PAO| energy:  -7.7728989079674520      penalty:   1.4802746708316857E-005
 PAO|LS| adapt:  T T F
 PAO|LS| adapt: scan_steps:    0.0000000000000000       0.36655934188962480        0.0000000000000000     
 PAO|LS| adapt: energies:   -7.7727823234528097       -7.7728989079674520        0.0000000000000000     
 PAO| ======================= Iteration:        17 =============================

     Lanczos converged:  T threshold:   0.100E-02
     Est. extremal eigenvalues:    0.274E+01   0.186E+00
     Est. condition number :    0.147E+02

 Order=           3
     NS sqrt iter    1 1.00000000   0.701E+00       0.001       59.152
     NS sqrt iter    2 1.00000000   0.326E+00       0.001       98.761
     NS sqrt iter    3 1.00000000   0.722E-01       0.001      101.643
     NS sqrt iter    4 1.00000000   0.157E-02       0.001       99.512
     NS sqrt iter    5 1.00000000   0.322E-07       0.001       57.514
     Symmetrizing Results
     Final NS sqrt iter    5 1.00000000   0.274E-08

     Est. extremal eigenvalues     -0.92987     1.64140  converged:  T
     TRS4 it   1 1.00000000   0.854E+00       0.000       16.128   0.100E-07
     TRS4 it   2 1.00000000   0.598E+00       0.001       32.256   0.100E-07
     TRS4 it   3 1.00000000   0.403E+00       0.001       32.256   0.100E-07
     TRS4 it   4 1.00000000   0.199E+00       0.001       32.256   0.100E-07
     TRS4 it   5 1.00000000   0.594E-01       0.001       32.256   0.100E-07
     TRS4 it   6 1.00000000   0.636E-02       0.001       32.256   0.100E-07
     TRS4 it   7 1.00000000   0.915E-04       0.001       32.256   0.100E-07
     TRS4 it   8 1.00000000   0.259E-07       0.001       32.256   0.100E-07
     Final TRS4 iteration    8 1.00000000   0.259E-07
     Chemical potential (mu):       0.01390
 
 PAO| energy:  -7.7715409308988850      penalty:   1.4653883109868290E-005
 PAO|LS| adapt:  T T T
 PAO|LS| adapt: scan_steps:    0.0000000000000000       0.36655934188962480       0.73311868377924960     
 PAO|LS| adapt: energies:   -7.7727823234528097       -7.7728989079674520       -7.7715409308988850     
 PAO|LS| adapt: suggested step_size:   0.21226126347265709     
 PAO|LS| adapt: predicted energy  -7.7730295447182742     
 PAO| ======================= Iteration:        18 =============================

     Lanczos converged:  T threshold:   0.100E-02
     Est. extremal eigenvalues:    0.275E+01   0.185E+00
     Est. condition number :    0.149E+02

 Order=           3
     NS sqrt iter    1 1.00000000   0.703E+00       0.001       59.262
     NS sqrt iter    2 1.00000000   0.328E+00       0.001       98.732
     NS sqrt iter    3 1.00000000   0.732E-01       0.001      101.963
     NS sqrt iter    4 1.00000000   0.164E-02       0.001       98.461
     NS sqrt iter    5 1.00000000   0.373E-07       0.001       59.078
     Symmetrizing Results
     Final NS sqrt iter    5 1.00000000   0.417E-09

     Est. extremal eigenvalues     -0.92998     1.64114  converged:  T
     TRS4 it   1 1.00000000   0.853E+00       0.000       16.128   0.100E-07
     TRS4 it   2 1.00000000   0.599E+00       0.001       32.256   0.100E-07
     TRS4 it   3 1.00000000   0.404E+00       0.001       32.256   0.100E-07
     TRS4 it   4 1.00000000   0.201E+00       0.001       32.256   0.100E-07
     TRS4 it   5 1.00000000   0.608E-01       0.001       32.256   0.100E-07
     TRS4 it   6 1.00000000   0.664E-02       0.001       32.256   0.100E-07
     TRS4 it   7 1.00000000   0.994E-04       0.001       32.256   0.100E-07
     TRS4 it   8 1.00000000   0.303E-07       0.001       32.256   0.100E-07
     Final TRS4 iteration    8 1.00000000   0.303E-07
     Chemical potential (mu):       0.01254
 
 PAO| energy:  -7.7730292065379141      penalty:   1.4897063569097665E-005
 PAO|CG| trace_G_new    6.3791203110474663E-004
 PAO|CG| trace_G_prev    2.3301822841450878E-003
 PAO|CG| trace_G_mix    1.8198402654699459E-006
 PAO|CG| trace_D    2.9591824586450099E-003
 PAO|CG| trace_D_Gnew  -1.3252760458025456E-006
 PAO|CG| beta:   0.27297958411551920     
 PAO| norm of gradient:   2.5256920459643267E-002
 PAO| energy improvement:  -2.4688308510434354E-004
 PAO| step     18                   -7.773029207  0.158E-02  0.212E+00     0.056
 PAO|LS| adapt:  T F F
 PAO|LS| adapt: scan_steps:    0.0000000000000000        0.0000000000000000        0.0000000000000000     
 PAO|LS| adapt: energies:   -7.7730292065379141        0.0000000000000000        0.0000000000000000     
 PAO| ======================= Iteration:        19 =============================

     Lanczos converged:  T threshold:   0.100E-02
     Est. extremal eigenvalues:    0.275E+01   0.185E+00
     Est. condition number :    0.149E+02

 Order=           3
     NS sqrt iter    1 1.00000000   0.703E+00       0.001       58.402
     NS sqrt iter    2 1.00000000   0.328E+00       0.001       99.037
     NS sqrt iter    3 1.00000000   0.734E-01       0.001      100.921
     NS sqrt iter    4 1.00000000   0.165E-02       0.001       98.388
     NS sqrt iter    5 1.00000000   0.375E-07       0.001       59.102
     Symmetrizing Results
     Final NS sqrt iter    5 1.00000000   0.210E-08

     Est. extremal eigenvalues     -0.92998     1.64153  converged:  T
     TRS4 it   1 1.00000000   0.853E+00       0.000       16.128   0.100E-07
     TRS4 it   2 1.00000000   0.599E+00       0.001       32.256   0.100E-07
     TRS4 it   3 1.00000000   0.404E+00       0.001       32.256   0.100E-07
     TRS4 it   4 1.00000000   0.201E+00       0.001       32.256   0.100E-07
     TRS4 it   5 1.00000000   0.607E-01       0.001       32.256   0.100E-07
     TRS4 it   6 1.00000000   0.664E-02       0.001       32.256   0.100E-07
     TRS4 it   7 1.00000000   0.997E-04       0.001       32.256   0.100E-07
     TRS4 it   8 1.00000000   0.307E-07       0.001       32.256   0.100E-07
     Final TRS4 iteration    8 1.00000000   0.307E-07
     Chemical potential (mu):       0.01244
 
 PAO| energy:  -7.7731320699122630      penalty:   1.4605784134092952E-005
 PAO|LS| adapt:  T T F
 PAO|LS| adapt: scan_steps:    0.0000000000000000       0.21226126347265709        0.0000000000000000     
 PAO|LS| adapt: energies:   -7.7730292065379141       -7.7731320699122630        0.0000000000000000     
 PAO| ======================= Iteration:        20 =============================

     Lanczos converged:  T threshold:   0.100E-02
     Est. extremal eigenvalues:    0.275E+01   0.185E+00
     Est. condition number :    0.149E+02

 Order=           3
     NS sqrt iter    1 1.00000000   0.703E+00       0.001       58.793
     NS sqrt iter    2 1.00000000   0.328E+00       0.001       97.917
     NS sqrt iter    3 1.00000000   0.735E-01       0.001      100.315
     NS sqrt iter    4 1.00000000   0.166E-02       0.001       98.838
     NS sqrt iter    5 1.00000000   0.377E-07       0.001       59.522
     Symmetrizing Results
     Final NS sqrt iter    5 1.00000000   0.214E-08

     Est. extremal eigenvalues     -0.92998     1.64192  converged:  T
     TRS4 it   1 1.00000000   0.853E+00       0.000       16.128   0.100E-07
     TRS4 it   2 1.00000000   0.599E+00       0.001       32.256   0.100E-07
     TRS4 it   3 1.00000000   0.404E+00       0.001       32.256   0.100E-07
     TRS4 it   4 1.00000000   0.200E+00       0.001       32.256   0.100E-07
     TRS4 it   5 1.00000000   0.606E-01       0.001       32.256   0.100E-07
     TRS4 it   6 1.00000000   0.664E-02       0.001       32.256   0.100E-07
     TRS4 it   7 1.00000000   0.100E-03       0.001       32.256   0.100E-07
     TRS4 it   8 1.00000000   0.311E-07       0.001       32.256   0.100E-07
     Final TRS4 iteration    8 1.00000000   0.311E-07
     Chemical potential (mu):       0.01234
 
 PAO| energy:  -7.7731694057270415      penalty:   1.4325665060506963E-005
 PAO|LS| adapt:  T T F
 PAO|LS| adapt: scan_steps:    0.0000000000000000       0.42452252694531417        0.0000000000000000     
 PAO|LS| adapt: energies:   -7.7730292065379141       -7.7731694057270415        0.0000000000000000     
 PAO| ======================= Iteration:        21 =============================

     Lanczos converged:  T threshold:   0.100E-02
     Est. extremal eigenvalues:    0.275E+01   0.185E+00
     Est. condition number :    0.149E+02

 Order=           3
     NS sqrt iter    1 1.00000000   0.703E+00       0.001       58.723
     NS sqrt iter    2 1.00000000   0.328E+00       0.001       98.500
     NS sqrt iter    3 1.00000000   0.739E-01       0.001      101.015
     NS sqrt iter    4 1.00000000   0.167E-02       0.001       99.247
     NS sqrt iter    5 1.00000000   0.383E-07       0.001       59.616
     Symmetrizing Results
     Final NS sqrt iter    5 1.00000000   0.376E-08

     Est. extremal eigenvalues     -0.92997     1.64270  converged:  T
     TRS4 it   1 1.00000000   0.854E+00       0.000       16.128   0.100E-07
     TRS4 it   2 1.00000000   0.599E+00       0.001       32.256   0.100E-07
     TRS4 it   3 1.00000000   0.404E+00       0.001       32.256   0.100E-07
     TRS4 it   4 1.00000000   0.200E+00       0.001       32.256   0.100E-07
     TRS4 it   5 1.00000000   0.605E-01       0.001       32.256   0.100E-07
     TRS4 it   6 1.00000000   0.663E-02       0.001       32.256   0.100E-07
     TRS4 it   7 1.00000000   0.101E-03       0.001       32.256   0.100E-07
     TRS4 it   8 1.00000000   0.318E-07       0.001       32.256   0.100E-07
     Final TRS4 iteration    8 1.00000000   0.318E-07
     Chemical potential (mu):       0.01213
 
 PAO| energy:  -7.7730457291243660      penalty:   1.3798326191071218E-005
 PAO|LS| Need extra step
 PAO|LS| adapt:  T T T
 PAO|LS| adapt: scan_steps:    0.0000000000000000       0.42452252694531417       0.84904505389062834     
 PAO|LS| adapt: energies:   -7.7730292065379141       -7.7731694057270415       -7.7730457291243660     
 PAO|LS| adapt: suggested step_size:   0.43781326897267037     
 PAO|LS| adapt: predicted energy  -7.7731695350472894     
 PAO| ======================= Iteration:        22 =============================

     Lanczos converged:  T threshold:   0.100E-02
     Est. extremal eigenvalues:    0.275E+01   0.185E+00
     Est. condition number :    0.149E+02

 Order=           3
     NS sqrt iter    1 1.00000000   0.703E+00       0.001       58.741
     NS sqrt iter    2 1.00000000   0.328E+00       0.001       97.435
     NS sqrt iter    3 1.00000000   0.736E-01       0.001      101.859
     NS sqrt iter    4 1.00000000   0.166E-02       0.001       99.264
     NS sqrt iter    5 1.00000000   0.378E-07       0.001       58.168
     Symmetrizing Results
     Final NS sqrt iter    5 1.00000000   0.214E-08

     Est. extremal eigenvalues     -0.92998     1.64194  converged:  T
     TRS4 it   1 1.00000000   0.854E+00       0.000       16.128   0.100E-07
     TRS4 it   2 1.00000000   0.599E+00       0.001       32.256   0.100E-07
     TRS4 it   3 1.00000000   0.404E+00       0.001       32.256   0.100E-07
     TRS4 it   4 1.00000000   0.200E+00       0.001       32.256   0.100E-07
     TRS4 it   5 1.00000000   0.606E-01       0.001       32.256   0.100E-07
     TRS4 it   6 1.00000000   0.664E-02       0.001       32.256   0.100E-07
     TRS4 it   7 1.00000000   0.100E-03       0.001       32.256   0.100E-07
     TRS4 it   8 1.00000000   0.311E-07       0.001       32.256   0.100E-07
     Final TRS4 iteration    8 1.00000000   0.311E-07
     Chemical potential (mu):       0.01233
 
 PAO| energy:  -7.7731695534615026      penalty:   1.4308492814552863E-005
 PAO|CG| trace_G_new    2.0516536221197032E-004
 PAO|CG| trace_G_prev    6.3791203110474663E-004
 PAO|CG| trace_G_mix    1.9511985051286347E-006
 PAO|CG| trace_D    8.5914750218348619E-004
 PAO|CG| trace_D_Gnew  -1.3854015820232683E-006
 PAO|CG| beta:   0.31856142194859066     
 PAO| norm of gradient:   1.4323594598143663E-002
 PAO| energy improvement:  -1.4034692358855239E-004
 PAO| step     22                   -7.773169553  0.895E-03  0.438E+00     0.073
 PAO|LS| adapt:  T F F
 PAO|LS| adapt: scan_steps:    0.0000000000000000        0.0000000000000000        0.0000000000000000     
 PAO|LS| adapt: energies:   -7.7731695534615026        0.0000000000000000        0.0000000000000000     
 PAO| ======================= Iteration:        23 =============================

     Lanczos converged:  T threshold:   0.100E-02
     Est. extremal eigenvalues:    0.275E+01   0.185E+00
     Est. condition number :    0.149E+02

 Order=           3
     NS sqrt iter    1 1.00000000   0.703E+00       0.001       57.878
     NS sqrt iter    2 1.00000000   0.328E+00       0.001       99.098
     NS sqrt iter    3 1.00000000   0.736E-01       0.001       97.778
     NS sqrt iter    4 1.00000000   0.166E-02       0.001       99.970
     NS sqrt iter    5 1.00000000   0.378E-07       0.001       59.935
     Symmetrizing Results
     Final NS sqrt iter    5 1.00000000   0.364E-08

     Est. extremal eigenvalues     -0.92998     1.64212  converged:  T
     TRS4 it   1 1.00000000   0.854E+00       0.000       16.128   0.100E-07
     TRS4 it   2 1.00000000   0.599E+00       0.001       32.256   0.100E-07
     TRS4 it   3 1.00000000   0.404E+00       0.001       32.256   0.100E-07
     TRS4 it   4 1.00000000   0.201E+00       0.001       32.256   0.100E-07
     TRS4 it   5 1.00000000   0.608E-01       0.001       32.256   0.100E-07
     TRS4 it   6 1.00000000   0.667E-02       0.001       32.256   0.100E-07
     TRS4 it   7 1.00000000   0.101E-03       0.001       32.256   0.100E-07
     TRS4 it   8 1.00000000   0.321E-07       0.001       32.256   0.100E-07
     Final TRS4 iteration    8 1.00000000   0.321E-07
     Chemical potential (mu):       0.01205
 
 PAO| energy:  -7.7732155841860147      penalty:   1.3631177060047414E-005
 PAO|LS| adapt:  T T F
 PAO|LS| adapt: scan_steps:    0.0000000000000000       0.43781326897267037        0.0000000000000000     
 PAO|LS| adapt: energies:   -7.7731695534615026       -7.7732155841860147        0.0000000000000000     
 PAO| ======================= Iteration:        24 =============================

     Lanczos converged:  T threshold:   0.100E-02
     Est. extremal eigenvalues:    0.275E+01   0.185E+00
     Est. condition number :    0.149E+02

 Order=           3
     NS sqrt iter    1 1.00000000   0.703E+00       0.001       58.879
     NS sqrt iter    2 1.00000000   0.328E+00       0.001       98.348
     NS sqrt iter    3 1.00000000   0.737E-01       0.001      100.728
     NS sqrt iter    4 1.00000000   0.166E-02       0.001       98.020
     NS sqrt iter    5 1.00000000   0.378E-07       0.001       58.592
     Symmetrizing Results
     Final NS sqrt iter    5 1.00000000   0.369E-08

     Est. extremal eigenvalues     -0.92998     1.64230  converged:  T
     TRS4 it   1 1.00000000   0.854E+00       0.000       16.128   0.100E-07
     TRS4 it   2 1.00000000   0.599E+00       0.001       32.256   0.100E-07
     TRS4 it   3 1.00000000   0.404E+00       0.001       32.256   0.100E-07
     TRS4 it   4 1.00000000   0.201E+00       0.001       32.256   0.100E-07
     TRS4 it   5 1.00000000   0.609E-01       0.001       32.256   0.100E-07
     TRS4 it   6 1.00000000   0.671E-02       0.001       32.256   0.100E-07
     TRS4 it   7 1.00000000   0.103E-03       0.001       32.256   0.100E-07
     TRS4 it   8 1.00000000   0.331E-07       0.001       32.256   0.100E-07
     Final TRS4 iteration    8 1.00000000   0.331E-07
     Chemical potential (mu):       0.01177
 
 PAO| energy:  -7.7731731069399093      penalty:   1.2980752867259569E-005
 PAO|LS| adapt:  T T T
 PAO|LS| adapt: scan_steps:    0.0000000000000000       0.43781326897267037       0.87562653794534073     
 PAO|LS| adapt: energies:   -7.7731695534615026       -7.7732155841860147       -7.7731731069399093     
 PAO|LS| adapt: suggested step_size:   0.44660208192691936     
 PAO|LS| adapt: predicted energy  -7.7732156020194489     
 PAO| ======================= Iteration:        25 =============================

     Lanczos converged:  T threshold:   0.100E-02
     Est. extremal eigenvalues:    0.275E+01   0.185E+00
     Est. condition number :    0.149E+02

 Order=           3
     NS sqrt iter    1 1.00000000   0.703E+00       0.001       58.391
     NS sqrt iter    2 1.00000000   0.328E+00       0.001       99.187
     NS sqrt iter    3 1.00000000   0.736E-01       0.001       99.387
     NS sqrt iter    4 1.00000000   0.166E-02       0.001       99.053
     NS sqrt iter    5 1.00000000   0.378E-07       0.001       58.754
     Symmetrizing Results
     Final NS sqrt iter    5 1.00000000   0.364E-08

     Est. extremal eigenvalues     -0.92998     1.64212  converged:  T
     TRS4 it   1 1.00000000   0.854E+00       0.000       16.128   0.100E-07
     TRS4 it   2 1.00000000   0.599E+00       0.001       32.256   0.100E-07
     TRS4 it   3 1.00000000   0.404E+00       0.001       32.256   0.100E-07
     TRS4 it   4 1.00000000   0.201E+00       0.001       32.256   0.100E-07
     TRS4 it   5 1.00000000   0.608E-01       0.001       32.256   0.100E-07
     TRS4 it   6 1.00000000   0.667E-02       0.001       32.256   0.100E-07
     TRS4 it   7 1.00000000   0.101E-03       0.001       32.256   0.100E-07
     TRS4 it   8 1.00000000   0.321E-07       0.001       32.256   0.100E-07
     Final TRS4 iteration    8 1.00000000   0.321E-07
     Chemical potential (mu):       0.01205
 
 PAO| energy:  -7.7732156047167615      penalty:   1.3617857590611071E-005
 PAO|CG| trace_G_new    7.6411964513120492E-005
 PAO|CG| trace_G_prev    2.0516536221197032E-004
 PAO|CG| trace_G_mix    7.3340398686807144E-007
 PAO|CG| trace_D    2.9323550696972313E-004
 PAO|CG| trace_D_Gnew  -3.0986931676424169E-007
 PAO|CG| beta:   0.36886616585924353     
 PAO| norm of gradient:   8.7413937397374155E-003
 PAO| energy improvement:  -4.6051255258916513E-005
 PAO| step     25                   -7.773215605  0.546E-03  0.447E+00     0.056
 PAO|LS| adapt:  T F F
 PAO|LS| adapt: scan_steps:    0.0000000000000000        0.0000000000000000        0.0000000000000000     
 PAO|LS| adapt: energies:   -7.7732156047167615        0.0000000000000000        0.0000000000000000     
 PAO| ======================= Iteration:        26 =============================

     Lanczos converged:  T threshold:   0.100E-02
     Est. extremal eigenvalues:    0.275E+01   0.185E+00
     Est. condition number :    0.149E+02

 Order=           3
     NS sqrt iter    1 1.00000000   0.703E+00       0.001       58.516
     NS sqrt iter    2 1.00000000   0.328E+00       0.001       98.814
     NS sqrt iter    3 1.00000000   0.735E-01       0.001       98.413
     NS sqrt iter    4 1.00000000   0.165E-02       0.001       99.209
     NS sqrt iter    5 1.00000000   0.376E-07       0.001       58.883
     Symmetrizing Results
     Final NS sqrt iter    5 1.00000000   0.216E-08

     Est. extremal eigenvalues     -0.92998     1.64218  converged:  T
     TRS4 it   1 1.00000000   0.854E+00       0.000       16.128   0.100E-07
     TRS4 it   2 1.00000000   0.599E+00       0.001       32.256   0.100E-07
     TRS4 it   3 1.00000000   0.404E+00       0.001       32.256   0.100E-07
     TRS4 it   4 1.00000000   0.200E+00       0.001       32.256   0.100E-07
     TRS4 it   5 1.00000000   0.607E-01       0.001       32.256   0.100E-07
     TRS4 it   6 1.00000000   0.667E-02       0.001       32.256   0.100E-07
     TRS4 it   7 1.00000000   0.101E-03       0.001       32.256   0.100E-07
     TRS4 it   8 1.00000000   0.319E-07       0.001       32.256   0.100E-07
     Final TRS4 iteration    8 1.00000000   0.319E-07
     Chemical potential (mu):       0.01210
 
 PAO| energy:  -7.7732181450146349      penalty:   1.2884723028521126E-005
 PAO|LS| adapt:  T T F
 PAO|LS| adapt: scan_steps:    0.0000000000000000       0.44660208192691936        0.0000000000000000     
 PAO|LS| adapt: energies:   -7.7732156047167615       -7.7732181450146349        0.0000000000000000     
 PAO| ======================= Iteration:        27 =============================

     Lanczos converged:  T threshold:   0.100E-02
     Est. extremal eigenvalues:    0.275E+01   0.185E+00
     Est. condition number :    0.149E+02

 Order=           3
     NS sqrt iter    1 1.00000000   0.703E+00       0.001       58.332
     NS sqrt iter    2 1.00000000   0.328E+00       0.001       99.191
     NS sqrt iter    3 1.00000000   0.734E-01       0.001      100.517
     NS sqrt iter    4 1.00000000   0.165E-02       0.001       97.913
     NS sqrt iter    5 1.00000000   0.375E-07       0.001       58.903
     Symmetrizing Results
     Final NS sqrt iter    5 1.00000000   0.214E-08

     Est. extremal eigenvalues     -0.92999     1.64224  converged:  T
     TRS4 it   1 1.00000000   0.854E+00       0.000       16.128   0.100E-07
     TRS4 it   2 1.00000000   0.599E+00       0.001       32.256   0.100E-07
     TRS4 it   3 1.00000000   0.404E+00       0.001       32.256   0.100E-07
     TRS4 it   4 1.00000000   0.200E+00       0.001       32.256   0.100E-07
     TRS4 it   5 1.00000000   0.607E-01       0.001       32.256   0.100E-07
     TRS4 it   6 1.00000000   0.666E-02       0.001       32.256   0.100E-07
     TRS4 it   7 1.00000000   0.101E-03       0.001       32.256   0.100E-07
     TRS4 it   8 1.00000000   0.317E-07       0.001       32.256   0.100E-07
     Final TRS4 iteration    8 1.00000000   0.317E-07
     Chemical potential (mu):       0.01216
 
 PAO| energy:  -7.7731572995008991      penalty:   1.2175892605398948E-005
 PAO|LS| adapt:  T T T
 PAO|LS| adapt: scan_steps:    0.0000000000000000       0.44660208192691936       0.89320416385383872     
 PAO|LS| adapt: energies:   -7.7732156047167615       -7.7732181450146349       -7.7731572995008991     
 PAO|LS| adapt: suggested step_size:   0.24119940481124547     
 PAO|LS| adapt: predicted energy  -7.7732248489956017     
 PAO| ======================= Iteration:        28 =============================

     Lanczos converged:  T threshold:   0.100E-02
     Est. extremal eigenvalues:    0.275E+01   0.185E+00
     Est. condition number :    0.149E+02

 Order=           3
     NS sqrt iter    1 1.00000000   0.703E+00       0.001       57.342
     NS sqrt iter    2 1.00000000   0.328E+00       0.001      100.681
     NS sqrt iter    3 1.00000000   0.736E-01       0.001       99.812
     NS sqrt iter    4 1.00000000   0.166E-02       0.001       98.268
     NS sqrt iter    5 1.00000000   0.377E-07       0.001       58.943
     Symmetrizing Results
     Final NS sqrt iter    5 1.00000000   0.298E-08

     Est. extremal eigenvalues     -0.92998     1.64215  converged:  T
     TRS4 it   1 1.00000000   0.854E+00       0.000       16.128   0.100E-07
     TRS4 it   2 1.00000000   0.599E+00       0.001       32.256   0.100E-07
     TRS4 it   3 1.00000000   0.404E+00       0.001       32.256   0.100E-07
     TRS4 it   4 1.00000000   0.200E+00       0.001       32.256   0.100E-07
     TRS4 it   5 1.00000000   0.607E-01       0.001       32.256   0.100E-07
     TRS4 it   6 1.00000000   0.667E-02       0.001       32.256   0.100E-07
     TRS4 it   7 1.00000000   0.101E-03       0.001       32.256   0.100E-07
     TRS4 it   8 1.00000000   0.320E-07       0.001       32.256   0.100E-07
     Final TRS4 iteration    8 1.00000000   0.320E-07
     Chemical potential (mu):       0.01208
 
 PAO| energy:  -7.7732248388333280      penalty:   1.3218871333722876E-005
 PAO|CG| trace_G_new    2.5141028197855657E-005
 PAO|CG| trace_G_prev    7.6411964513120492E-005
 PAO|CG| trace_G_mix    5.1093750140799548E-008
 PAO|CG| trace_D    1.1653884749099932E-004
 PAO|CG| trace_D_Gnew  -2.2549624278367862E-008
 PAO|CG| beta:   0.32835086242818340     
 PAO| norm of gradient:   5.0140829867340309E-003
 PAO| energy improvement:  -9.2341165665033031E-006
 PAO| step     28                   -7.773224839  0.313E-03  0.241E+00     0.056
 PAO|LS| adapt:  T F F
 PAO|LS| adapt: scan_steps:    0.0000000000000000        0.0000000000000000        0.0000000000000000     
 PAO|LS| adapt: energies:   -7.7732248388333280        0.0000000000000000        0.0000000000000000     
 PAO| ======================= Iteration:        29 =============================

     Lanczos converged:  T threshold:   0.100E-02
     Est. extremal eigenvalues:    0.275E+01   0.185E+00
     Est. condition number :    0.149E+02

 Order=           3
     NS sqrt iter    1 1.00000000   0.703E+00       0.001       57.965
     NS sqrt iter    2 1.00000000   0.328E+00       0.001       98.789
     NS sqrt iter    3 1.00000000   0.735E-01       0.001       95.450
     NS sqrt iter    4 1.00000000   0.165E-02       0.001       98.432
     NS sqrt iter    5 1.00000000   0.377E-07       0.001       58.399
     Symmetrizing Results
     Final NS sqrt iter    5 1.00000000   0.215E-08

     Est. extremal eigenvalues     -0.92999     1.64225  converged:  T
     TRS4 it   1 1.00000000   0.854E+00       0.000       16.128   0.100E-07
     TRS4 it   2 1.00000000   0.599E+00       0.001       32.256   0.100E-07
     TRS4 it   3 1.00000000   0.404E+00       0.001       32.256   0.100E-07
     TRS4 it   4 1.00000000   0.200E+00       0.001       32.256   0.100E-07
     TRS4 it   5 1.00000000   0.607E-01       0.001       32.256   0.100E-07
     TRS4 it   6 1.00000000   0.666E-02       0.001       32.256   0.100E-07
     TRS4 it   7 1.00000000   0.101E-03       0.001       32.256   0.100E-07
     TRS4 it   8 1.00000000   0.317E-07       0.001       32.256   0.100E-07
     Final TRS4 iteration    8 1.00000000   0.317E-07
     Chemical potential (mu):       0.01217
 
 PAO| energy:  -7.7732301107841613      penalty:   1.2832316646177948E-005
 PAO|LS| adapt:  T T F
 PAO|LS| adapt: scan_steps:    0.0000000000000000       0.24119940481124547        0.0000000000000000     
 PAO|LS| adapt: energies:   -7.7732248388333280       -7.7732301107841613        0.0000000000000000     
 PAO| ======================= Iteration:        30 =============================

     Lanczos converged:  T threshold:   0.100E-02
     Est. extremal eigenvalues:    0.275E+01   0.185E+00
     Est. condition number :    0.149E+02

 Order=           3
     NS sqrt iter    1 1.00000000   0.703E+00       0.001       58.611
     NS sqrt iter    2 1.00000000   0.328E+00       0.001       99.754
     NS sqrt iter    3 1.00000000   0.734E-01       0.001      100.134
     NS sqrt iter    4 1.00000000   0.165E-02       0.001       98.490
     NS sqrt iter    5 1.00000000   0.377E-07       0.001       59.072
     Symmetrizing Results
     Final NS sqrt iter    5 1.00000000   0.214E-08

     Est. extremal eigenvalues     -0.92999     1.64235  converged:  T
     TRS4 it   1 1.00000000   0.854E+00       0.000       16.128   0.100E-07
     TRS4 it   2 1.00000000   0.599E+00       0.001       32.256   0.100E-07
     TRS4 it   3 1.00000000   0.404E+00       0.001       32.256   0.100E-07
     TRS4 it   4 1.00000000   0.200E+00       0.001       32.256   0.100E-07
     TRS4 it   5 1.00000000   0.606E-01       0.001       32.256   0.100E-07
     TRS4 it   6 1.00000000   0.664E-02       0.001       32.256   0.100E-07
     TRS4 it   7 1.00000000   0.100E-03       0.001       32.256   0.100E-07
     TRS4 it   8 1.00000000   0.313E-07       0.001       32.256   0.100E-07
     Final TRS4 iteration    8 1.00000000   0.313E-07
     Chemical potential (mu):       0.01227
 
 PAO| energy:  -7.7732337943890091      penalty:   1.2452041894272457E-005
 PAO|LS| adapt:  T T F
 PAO|LS| adapt: scan_steps:    0.0000000000000000       0.48239880962249093        0.0000000000000000     
 PAO|LS| adapt: energies:   -7.7732248388333280       -7.7732337943890091        0.0000000000000000     
 PAO| ======================= Iteration:        31 =============================

     Lanczos converged:  T threshold:   0.100E-02
     Est. extremal eigenvalues:    0.275E+01   0.185E+00
     Est. condition number :    0.149E+02

 Order=           3
     NS sqrt iter    1 1.00000000   0.702E+00       0.001       58.075
     NS sqrt iter    2 1.00000000   0.327E+00       0.001      100.368
     NS sqrt iter    3 1.00000000   0.733E-01       0.001      100.146
     NS sqrt iter    4 1.00000000   0.165E-02       0.001       98.436
     NS sqrt iter    5 1.00000000   0.377E-07       0.001       58.102
     Symmetrizing Results
     Final NS sqrt iter    5 1.00000000   0.212E-08

     Est. extremal eigenvalues     -0.92999     1.64253  converged:  T
     TRS4 it   1 1.00000000   0.854E+00       0.000       16.128   0.100E-07
     TRS4 it   2 1.00000000   0.599E+00       0.001       32.256   0.100E-07
     TRS4 it   3 1.00000000   0.404E+00       0.001       32.256   0.100E-07
     TRS4 it   4 1.00000000   0.200E+00       0.001       32.256   0.100E-07
     TRS4 it   5 1.00000000   0.605E-01       0.001       32.256   0.100E-07
     TRS4 it   6 1.00000000   0.662E-02       0.001       32.256   0.100E-07
     TRS4 it   7 1.00000000   0.996E-04       0.001       32.256   0.100E-07
     TRS4 it   8 1.00000000   0.307E-07       0.001       32.256   0.100E-07
     Final TRS4 iteration    8 1.00000000   0.307E-07
     Chemical potential (mu):       0.01246
 
 PAO| energy:  -7.7732363971511731      penalty:   1.1710234492266109E-005
 PAO|LS| Need extra step
 PAO|LS| adapt:  T T F
 PAO|LS| adapt: scan_steps:    0.0000000000000000       0.96479761924498186        0.0000000000000000     
 PAO|LS| adapt: energies:   -7.7732248388333280       -7.7732363971511731        0.0000000000000000     
 PAO| ======================= Iteration:        32 =============================

     Lanczos converged:  T threshold:   0.100E-02
     Est. extremal eigenvalues:    0.275E+01   0.185E+00
     Est. condition number :    0.149E+02

 Order=           3
     NS sqrt iter    1 1.00000000   0.701E+00       0.001       57.914
     NS sqrt iter    2 1.00000000   0.327E+00       0.001      100.625
     NS sqrt iter    3 1.00000000   0.730E-01       0.001       99.638
     NS sqrt iter    4 1.00000000   0.164E-02       0.001       96.938
     NS sqrt iter    5 1.00000000   0.377E-07       0.001       59.022
     Symmetrizing Results
     Final NS sqrt iter    5 1.00000000   0.417E-09

     Est. extremal eigenvalues     -0.93000     1.64289  converged:  T
     TRS4 it   1 1.00000000   0.855E+00       0.000       16.128   0.100E-07
     TRS4 it   2 1.00000000   0.599E+00       0.001       32.256   0.100E-07
     TRS4 it   3 1.00000000   0.404E+00       0.001       32.256   0.100E-07
     TRS4 it   4 1.00000000   0.200E+00       0.001       32.256   0.100E-07
     TRS4 it   5 1.00000000   0.603E-01       0.001       32.256   0.100E-07
     TRS4 it   6 1.00000000   0.657E-02       0.001       32.256   0.100E-07
     TRS4 it   7 1.00000000   0.979E-04       0.001       32.256   0.100E-07
     TRS4 it   8 1.00000000   0.296E-07       0.001       32.256   0.100E-07
     Final TRS4 iteration    8 1.00000000   0.296E-07
     Chemical potential (mu):       0.01283
 
 PAO| energy:  -7.7732225473505920      penalty:   1.0300907769879571E-005
 PAO|LS| Need extra step
 PAO|LS| adapt:  T T T
 PAO|LS| adapt: scan_steps:    0.0000000000000000       0.96479761924498186        1.9295952384899637     
 PAO|LS| adapt: energies:   -7.7732248388333280       -7.7732363971511731       -7.7732225473505920     
 PAO|LS| adapt: suggested step_size:   0.92129150338149068     
 PAO|LS| adapt: predicted energy  -7.7732364229839250     
 PAO| ======================= Iteration:        33 =============================

     Lanczos converged:  T threshold:   0.100E-02
     Est. extremal eigenvalues:    0.275E+01   0.185E+00
     Est. condition number :    0.149E+02

 Order=           3
     NS sqrt iter    1 1.00000000   0.702E+00       0.001       58.002
     NS sqrt iter    2 1.00000000   0.327E+00       0.001       97.967
[...]
     Symmetrizing Results
     Final NS sqrt iter    5 1.00000000   0.137E-09

     Est. extremal eigenvalues     -0.92980     1.55528  converged:  T
     TRS4 it   1 1.00000000   0.849E+00       0.000       16.128   0.100E-07
     TRS4 it   2 1.00000000   0.608E+00       0.001       32.256   0.100E-07
     TRS4 it   3 1.00000000   0.435E+00       0.001       32.256   0.100E-07
     TRS4 it   4 1.00000000   0.262E+00       0.001       32.256   0.100E-07
     TRS4 it   5 1.00000000   0.123E+00       0.001       32.256   0.100E-07
     TRS4 it   6 1.00000000   0.343E-01       0.001       32.256   0.100E-07
     TRS4 it   7 1.00000000   0.352E-02       0.001       32.256   0.100E-07
     TRS4 it   8 1.00000000   0.485E-04       0.001       32.256   0.100E-07
     TRS4 it   9 1.00000000   0.103E-07       0.001       32.256   0.100E-07
     Final TRS4 iteration    9 1.00000000   0.103E-07
     Chemical potential (mu):      -0.07234
 
 PAO| energy:  -7.7730877633399142      penalty:   6.8479872825145900E-012
 PAO|CG| warming up with steepest descent
 PAO|CG| beta:    0.0000000000000000     
 PAO| norm of gradient:   7.8030876785363026E-006
 PAO| energy improvement:  -2.0205170869758149E-011
 PAO| step    929                   -7.773087763  0.488E-06  0.287E+00     0.068
 PAO| converged after          929  steps :-)
 PAO| Recalculating energy after mixing.

     Lanczos converged:  T threshold:   0.100E-02
     Est. extremal eigenvalues:    0.251E+01   0.198E+00
     Est. condition number :    0.126E+02

 Order=           3
     NS sqrt iter    1 1.00000000   0.637E+00       0.001       64.512
     NS sqrt iter    2 1.00000000   0.277E+00       0.001      110.592
     NS sqrt iter    3 1.00000000   0.479E-01       0.001      110.592
     NS sqrt iter    4 1.00000000   0.649E-03       0.001      110.592
     NS sqrt iter    5 1.00000000   0.233E-08       0.001       36.864
     Symmetrizing Results
     Final NS sqrt iter    5 1.00000000   0.137E-09

     Est. extremal eigenvalues     -0.92980     1.55528  converged:  T
     TRS4 it   1 1.00000000   0.849E+00       0.000       16.128   0.100E-07
     TRS4 it   2 1.00000000   0.608E+00       0.001       32.256   0.100E-07
     TRS4 it   3 1.00000000   0.435E+00       0.001       32.256   0.100E-07
     TRS4 it   4 1.00000000   0.262E+00       0.001       32.256   0.100E-07
     TRS4 it   5 1.00000000   0.123E+00       0.001       32.256   0.100E-07
     TRS4 it   6 1.00000000   0.343E-01       0.001       32.256   0.100E-07
     TRS4 it   7 1.00000000   0.352E-02       0.001       32.256   0.100E-07
     TRS4 it   8 1.00000000   0.485E-04       0.001       32.256   0.100E-07
     TRS4 it   9 1.00000000   0.103E-07       0.001       32.256   0.100E-07
     Final TRS4 iteration    9 1.00000000   0.103E-07
     Chemical potential (mu):      -0.07234
 
 PAO| energy:  -7.7730877633348570      penalty:   6.9277363706354615E-012
 PAO| Writing restart file.
     Est. extremal eigenvalues     -0.92980     1.55528  converged:  T
     TRS4 it   1 1.00000000   0.849E+00       0.000       16.128   0.100E-07
     TRS4 it   2 1.00000000   0.608E+00       0.001       32.256   0.100E-07
     TRS4 it   3 1.00000000   0.435E+00       0.001       32.256   0.100E-07
     TRS4 it   4 1.00000000   0.262E+00       0.001       32.256   0.100E-07
     TRS4 it   5 1.00000000   0.123E+00       0.001       32.256   0.100E-07
     TRS4 it   6 1.00000000   0.343E-01       0.001       32.256   0.100E-07
     TRS4 it   7 1.00000000   0.352E-02       0.001       32.256   0.100E-07
     TRS4 it   8 1.00000000   0.485E-04       0.001       32.256   0.100E-07
     TRS4 it   9 1.00000000   0.103E-07       0.001       32.256   0.100E-07
     Final TRS4 iteration    9 1.00000000   0.103E-07
     Chemical potential (mu):      -0.07234

 SCF     1       -34.447847166       -34.447847166    2.032314

*********************************************************
 Using MIXING_FRACTION=0.450 to mix KS matrix:  iscf=  2
 KS_nw=0.450*KS + 0.550*KS_old
*********************************************************
     Est. extremal eigenvalues     -0.92980     1.55528  converged:  T
     TRS4 it   1 1.00000000   0.849E+00       0.000       16.128   0.100E-07
     TRS4 it   2 1.00000000   0.608E+00       0.000       32.256   0.100E-07
     TRS4 it   3 1.00000000   0.435E+00       0.000       32.256   0.100E-07
     TRS4 it   4 1.00000000   0.262E+00       0.000       32.256   0.100E-07
     TRS4 it   5 1.00000000   0.123E+00       0.000       32.256   0.100E-07
     TRS4 it   6 1.00000000   0.343E-01       0.000       32.256   0.100E-07
     TRS4 it   7 1.00000000   0.352E-02       0.000       32.256   0.100E-07
     TRS4 it   8 1.00000000   0.485E-04       0.000       32.256   0.100E-07
     TRS4 it   9 1.00000000   0.103E-07       0.000       32.256   0.100E-07
     Final TRS4 iteration    9 1.00000000   0.103E-07
     Chemical potential (mu):      -0.07234

 SCF     2       -34.447847166        -0.000000000    1.199730


 SCF run converged in     2 steps.

 PAO| Storing density matrix for ASPC guess in slot:           1

 ENERGY| Total FORCE_EVAL ( QS ) energy [a.u.]:              -34.447847165730430

 -------------------------------------------------------------------------------
 -                                                                             -
 -                                DBCSR STATISTICS                             -
 -                                                                             -
 -------------------------------------------------------------------------------
 COUNTER                                    TOTAL       BLAS       SMM       ACC
 flops     5 x     5 x     4                32000       0.0%    100.0%      0.0%
 flops    13 x     5 x     4                33280       0.0%    100.0%      0.0%
 flops     5 x    13 x     4                33280       0.0%    100.0%      0.0%
 flops    13 x    13 x     4                64896       0.0%    100.0%      0.0%
 flops     4 x     4 x     5              7265280       0.0%    100.0%      0.0%
 flops     5 x     4 x     5              8819200       0.0%    100.0%      0.0%
 flops     4 x     4 x    13              9444864       0.0%    100.0%      0.0%
 flops    13 x     4 x     5             11464960       0.0%    100.0%      0.0%
 flops     5 x     4 x    13             11464960       0.0%    100.0%      0.0%
 flops     5 x     4 x     4             13990400       0.0%    100.0%      0.0%
 flops    13 x     4 x    13             14904448       0.0%    100.0%      0.0%
 flops    13 x     4 x     4             18841888       0.0%    100.0%      0.0%
 flops     4 x     4 x     4            918729600       0.0%    100.0%      0.0%
 flops inhomo. stacks                           0       0.0%      0.0%      0.0%
 flops total                         1.015089E+09       0.0%    100.0%      0.0%
 flops max/rank                      1.015089E+09       0.0%    100.0%      0.0%
 matmuls inhomo. stacks                         0       0.0%      0.0%      0.0%
 matmuls total                            7477972       0.0%    100.0%      0.0%
 number of processed stacks                 59958       0.0%    100.0%      0.0%
 average stack size                                     0.0     124.7       0.0
 marketing flops                     1.653807E+09
 -------------------------------------------------------------------------------
 # multiplications                          49862
 max memory usage/rank             506.208256E+06
 # max total images/rank                        1
 # max 3D layers                                1
 # MPI messages exchanged                       0
 -------------------------------------------------------------------------------

 -------------------------------------------------------------------------------
 -                                                                             -
 -                                DBM STATISTICS                               -
 -                                                                             -
 -------------------------------------------------------------------------------
    M  x    N  x    K                                          COUNT     PERCENT
 -------------------------------------------------------------------------------

 -------------------------------------------------------------------------------
 -                                                                             -
 -                                GRID STATISTICS                              -
 -                                                                             -
 -------------------------------------------------------------------------------
 LP    KERNEL             BACKEND                              COUNT     PERCENT
 2     collocate ortho    REF                                  61056      30.81%
 2     integrate ortho    REF                                  61056      30.81%
 3     collocate ortho    REF                                  31248      15.77%
 3     integrate ortho    REF                                  31248      15.77%
 4     collocate ortho    REF                                   6768       3.42%
 4     integrate ortho    REF                                   6768       3.42%
 0     collocate general  REF                                      6       0.00%
 -------------------------------------------------------------------------------

 MEMORY| Estimated peak process memory [MiB]                                 483

 -------------------------------------------------------------------------------
 -                                                                             -
 -                           R E F E R E N C E S                               -
 -                                                                             -
 -------------------------------------------------------------------------------
 
 CP2K version 2023.1 (Development Version), the CP2K developers group (2023).
 CP2K is freely available from https://www.cp2k.org/ .

 Kuehne,Thomas D.; Iannuzzi,Marcella; Del Ben,Mauro;
 Rybkin,Vladimir V.; Seewald,Patrick; Stein,Frederick; Laino,Teodoro;
 Khaliullin,Rustam Z.; Schuett,Ole; Schiffmann,Florian; Golze,Dorothea;
 Wilhelm,Jan; Chulkov,Sergey; Bani-Hashemian,Mohammad Hossein;
 Weber,Valery; Borstnik,Urban; Taillefumier,Mathieu;
 Jakobovits,Alice Shoshana; Lazzaro,Alfio; Pabst,Hans; Mueller,Tiziano;
 Schade,Robert; Guidon,Manuel; Andermatt,Samuel; Holmberg,Nico;
 Schenter,Gregory K.; Hehn,Anna; Bussy,Augustin; Belleflamme,Fabian;
 Tabacchi,Gloria; Gloess,Andreas; Lass,Michael; Bethune,Iain;
 Mundy,Christopher J.; Plessl,Christian; Watkins,Matt;
 VandeVondele,Joost; Krack,Matthias; Hutter,Juerg. 
 The Journal of Chemical Physics, 152 (19), (2020). 
 CP2K: An electronic structure and molecular dynamics software package -
 Quickstep: Efficient and accurate electronic structure calculations.
 https://doi.org/10.1063/5.0007045

 Schuett, O; VandeVondele, J. 
 Journal of Chemical Theory and Computation, 14, (2018). 
 Machine Learning Adaptive Basis Sets for Efficient Large Scale
 Density Functional Theory Simulation.
 https://doi.org/10.1021/acs.jctc.8b00378

 Schuett, Ole; Messmer, Peter; Hutter, Juerg; VandeVondele, Joost. 
 Electronic Structure Calculations on Graphics Processing Units, John
 Wiley & Sons, Ltd, 173-190 (2016). 
 GPU-Accelerated Sparse Matrix-Matrix Multiplication for
 Linear Scaling Density Functional Theory.
 https://doi.org/10.1002/9781118670712.ch8

 Heinecke, A; Henry, G; Hutchinson, M; Pabst, H. 
 Proceedings of Intl. Supercomputing Conference, 981-991 (2016). 
 LIBXSMM: Accelerating Small Matrix Multiplications
 by Runtime Code Generation.
 https://doi.org/10.1109/SC.2016.83

 Borstnik, U; VandeVondele, J; Weber, V; Hutter, J. 
 PARALLEL COMPUTING, 40 (5-6), 47-58 (2014). 
 Sparse matrix multiplication: The distributed block-compressed sparse
 row library.
 https://doi.org/10.1016/j.parco.2014.03.012

 Hutter, J; Iannuzzi, M; Schiffmann, F; VandeVondele, J. 
 WIREs Comput Mol Sci., 4 (1), 15-25 (2014). 
 CP2K: atomistic simulations of condensed matter systems.
 https://doi.org/10.1002/wcms.1159

 VandeVondele, J; Borstnik, U; Hutter, J. 
 JOURNAL OF CHEMICAL THEORY AND COMPUTATION, 8 (10), 3565-3573 (2012). 
 Linear Scaling Self-Consistent Field Calculations with Millions of Atoms
 in the Condensed Phase.
 https://doi.org/10.1021/ct200897x

 VandeVondele, J; Hutter, J. 
 JOURNAL OF CHEMICAL PHYSICS, 127 (11), 114105 (2007). 
 Gaussian basis sets for accurate calculations on molecular systems in
 gas and condensed phases.
 https://doi.org/10.1063/1.2770708

 Krack, M. 
 THEORETICAL CHEMISTRY ACCOUNTS, 114 (1-3), 145-152 (2005). 
 Pseudopotentials for H to Kr optimized for gradient-corrected
 exchange-correlation functionals.
 https://doi.org/10.1007/s00214-005-0655-y

 VandeVondele, J; Krack, M; Mohamed, F; Parrinello, M; Chassaing, T;
 Hutter, J. COMPUTER PHYSICS COMMUNICATIONS, 167 (2), 103-128 (2005). 
 QUICKSTEP: Fast and accurate density functional calculations using a
 mixed Gaussian and plane waves approach.
 https://doi.org/10.1016/j.cpc.2004.12.014

 Frigo, M; Johnson, SG. 
 PROCEEDINGS OF THE IEEE, 93 (2), 216-231 (2005). 
 The design and implementation of FFTW3.
 https://doi.org/10.1109/JPROC.2004.840301

 Niklasson, AMN; Tymczak, CJ; Challacombe, M. 
 JOURNAL OF CHEMICAL PHYSICS, 118 (19), 8611-8620 (2003). 
 Trace resetting density matrix purification in O(N)
 self-consistent-field theory.
 https://doi.org/10.1063/1.1559913

 Hartwigsen, C; Goedecker, S; Hutter, J. 
 PHYSICAL REVIEW B, 58 (7), 3641-3662 (1998). 
 Relativistic separable dual-space Gaussian pseudopotentials from H to Rn.
 https://doi.org/10.1103/PhysRevB.58.3641

 Lippert, G; Hutter, J; Parrinello, M. 
 MOLECULAR PHYSICS, 92 (3), 477-487 (1997). 
 A hybrid Gaussian and plane wave density functional scheme.
 https://doi.org/10.1080/002689797170220

 Perdew, JP; Burke, K; Ernzerhof, M. 
 PHYSICAL REVIEW LETTERS, 77 (18), 3865-3868 (1996). 
 Generalized gradient approximation made simple.
 https://doi.org/10.1103/PhysRevLett.77.3865

 Goedecker, S; Teter, M; Hutter, J. 
 PHYSICAL REVIEW B, 54 (3), 1703-1710 (1996). 
 Separable dual-space Gaussian pseudopotentials.
 https://doi.org/10.1103/PhysRevB.54.1703


 -------------------------------------------------------------------------------
 -                                                                             -
 -                                T I M I N G                                  -
 -                                                                             -
 -------------------------------------------------------------------------------
 SUBROUTINE                       CALLS  ASD         SELF TIME        TOTAL TIME
                                MAXIMUM       AVERAGE  MAXIMUM  AVERAGE  MAXIMUM
 CP2K                                 1  1.0    0.011    0.011   87.835   87.835
 qs_energies                          1  2.0    0.000    0.000   87.013   87.013
 ls_scf                               1  3.0    0.000    0.000   86.901   86.901
 ls_scf_main                          7  4.0    0.002    0.002   57.712   57.712
 ls_scf_dm_to_ks                     15  5.0    0.001    0.001   57.504   57.504
 qs_ks_update_qs_env                 16  6.0    0.000    0.000   47.464   47.464
 rebuild_ks_matrix                   16  7.0    0.000    0.000   47.463   47.463
 qs_ks_build_kohn_sham_matrix        16  8.0    0.006    0.006   47.463   47.463
 qs_vxc_create                       16  9.0    0.001    0.001   28.621   28.621
 xc_vxc_pw_create                    16 10.0    0.484    0.484   28.621   28.621
 pw_transfer                        305 11.1    0.045    0.045   25.252   25.252
 fft_wrap_pw1pw2                    273 12.3    0.006    0.006   24.550   24.550
 pao_update                           7  4.0    0.022    0.022   23.983   23.983
 fft_wrap_pw1pw2_200                177 13.7    2.407    2.407   23.659   23.659
 pao_calc_energy                    935  5.0    0.008    0.008   21.759   21.759
 dbcsr_multiply_generic           49862  8.4    1.176    1.176   17.098   17.098
 xc_pw_derive                        96 12.0    0.002    0.002   17.078   17.078
 xc_rho_set_and_dset_create          16 11.0    0.645    0.645   17.072   17.072
 qs_rho_update_rho_low               16  6.0    0.000    0.000   15.069   15.069
 calculate_rho_elec                  16  7.0    0.092    0.092   15.069   15.069
 sum_up_and_integrate                16  9.0    0.428    0.428   14.552   14.552
 integrate_v_rspace                  16 10.0    0.002    0.002   14.124   14.124
 pao_dm_trs4                        935  6.0    0.007    0.007   11.138   11.138
 grid_integrate_task_list            16 11.0   10.893   10.893   10.893   10.893
 density_matrix_trs4                950  7.0    0.386    0.386   10.709   10.709
 xc_pw_divergence                    16 11.0    0.001    0.001   10.680   10.680
 fft3d_s                            274 14.2   10.555   10.555   10.609   10.609
 ls_scf_init_matrix_S               942  7.0    0.007    0.007   10.589   10.589
 pao_rebuild_S                      935  6.0    0.020    0.020   10.459   10.459
 matrix_sqrt_Newton_Schulz          942  8.0    0.271    0.271    9.533    9.533
 grid_collocate_task_list            16  8.0    9.493    9.493    9.493    9.493
 multiply_cannon                  49862  9.4    2.528    2.528    6.457    6.457
 make_m2s                         99724  9.4    0.431    0.431    6.256    6.256
 xc_functional_eval                  16 12.0    0.000    0.000    6.238    6.238
 pbe_lda_eval                        16 13.0    6.237    6.237    6.237    6.237
 pw_scatter_s                       144 14.7    6.070    6.070    6.070    6.070
 make_images                      99724 10.4    1.489    1.489    5.566    5.566
 density_rs2pw                       16  8.0    0.002    0.002    5.484    5.484
 pw_gather_s                        129 13.8    5.334    5.334    5.334    5.334
 pao_guess_initial_P                  1  4.0    0.000    0.000    5.038    5.038
 pao_read_preopt_dm                   1  5.0    0.000    0.000    5.038    5.038
 arnoldi_extremal                  1892  8.5    0.008    0.008    3.496    3.496
 arnoldi_normal_ev                 1892  9.5    0.025    0.025    3.487    3.487
 potential_pw2rs                     16 11.0    0.007    0.007    3.229    3.229
 pw_derive                           96 13.0    3.206    3.206    3.206    3.206
 build_subspace                    1892 10.5    0.160    0.160    2.696    2.696
 dbcsr_matrix_vector_mult         44909 11.5    0.378    0.378    2.530    2.530
 pw_copy                            192 11.8    2.476    2.476    2.476    2.476
 pao_calc_AB                       1224  5.8    0.002    0.002    2.234    2.234
 pao_calc_AB_equi                  1224  6.8    0.062    0.062    2.231    2.231
 pao_calc_grad_lnv_wrt_AB           288  7.0    0.013    0.013    2.012    2.012
 dbcsr_finalize                  119273  9.6    0.373    0.373    1.912    1.912
 dbcsr_create_new                382938 10.7    1.250    1.250    1.887    1.887
 multiply_cannon_loop             49862 10.4    0.187    0.187    1.760    1.760
 -------------------------------------------------------------------------------

 The number of warnings for this run is : 0
 
 -------------------------------------------------------------------------------
  **** **** ******  **  PROGRAM ENDED AT                 2023-02-01 10:49:23.775
 ***** ** ***  *** **   PROGRAM RAN ON                                    moritz
 **    ****   ******    PROGRAM RAN BY                                       ole
 ***** **    ** ** **   PROGRAM PROCESS ID                                148703
  **** **  *******  **  PROGRAM STOPPED IN /home/ole/git/pao_ml_equivar/2H2O_MD/
                                           frame_0400
