       6
 i =      400, time =       80.000, E =       -34.4484254438
  O         2.4348252964        4.2653479454        4.0198929970
  H         2.5800214490        5.1134760565        3.6168744004
  H         1.9885112059        3.7045649104        3.3708278013
  O         5.3823388793        4.2151769744        4.0075167942
  H         5.9931570791        3.8879202042        4.6945655320
  H         4.5129566435        3.8819478230        4.2393032326
