 DBCSR| CPU Multiplication driver                                           XSMM
 DBCSR| Multrec recursion limit                                              512
 DBCSR| Multiplication stack size                                           1000
 DBCSR| Maximum elements for images                                    UNLIMITED
 DBCSR| Multiplicative factor virtual images                                   1
 DBCSR| Use multiplication densification                                       T
 DBCSR| Multiplication size stacks                                             3


  **** **** ******  **  PROGRAM STARTED AT               2019-02-14 11:05:40.072
 ***** ** ***  *** **   PROGRAM STARTED ON                                  otto
 **    ****   ******    PROGRAM STARTED BY                                   ole
 ***** **    ** ** **   PROGRAM PROCESS ID                                  7718
  **** **  *******  **  PROGRAM STARTED IN /home/ole/git/pao_ml_equivar/2H2O_MD/
                                           frame_1400

 CP2K| version string:                    CP2K version 7.0 (Development Version)
 CP2K| source code revision number:                                git:8bf305913
 CP2K| cp2kflags: libint fftw3 libxc xsmm libderiv_max_am1=5 libint_max_am=6    
 CP2K| is freely available from                            https://www.cp2k.org/
 CP2K| Program compiled at                           So Jan 13 00:02:37 CET 2019
 CP2K| Program compiled on                                                  otto
 CP2K| Program compiled for                                                local
 CP2K| Data directory path                               /home/ole/git/cp2k/data
 CP2K| Input file name                                            2H2O_pao44.inp

 GLOBAL| Force Environment number                                              1
 GLOBAL| Basis set file name                                        BASIS_MOLOPT
 GLOBAL| Potential file name                                      GTH_POTENTIALS
 GLOBAL| MM Potential file name                                     MM_POTENTIAL
 GLOBAL| Coordinate file name                                         coords.xyz
 GLOBAL| Method name                                                        CP2K
 GLOBAL| Project name                                                 2H2O_pao44
 GLOBAL| Preferred FFT library                                             FFTW3
 GLOBAL| Preferred diagonalization lib.                                       SL
 GLOBAL| Run type                                                         ENERGY
 GLOBAL| All-to-all communication in single precision                          F
 GLOBAL| FFTs using library dependent lengths                                  F
 GLOBAL| Global print level                                                  LOW
 GLOBAL| MPI I/O enabled                                                       T
 GLOBAL| Total number of message passing processes                             1
 GLOBAL| Number of threads for this process                                    1
 GLOBAL| This output is from process                                           0
 GLOBAL| CPU model name :  Intel(R) Core(TM) i5-3320M CPU @ 2.60GHz

 MEMORY| system memory details [Kb]
 MEMORY|                        rank 0           min           max       average
 MEMORY| MemTotal              7860772       7860772       7860772       7860772
 MEMORY| MemFree                647120        647120        647120        647120
 MEMORY| Buffers               1047448       1047448       1047448       1047448
 MEMORY| Cached                2058172       2058172       2058172       2058172
 MEMORY| Slab                   280264        280264        280264        280264
 MEMORY| SReclaimable           155756        155756        155756        155756
 MEMORY| MemLikelyFree         3908496       3908496       3908496       3908496


 GENERATE|  Preliminary Number of Bonds generated:                             0
 GENERATE|  Achieved consistency in connectivity generation.

 *******************************************************************************
 *******************************************************************************
 **                                                                           **
 **     #####                         ##              ##                      **
 **    ##   ##            ##          ##              ##                      **
 **   ##     ##                       ##            ######                    **
 **   ##     ##  ##   ##  ##   #####  ##  ##   ####   ##    #####    #####    **
 **   ##     ##  ##   ##  ##  ##      ## ##   ##      ##   ##   ##  ##   ##   **
 **   ##  ## ##  ##   ##  ##  ##      ####     ###    ##   ######   ######    **
 **    ##  ###   ##   ##  ##  ##      ## ##      ##   ##   ##       ##        **
 **     #######   #####   ##   #####  ##  ##  ####    ##    #####   ##        **
 **           ##                                                    ##        **
 **                                                                           **
 **                                                ... make the atoms dance   **
 **                                                                           **
 **            Copyright (C) by CP2K developers group (2000 - 2018)           **
 **                                                                           **
 *******************************************************************************


 TOTAL NUMBERS AND MAXIMUM NUMBERS

  Total number of            - Atomic kinds:                                   2
                             - Atoms:                                          6
                             - Shell sets:                                     6
                             - Shells:                                        22
                             - Primitive Cartesian functions:                 42
                             - Cartesian basis functions:                     48
                             - Spherical basis functions:                     46

  Maximum angular momentum of- Orbital basis functions:                        2
                             - Local part of the GTH pseudopotential:          2
                             - Non-local part of the GTH pseudopotential:      0

 ------------------------------ Linear scaling SCF -----------------------------
 eps_scf:                                       0.100E-07
 eps_filter:                                    0.100E-07
 mixing_fraction:                               0.450E+00
 max_scf:                                              25
 fixed chemical potential (mu)                          F
 has unit metric:                                       F
 Computing inv(S):                                      T
 Computing sqrt(S):                                     T
 Computing s preconditioner                             F
 sign sqrt order:                                       3
 Extrapolation order:                                   1
 Use single precision matrices                          F
 S preconditioner type                               NONE
 Polarized Atomic Orbitals (PAO)                        T
 Purification method                      Trace resetting 4th order
 Cluster type                                      ATOMIC
 Computing Chebyshev                                FALSE
 Using PAO                                              T
 -------------------------------------------------------------------------------

 
 PAO|                                  EPS_PAO                           0.5E-06
 PAO|                                  MIXING                            0.5E+00
 PAO|                                  MAX_PAO                              1000
 PAO|                                  MAX_CYCLES                           1000
 PAO|                                  PARAMETERIZATION                   DIRECT
 PAO|                                  PRECONDITION                            F
 PAO|                                  REGULARIZATION                    0.0E+00
 PAO|                                  EPS_PGF                           0.1E-09
 PAO|                                  PENALTY_DISTANCE                  0.1E+00
 PAO|                                  PENALTY_STRENGTH                  0.5E-02
 PAO|                                  LINPOT_PRECONDITION_DELTA         0.0E+00
 PAO|                                  LINPOT_INITGUESS_DELT             0.0E+00
 PAO|                                  LINPOT_REGULARIZATION_DELTA       0.0E+00
 PAO|                                  LINPOT_REGULARIZATION_STRENGTH    0.0E+00
 PAO|                                  OPTIMIZER                              CG
 PAO|                                  CG_INIT_STEPS                           2
 PAO|                                  CG_RESET_LIMIT                    0.1E+00
 PAO|                                  CHECK_UNITARY_TOL                -0.1E+01
 PAO|                                  CHECK_GRADIENT_TOL               -0.1E+01
 PAO|                                  NUM_GRADIENT_ORDER                      2
 PAO|                                  NUM_GRADIENT_EPS                  0.1E-07
 PAO|                                  PRINT%RESTART%WRITE_CYCLES            100
 PAO|                                  RESTART_FILE 
 PAO|                                  PREOPT_DM_FILE 2H2O_ref_LS_DM_SPIN_1_RESTART.dm
 PAO|                                  MACHINE_LEARNING%METHOD        GAUSSIAN_P
 PAO|                                  MACHINE_LEARNING%PRIOR               ZERO
 PAO|                                  MACHINE_LEARNING%DESCRIPTOR     POTENTIAL
 PAO|                                  MACHINE_LEARNING%TOLERANCE        0.1E-01
 PAO|                                  MACHINE_LEARNING%GP_NOISE_VAR     0.1E+00
 PAO|                                  MACHINE_LEARNING%GP_SCALE         0.5E-01
 

 Calculating atomic Fock matrix for atomic kind: O

 Electronic structure
    Total number of core electrons                                          2.00
    Total number of valence electrons                                       6.00
    Total number of electrons                                               8.00
    Multiplicity                                                   not specified
    S   [  2.00] 2.00
    P      4.00


 *******************************************************************************
                  Iteration          Convergence                     Energy [au]
 *******************************************************************************
                          1        0.708315                     -15.576645311500
                          2        0.608879                     -15.587933561584
                          3        0.102828E-01                 -15.656849565404
                          4        0.113889E-02                 -15.656866888140
                          5        0.434197E-03                 -15.656867072159
                          6        0.263771E-03                 -15.656867091904
                          7        0.478536E-06                 -15.656867103452

 Energy components [Hartree]           Total Energy ::          -15.656867103452
                                        Band Energy ::           -3.000198112285
                                     Kinetic Energy ::           11.759971203220
                                   Potential Energy ::          -27.416838306672
                                      Virial (-V/T) ::            2.331369510426
                                        Core Energy ::          -26.140716385623
                                          XC Energy ::           -3.154051012914
                                     Coulomb Energy ::           13.637900295084
                       Total Pseudopotential Energy ::          -37.935781716540
                       Local Pseudopotential Energy ::          -39.218907440693
                    Nonlocal Pseudopotential Energy ::            1.283125724153
                                        Confinement ::            0.350941276976

 Orbital energies  State     L     Occupation   Energy[a.u.]          Energy[eV]

                       1     0          2.000      -0.864471          -23.523463

                       1     1          4.000      -0.317814           -8.648154


 Total Electron Density at R=0:                                         0.000068

 Calculating atomic Fock matrix for atomic kind: H

 Electronic structure
    Total number of core electrons                                          0.00
    Total number of valence electrons                                       1.00
    Total number of electrons                                               1.00
    Multiplicity                                                   not specified
    S      1.00


 *******************************************************************************
                  Iteration          Convergence                     Energy [au]
 *******************************************************************************
                          1        0.437545E-02                  -0.424159432110
                          2        0.531356E-03                  -0.424178438213
                          3        0.259176E-06                  -0.424178722480

 Energy components [Hartree]           Total Energy ::           -0.424178722480
                                        Band Energy ::           -0.199015229016
                                     Kinetic Energy ::            0.464007633961
                                   Potential Energy ::           -0.888186356441
                                      Virial (-V/T) ::            1.914163240935
                                        Core Energy ::           -0.479160803564
                                          XC Energy ::           -0.244352904054
                                     Coulomb Energy ::            0.299334985138
                       Total Pseudopotential Energy ::           -0.962295316385
                       Local Pseudopotential Energy ::           -0.962295316385
                    Nonlocal Pseudopotential Energy ::            0.000000000000
                                        Confinement ::            0.191268788606

 Orbital energies  State     L     Occupation   Energy[a.u.]          Energy[eV]

                       1     0          1.000      -0.199015           -5.415480


 Total Electron Density at R=0:                                         0.242907
 PAO| Made initial guess for matrix_X with norm:   4.8989794855663558     

     Lanczos converged:  T threshold:   0.100E-02
     Est. extremal eigenvalues:    0.318E+01   0.116E+00
     Est. condition number :    0.274E+02
     NS sqrt iter    1 1.00000000   0.775E+00       0.001       47.315
     NS sqrt iter    2 1.00000000   0.412E+00       0.001       83.647
     NS sqrt iter    3 1.00000000   0.155E+00       0.001       83.921
     NS sqrt iter    4 1.00000000   0.163E-01       0.001       80.289
     NS sqrt iter    5 1.00000000   0.291E-04       0.001       65.922
     Final NS sqrt iter    5 1.00000000   0.137E-08

 PAO| Read restart DM 2H2O_ref_LS_DM_SPIN_1_RESTART.dm with checksum:    63.924972818714458     
 PAO| Quickstep energy from restart density:  -34.445900925624841     
 PAO| ======================= Iteration:         1 =============================

     Lanczos converged:  T threshold:   0.100E-02
     Est. extremal eigenvalues:    0.318E+01   0.116E+00
     Est. condition number :    0.274E+02
     NS sqrt iter    1 1.00000000   0.775E+00       0.001       64.512
     NS sqrt iter    2 1.00000000   0.412E+00       0.001      110.592
     NS sqrt iter    3 1.00000000   0.155E+00       0.001      110.592
     NS sqrt iter    4 1.00000000   0.163E-01       0.001      110.592
     NS sqrt iter    5 1.00000000   0.291E-04       0.001       84.096
     Final NS sqrt iter    5 1.00000000   0.137E-08

     Est. extremal eigenvalues     -0.89945     1.75402  converged:  T
     TRS4 it   1 1.00000000   0.871E+00       0.000       16.128   0.100E-07
     TRS4 it   2 1.00000000   0.666E+00       0.001       32.256   0.100E-07
     TRS4 it   3 1.00000000   0.485E+00       0.001       32.256   0.100E-07
     TRS4 it   4 1.00000000   0.304E+00       0.001       32.256   0.100E-07
     TRS4 it   5 1.00000000   0.149E+00       0.001       32.256   0.100E-07
     TRS4 it   6 1.00000000   0.426E-01       0.001       32.256   0.100E-07
     TRS4 it   7 1.00000000   0.449E-02       0.001       32.256   0.100E-07
     TRS4 it   8 1.00000000   0.642E-04       0.001       32.256   0.100E-07
     TRS4 it   9 1.00000000   0.158E-07       0.001       32.256   0.100E-07
     Final TRS4 iteration    9 1.00000000   0.158E-07
     Chemical potential (mu):      -0.06874
 
 PAO| energy:  -7.5556968387570320      penalty:   4.5606021083089751E-033
 PAO|CG| warming up with steepest descent
 PAO|CG| beta:    0.0000000000000000     
 PAO| norm of gradient:  0.79085648718238477     
 PAO|LS| adapt:  T F F
 PAO|LS| adapt: scan_steps:    0.0000000000000000        0.0000000000000000        0.0000000000000000     
 PAO|LS| adapt: energies:   -7.5556968387570320        0.0000000000000000        0.0000000000000000     
 PAO| ======================= Iteration:         2 =============================

     Lanczos converged:  T threshold:   0.100E-02
     Est. extremal eigenvalues:    0.311E+01   0.131E+00
     Est. condition number :    0.238E+02
     NS sqrt iter    1 1.00000000   0.763E+00       0.001       64.512
     NS sqrt iter    2 1.00000000   0.398E+00       0.001      109.649
     NS sqrt iter    3 1.00000000   0.138E+00       0.001      110.592
     NS sqrt iter    4 1.00000000   0.109E-01       0.001      110.592
     NS sqrt iter    5 1.00000000   0.839E-05       0.001       82.944
     Final NS sqrt iter    5 1.00000000   0.113E-09

     Est. extremal eigenvalues     -0.90306     1.70394  converged:  T
     TRS4 it   1 1.00000000   0.866E+00       0.000       16.128   0.100E-07
     TRS4 it   2 1.00000000   0.647E+00       0.001       32.256   0.100E-07
     TRS4 it   3 1.00000000   0.466E+00       0.001       32.256   0.100E-07
     TRS4 it   4 1.00000000   0.281E+00       0.001       32.256   0.100E-07
     TRS4 it   5 1.00000000   0.127E+00       0.001       32.256   0.100E-07
     TRS4 it   6 1.00000000   0.314E-01       0.001       32.256   0.100E-07
     TRS4 it   7 1.00000000   0.246E-02       0.001       32.256   0.100E-07
     TRS4 it   8 1.00000000   0.195E-04       0.001       32.256   0.100E-07
     TRS4 it   9 1.00000000   0.148E-08       0.001       32.256   0.100E-07
     Final TRS4 iteration    9 1.00000000   0.148E-08
     Chemical potential (mu):      -0.05715
 
 PAO| energy:  -7.6120853579532239      penalty:   2.3306271995098370E-008
 PAO|LS| adapt:  T T F
 PAO|LS| adapt: scan_steps:    0.0000000000000000       0.10000000000000001        0.0000000000000000     
 PAO|LS| adapt: energies:   -7.5556968387570320       -7.6120853579532239        0.0000000000000000     
 PAO| ======================= Iteration:         3 =============================

     Lanczos converged:  T threshold:   0.100E-02
     Est. extremal eigenvalues:    0.303E+01   0.144E+00
     Est. condition number :    0.211E+02
     NS sqrt iter    1 1.00000000   0.748E+00       0.001       64.512
     NS sqrt iter    2 1.00000000   0.383E+00       0.001      110.592
     NS sqrt iter    3 1.00000000   0.122E+00       0.001      110.565
     NS sqrt iter    4 1.00000000   0.728E-02       0.001      110.592
     NS sqrt iter    5 1.00000000   0.249E-05       0.001       82.816
     Final NS sqrt iter    5 1.00000000   0.991E-10

     Est. extremal eigenvalues     -0.90643     1.66746  converged:  T
     TRS4 it   1 1.00000000   0.863E+00       0.000       16.128   0.100E-07
     TRS4 it   2 1.00000000   0.631E+00       0.001       32.256   0.100E-07
     TRS4 it   3 1.00000000   0.449E+00       0.001       32.256   0.100E-07
     TRS4 it   4 1.00000000   0.259E+00       0.001       32.256   0.100E-07
     TRS4 it   5 1.00000000   0.108E+00       0.001       32.256   0.100E-07
     TRS4 it   6 1.00000000   0.224E-01       0.001       32.256   0.100E-07
     TRS4 it   7 1.00000000   0.125E-02       0.001       32.256   0.100E-07
     TRS4 it   8 1.00000000   0.509E-05       0.001       32.256   0.100E-07
     TRS4 it   9 1.00000000   0.102E-09       0.001       32.256   0.100E-07
     Final TRS4 iteration    9 1.00000000   0.102E-09
     Chemical potential (mu):      -0.04451
 
 PAO| energy:  -7.6554905948939442      penalty:   3.7290000773322971E-007
 PAO|LS| adapt:  T T F
 PAO|LS| adapt: scan_steps:    0.0000000000000000       0.20000000000000001        0.0000000000000000     
 PAO|LS| adapt: energies:   -7.5556968387570320       -7.6554905948939442        0.0000000000000000     
 PAO| ======================= Iteration:         4 =============================

     Lanczos converged:  T threshold:   0.100E-02
     Est. extremal eigenvalues:    0.286E+01   0.164E+00
     Est. condition number :    0.175E+02
     NS sqrt iter    1 1.00000000   0.717E+00       0.001       64.512
     NS sqrt iter    2 1.00000000   0.351E+00       0.001      110.592
     NS sqrt iter    3 1.00000000   0.939E-01       0.001      110.592
     NS sqrt iter    4 1.00000000   0.339E-02       0.001      110.592
     NS sqrt iter    5 1.00000000   0.300E-06       0.001       79.104
     Final NS sqrt iter    5 1.00000000   0.858E-09

     Est. extremal eigenvalues     -0.91163     1.62155  converged:  T
     TRS4 it   1 1.00000000   0.862E+00       0.000       16.128   0.100E-07
     TRS4 it   2 1.00000000   0.607E+00       0.001       32.256   0.100E-07
     TRS4 it   3 1.00000000   0.417E+00       0.001       32.256   0.100E-07
     TRS4 it   4 1.00000000   0.221E+00       0.001       32.256   0.100E-07
     TRS4 it   5 1.00000000   0.762E-01       0.001       32.256   0.100E-07
     TRS4 it   6 1.00000000   0.107E-01       0.001       32.256   0.100E-07
     TRS4 it   7 1.00000000   0.272E-03       0.001       32.256   0.100E-07
     TRS4 it   8 1.00000000   0.242E-06       0.001       32.256   0.100E-07
     TRS4 it   9 1.00000000   0.239E-12       0.001       32.256   0.100E-07
     Final TRS4 iteration    9 1.00000000   0.239E-12
     Chemical potential (mu):      -0.01721
 
 PAO| energy:  -7.7017646454060422      penalty:   5.9663973706997370E-006
 PAO|LS| Need extra step
 PAO|LS| adapt:  T T F
 PAO|LS| adapt: scan_steps:    0.0000000000000000       0.40000000000000002        0.0000000000000000     
 PAO|LS| adapt: energies:   -7.5556968387570320       -7.7017646454060422        0.0000000000000000     
 PAO| ======================= Iteration:         5 =============================

     Lanczos converged:  T threshold:   0.100E-02
     Est. extremal eigenvalues:    0.252E+01   0.190E+00
     Est. condition number :    0.133E+02
     NS sqrt iter    1 1.00000000   0.658E+00       0.001       64.512
     NS sqrt iter    2 1.00000000   0.291E+00       0.001      110.592
     NS sqrt iter    3 1.00000000   0.564E-01       0.001      110.592
     NS sqrt iter    4 1.00000000   0.891E-03       0.001      110.592
     NS sqrt iter    5 1.00000000   0.389E-08       0.001       36.864
     Final NS sqrt iter    5 1.00000000   0.226E-08

     Est. extremal eigenvalues     -0.91261     1.58081  converged:  T
     TRS4 it   1 1.00000000   0.866E+00       0.000       16.128   0.100E-07
     TRS4 it   2 1.00000000   0.577E+00       0.001       32.256   0.100E-07
     TRS4 it   3 1.00000000   0.370E+00       0.001       32.256   0.100E-07
     TRS4 it   4 1.00000000   0.165E+00       0.001       32.256   0.100E-07
     TRS4 it   5 1.00000000   0.394E-01       0.001       32.256   0.100E-07
     TRS4 it   6 1.00000000   0.254E-02       0.001       32.256   0.100E-07
     TRS4 it   7 1.00000000   0.131E-04       0.001       32.256   0.100E-07
     TRS4 it   8 1.00000000   0.495E-09       0.001       32.256   0.100E-07
     Final TRS4 iteration    8 1.00000000   0.495E-09
     Chemical potential (mu):       0.03154
 
 PAO| energy:  -7.6393423348170097      penalty:   9.5462335908839808E-005
 PAO|LS| Need extra step
 PAO|LS| adapt:  T T T
 PAO|LS| adapt: scan_steps:    0.0000000000000000       0.40000000000000002       0.80000000000000004     
 PAO|LS| adapt: energies:   -7.5556968387570320       -7.7017646454060422       -7.6393423348170097     
 PAO|LS| adapt: suggested step_size:   0.48023929111659136     
 PAO|LS| adapt: predicted energy  -7.7059594299741336     
 PAO| ======================= Iteration:         6 =============================

     Lanczos converged:  T threshold:   0.100E-02
     Est. extremal eigenvalues:    0.279E+01   0.170E+00
     Est. condition number :    0.164E+02
     NS sqrt iter    1 1.00000000   0.704E+00       0.001       64.512
     NS sqrt iter    2 1.00000000   0.338E+00       0.001      110.592
     NS sqrt iter    3 1.00000000   0.845E-01       0.001      110.592
     NS sqrt iter    4 1.00000000   0.255E-02       0.001      110.592
     NS sqrt iter    5 1.00000000   0.140E-06       0.001       73.344
     Final NS sqrt iter    5 1.00000000   0.764E-09

     Est. extremal eigenvalues     -0.91291     1.60963  converged:  T
     TRS4 it   1 1.00000000   0.863E+00       0.000       16.128   0.100E-07
     TRS4 it   2 1.00000000   0.600E+00       0.001       32.256   0.100E-07
     TRS4 it   3 1.00000000   0.406E+00       0.001       32.256   0.100E-07
     TRS4 it   4 1.00000000   0.207E+00       0.001       32.256   0.100E-07
     TRS4 it   5 1.00000000   0.662E-01       0.001       32.256   0.100E-07
     TRS4 it   6 1.00000000   0.788E-02       0.001       32.256   0.100E-07
     TRS4 it   7 1.00000000   0.142E-03       0.001       32.256   0.100E-07
     TRS4 it   8 1.00000000   0.652E-07       0.001       32.256   0.100E-07
     Final TRS4 iteration    8 1.00000000   0.652E-07
     Chemical potential (mu):      -0.00447
 
 PAO| energy:  -7.7052532753865757      penalty:   1.2396609844533033E-005
 PAO|CG| warming up with steepest descent
 PAO|CG| beta:    0.0000000000000000     
 PAO| norm of gradient:  0.41745881722158507     
 PAO| energy improvement: -0.14955643662954365     
 PAO| step      6                   -7.705253275  0.261E-01  0.480E+00     0.080
 PAO|LS| adapt:  T F F
 PAO|LS| adapt: scan_steps:    0.0000000000000000        0.0000000000000000        0.0000000000000000     
 PAO|LS| adapt: energies:   -7.7052532753865757        0.0000000000000000        0.0000000000000000     
 PAO| ======================= Iteration:         7 =============================

     Lanczos converged:  T threshold:   0.100E-02
     Est. extremal eigenvalues:    0.270E+01   0.185E+00
     Est. condition number :    0.146E+02
     NS sqrt iter    1 1.00000000   0.687E+00       0.001       64.512
     NS sqrt iter    2 1.00000000   0.317E+00       0.001      110.592
     NS sqrt iter    3 1.00000000   0.695E-01       0.001      110.592
     NS sqrt iter    4 1.00000000   0.147E-02       0.001      110.592
     NS sqrt iter    5 1.00000000   0.289E-07       0.001       54.784
     Final NS sqrt iter    5 1.00000000   0.581E-08

     Est. extremal eigenvalues     -0.91453     1.60005  converged:  T
     TRS4 it   1 1.00000000   0.862E+00       0.000       16.128   0.100E-07
     TRS4 it   2 1.00000000   0.598E+00       0.001       32.256   0.100E-07
     TRS4 it   3 1.00000000   0.406E+00       0.001       32.256   0.100E-07
     TRS4 it   4 1.00000000   0.208E+00       0.001       32.256   0.100E-07
     TRS4 it   5 1.00000000   0.668E-01       0.001       32.256   0.100E-07
     TRS4 it   6 1.00000000   0.791E-02       0.001       32.256   0.100E-07
     TRS4 it   7 1.00000000   0.138E-03       0.001       32.256   0.100E-07
     TRS4 it   8 1.00000000   0.588E-07       0.001       32.256   0.100E-07
     Final TRS4 iteration    8 1.00000000   0.588E-07
     Chemical potential (mu):      -0.00441
 
 PAO| energy:  -7.7021685705846821      penalty:   1.8677965057903227E-005
 PAO|LS| adapt:  T F T
 PAO|LS| adapt: scan_steps:    0.0000000000000000        0.0000000000000000       0.48023929111659136     
 PAO|LS| adapt: energies:   -7.7052532753865757        0.0000000000000000       -7.7021685705846821     
 PAO| ======================= Iteration:         8 =============================

     Lanczos converged:  T threshold:   0.100E-02
     Est. extremal eigenvalues:    0.274E+01   0.177E+00
     Est. condition number :    0.155E+02
     NS sqrt iter    1 1.00000000   0.696E+00       0.001       64.512
     NS sqrt iter    2 1.00000000   0.327E+00       0.001      110.592
     NS sqrt iter    3 1.00000000   0.768E-01       0.001      110.592
     NS sqrt iter    4 1.00000000   0.195E-02       0.001      110.592
     NS sqrt iter    5 1.00000000   0.654E-07       0.001       66.944
     Final NS sqrt iter    5 1.00000000   0.332E-08

     Est. extremal eigenvalues     -0.91445     1.60428  converged:  T
     TRS4 it   1 1.00000000   0.862E+00       0.000       16.128   0.100E-07
     TRS4 it   2 1.00000000   0.599E+00       0.001       32.256   0.100E-07
     TRS4 it   3 1.00000000   0.406E+00       0.001       32.256   0.100E-07
     TRS4 it   4 1.00000000   0.207E+00       0.001       32.256   0.100E-07
     TRS4 it   5 1.00000000   0.664E-01       0.001       32.256   0.100E-07
     TRS4 it   6 1.00000000   0.798E-02       0.001       32.256   0.100E-07
     TRS4 it   7 1.00000000   0.144E-03       0.001       32.256   0.100E-07
     TRS4 it   8 1.00000000   0.662E-07       0.001       32.256   0.100E-07
     Final TRS4 iteration    8 1.00000000   0.662E-07
     Chemical potential (mu):      -0.00483
 
 PAO| energy:  -7.7252047686452530      penalty:   1.3437995340040888E-005
 PAO|LS| adapt:  T T T
 PAO|LS| adapt: scan_steps:    0.0000000000000000       0.24011964555829568       0.48023929111659136     
 PAO|LS| adapt: energies:   -7.7052532753865757       -7.7252047686452530       -7.7021685705846821     
 PAO|LS| adapt: suggested step_size:   0.23150440941800302     
 PAO|LS| adapt: predicted energy  -7.7252324376227639     
 PAO| ======================= Iteration:         9 =============================

     Lanczos converged:  T threshold:   0.100E-02
     Est. extremal eigenvalues:    0.275E+01   0.177E+00
     Est. condition number :    0.155E+02
     NS sqrt iter    1 1.00000000   0.696E+00       0.001       64.216
     NS sqrt iter    2 1.00000000   0.328E+00       0.001      110.592
     NS sqrt iter    3 1.00000000   0.771E-01       0.001      110.592
     NS sqrt iter    4 1.00000000   0.197E-02       0.001      110.592
     NS sqrt iter    5 1.00000000   0.673E-07       0.001       66.944
     Final NS sqrt iter    5 1.00000000   0.342E-08

     Est. extremal eigenvalues     -0.91442     1.60445  converged:  T
     TRS4 it   1 1.00000000   0.862E+00       0.000       16.128   0.100E-07
     TRS4 it   2 1.00000000   0.599E+00       0.001       32.256   0.100E-07
     TRS4 it   3 1.00000000   0.406E+00       0.001       32.256   0.100E-07
     TRS4 it   4 1.00000000   0.207E+00       0.001       32.256   0.100E-07
     TRS4 it   5 1.00000000   0.664E-01       0.001       32.256   0.100E-07
     TRS4 it   6 1.00000000   0.798E-02       0.001       32.256   0.100E-07
     TRS4 it   7 1.00000000   0.145E-03       0.001       32.256   0.100E-07
     TRS4 it   8 1.00000000   0.664E-07       0.001       32.256   0.100E-07
     Final TRS4 iteration    8 1.00000000   0.664E-07
     Chemical potential (mu):      -0.00483
 
 PAO| energy:  -7.7252441138523098      penalty:   1.3347439123503913E-005
 PAO|CG| trace_G_new    3.8472555559757919E-002
 PAO|CG| trace_G_prev   0.17427186407604478     
 PAO|CG| trace_G_mix   -1.3333712244396135E-003
 PAO|CG| trace_D   0.17427186407604478     
 PAO|CG| trace_D_Gnew   1.3333712244396135E-003
 PAO|CG| beta:   0.22841281348105583     
 PAO| norm of gradient:  0.19614422132644627     
 PAO| energy improvement:  -1.9990838465734129E-002
 PAO| step      9                   -7.725244114  0.123E-01  0.232E+00     0.049
 PAO|LS| adapt:  T F F
 PAO|LS| adapt: scan_steps:    0.0000000000000000        0.0000000000000000        0.0000000000000000     
 PAO|LS| adapt: energies:   -7.7252441138523098        0.0000000000000000        0.0000000000000000     
 PAO| ======================= Iteration:        10 =============================

     Lanczos converged:  T threshold:   0.100E-02
     Est. extremal eigenvalues:    0.271E+01   0.183E+00
     Est. condition number :    0.148E+02
     NS sqrt iter    1 1.00000000   0.688E+00       0.001       64.512
     NS sqrt iter    2 1.00000000   0.319E+00       0.001      110.592
     NS sqrt iter    3 1.00000000   0.716E-01       0.001      110.592
     NS sqrt iter    4 1.00000000   0.159E-02       0.001      110.592
     NS sqrt iter    5 1.00000000   0.362E-07       0.001       59.008
     Final NS sqrt iter    5 1.00000000   0.333E-08

     Est. extremal eigenvalues     -0.91528     1.60651  converged:  T
     TRS4 it   1 1.00000000   0.862E+00       0.000       16.128   0.100E-07
     TRS4 it   2 1.00000000   0.599E+00       0.001       32.256   0.100E-07
     TRS4 it   3 1.00000000   0.405E+00       0.001       32.256   0.100E-07
     TRS4 it   4 1.00000000   0.206E+00       0.001       32.256   0.100E-07
     TRS4 it   5 1.00000000   0.651E-01       0.001       32.256   0.100E-07
     TRS4 it   6 1.00000000   0.763E-02       0.001       32.256   0.100E-07
     TRS4 it   7 1.00000000   0.130E-03       0.001       32.256   0.100E-07
     TRS4 it   8 1.00000000   0.534E-07       0.001       32.256   0.100E-07
     Final TRS4 iteration    8 1.00000000   0.534E-07
     Chemical potential (mu):      -0.00248
 
 PAO| energy:  -7.7304246949225393      penalty:   1.3937138703411904E-005
 PAO|LS| adapt:  T T F
 PAO|LS| adapt: scan_steps:    0.0000000000000000       0.23150440941800302        0.0000000000000000     
 PAO|LS| adapt: energies:   -7.7252441138523098       -7.7304246949225393        0.0000000000000000     
 PAO| ======================= Iteration:        11 =============================

     Lanczos converged:  T threshold:   0.100E-02
     Est. extremal eigenvalues:    0.267E+01   0.188E+00
     Est. condition number :    0.142E+02
     NS sqrt iter    1 1.00000000   0.680E+00       0.001       63.658
     NS sqrt iter    2 1.00000000   0.310E+00       0.001      105.479
     NS sqrt iter    3 1.00000000   0.664E-01       0.001      110.592
     NS sqrt iter    4 1.00000000   0.128E-02       0.001      110.592
     NS sqrt iter    5 1.00000000   0.187E-07       0.001       48.000
     Final NS sqrt iter    5 1.00000000   0.466E-08

     Est. extremal eigenvalues     -0.91494     1.60996  converged:  T
     TRS4 it   1 1.00000000   0.863E+00       0.000       16.128   0.100E-07
     TRS4 it   2 1.00000000   0.600E+00       0.001       32.256   0.100E-07
     TRS4 it   3 1.00000000   0.405E+00       0.001       32.256   0.100E-07
     TRS4 it   4 1.00000000   0.204E+00       0.001       32.256   0.100E-07
     TRS4 it   5 1.00000000   0.639E-01       0.001       32.256   0.100E-07
     TRS4 it   6 1.00000000   0.730E-02       0.001       32.256   0.100E-07
     TRS4 it   7 1.00000000   0.118E-03       0.001       32.256   0.100E-07
     TRS4 it   8 1.00000000   0.430E-07       0.001       32.256   0.100E-07
     Final TRS4 iteration    8 1.00000000   0.430E-07
     Chemical potential (mu):      -0.00006
 
 PAO| energy:  -7.7285727040240140      penalty:   1.5234773258575001E-005
 PAO|LS| adapt:  T T T
 PAO|LS| adapt: scan_steps:    0.0000000000000000       0.23150440941800302       0.46300881883600603     
 PAO|LS| adapt: energies:   -7.7252441138523098       -7.7304246949225393       -7.7285727040240140     
 PAO|LS| adapt: suggested step_size:   0.28629114358287161     
 PAO|LS| adapt: predicted energy  -7.7306216270083468     
 PAO| ======================= Iteration:        12 =============================

     Lanczos converged:  T threshold:   0.100E-02
     Est. extremal eigenvalues:    0.270E+01   0.184E+00
     Est. condition number :    0.147E+02
     NS sqrt iter    1 1.00000000   0.686E+00       0.001       64.512
     NS sqrt iter    2 1.00000000   0.317E+00       0.001      110.592
     NS sqrt iter    3 1.00000000   0.703E-01       0.001      110.592
     NS sqrt iter    4 1.00000000   0.151E-02       0.001      110.592
     NS sqrt iter    5 1.00000000   0.310E-07       0.001       55.040
     Final NS sqrt iter    5 1.00000000   0.565E-08

     Est. extremal eigenvalues     -0.91531     1.60721  converged:  T
     TRS4 it   1 1.00000000   0.862E+00       0.000       16.128   0.100E-07
     TRS4 it   2 1.00000000   0.599E+00       0.001       32.256   0.100E-07
     TRS4 it   3 1.00000000   0.405E+00       0.001       32.256   0.100E-07
     TRS4 it   4 1.00000000   0.205E+00       0.001       32.256   0.100E-07
     TRS4 it   5 1.00000000   0.648E-01       0.001       32.256   0.100E-07
     TRS4 it   6 1.00000000   0.755E-02       0.001       32.256   0.100E-07
     TRS4 it   7 1.00000000   0.127E-03       0.001       32.256   0.100E-07
     TRS4 it   8 1.00000000   0.507E-07       0.001       32.256   0.100E-07
     Final TRS4 iteration    8 1.00000000   0.507E-07
     Chemical potential (mu):      -0.00191
 
 PAO| energy:  -7.7306057084500939      penalty:   1.4172762084023870E-005
 PAO|CG| trace_G_new    1.2474745780641719E-002
 PAO|CG| trace_G_prev    3.8472555559757919E-002
 PAO|CG| trace_G_mix   -5.4860106111822063E-004
 PAO|CG| trace_D    4.6955621144179560E-002
 PAO|CG| trace_D_Gnew   2.5732718797581429E-004
 PAO|CG| beta:   0.33851005352455160     
 PAO| norm of gradient:  0.11169040147050111     
 PAO| energy improvement:  -5.3615945977840695E-003
 PAO| step     12                   -7.730605708  0.698E-02  0.286E+00     0.048
 PAO|LS| adapt:  T F F
 PAO|LS| adapt: scan_steps:    0.0000000000000000        0.0000000000000000        0.0000000000000000     
 PAO|LS| adapt: energies:   -7.7306057084500939        0.0000000000000000        0.0000000000000000     
 PAO| ======================= Iteration:        13 =============================

     Lanczos converged:  T threshold:   0.100E-02
     Est. extremal eigenvalues:    0.267E+01   0.188E+00
     Est. condition number :    0.142E+02
     NS sqrt iter    1 1.00000000   0.679E+00       0.001       64.512
     NS sqrt iter    2 1.00000000   0.310E+00       0.001      110.592
     NS sqrt iter    3 1.00000000   0.663E-01       0.001      110.592
     NS sqrt iter    4 1.00000000   0.128E-02       0.001      110.592
     NS sqrt iter    5 1.00000000   0.193E-07       0.001       49.664
     Final NS sqrt iter    5 1.00000000   0.320E-08

     Est. extremal eigenvalues     -0.91576     1.60723  converged:  T
     TRS4 it   1 1.00000000   0.864E+00       0.000       16.128   0.100E-07
     TRS4 it   2 1.00000000   0.598E+00       0.001       32.256   0.100E-07
     TRS4 it   3 1.00000000   0.402E+00       0.001       32.256   0.100E-07
     TRS4 it   4 1.00000000   0.201E+00       0.001       32.256   0.100E-07
     TRS4 it   5 1.00000000   0.620E-01       0.001       32.256   0.100E-07
     TRS4 it   6 1.00000000   0.686E-02       0.001       32.256   0.100E-07
     TRS4 it   7 1.00000000   0.104E-03       0.001       32.256   0.100E-07
     TRS4 it   8 1.00000000   0.336E-07       0.001       32.256   0.100E-07
     Final TRS4 iteration    8 1.00000000   0.336E-07
     Chemical potential (mu):       0.00181
 
 PAO| energy:  -7.7327458022821736      penalty:   1.4511666769360667E-005
 PAO|LS| adapt:  T T F
 PAO|LS| adapt: scan_steps:    0.0000000000000000       0.28629114358287161        0.0000000000000000     
 PAO|LS| adapt: energies:   -7.7306057084500939       -7.7327458022821736        0.0000000000000000     
 PAO| ======================= Iteration:        14 =============================

     Lanczos converged:  T threshold:   0.100E-02
     Est. extremal eigenvalues:    0.264E+01   0.192E+00
     Est. condition number :    0.138E+02
     NS sqrt iter    1 1.00000000   0.673E+00       0.001       64.512
     NS sqrt iter    2 1.00000000   0.303E+00       0.001      110.592
     NS sqrt iter    3 1.00000000   0.626E-01       0.001      110.592
     NS sqrt iter    4 1.00000000   0.109E-02       0.001      110.592
     NS sqrt iter    5 1.00000000   0.120E-07       0.001       46.080
     Final NS sqrt iter    5 1.00000000   0.221E-08

     Est. extremal eigenvalues     -0.91571     1.60741  converged:  T
     TRS4 it   1 1.00000000   0.865E+00       0.000       16.128   0.100E-07
     TRS4 it   2 1.00000000   0.597E+00       0.001       32.256   0.100E-07
     TRS4 it   3 1.00000000   0.400E+00       0.001       32.256   0.100E-07
     TRS4 it   4 1.00000000   0.198E+00       0.001       32.256   0.100E-07
     TRS4 it   5 1.00000000   0.594E-01       0.001       32.256   0.100E-07
     TRS4 it   6 1.00000000   0.624E-02       0.001       32.256   0.100E-07
     TRS4 it   7 1.00000000   0.851E-04       0.001       32.256   0.100E-07
     TRS4 it   8 1.00000000   0.224E-07       0.001       32.256   0.100E-07
     Final TRS4 iteration    8 1.00000000   0.224E-07
     Chemical potential (mu):       0.00543
 
 PAO| energy:  -7.7321232610907185      penalty:   1.5328907698630556E-005
 PAO|LS| adapt:  T T T
 PAO|LS| adapt: scan_steps:    0.0000000000000000       0.28629114358287161       0.57258228716574322     
 PAO|LS| adapt: energies:   -7.7306057084500939       -7.7327458022821736       -7.7321232610907185     
 PAO|LS| adapt: suggested step_size:   0.36492293483116400     
 PAO|LS| adapt: predicted energy  -7.7328500037961927     
 PAO| ======================= Iteration:        15 =============================

     Lanczos converged:  T threshold:   0.100E-02
     Est. extremal eigenvalues:    0.266E+01   0.189E+00
     Est. condition number :    0.141E+02
     NS sqrt iter    1 1.00000000   0.677E+00       0.001       64.512
     NS sqrt iter    2 1.00000000   0.308E+00       0.001      110.592
     NS sqrt iter    3 1.00000000   0.652E-01       0.001      110.592
     NS sqrt iter    4 1.00000000   0.123E-02       0.001      110.592
     NS sqrt iter    5 1.00000000   0.169E-07       0.001       47.616
     Final NS sqrt iter    5 1.00000000   0.442E-08

     Est. extremal eigenvalues     -0.91580     1.60727  converged:  T
     TRS4 it   1 1.00000000   0.864E+00       0.000       16.128   0.100E-07
     TRS4 it   2 1.00000000   0.597E+00       0.001       32.256   0.100E-07
     TRS4 it   3 1.00000000   0.401E+00       0.001       32.256   0.100E-07
     TRS4 it   4 1.00000000   0.200E+00       0.001       32.256   0.100E-07
     TRS4 it   5 1.00000000   0.613E-01       0.001       32.256   0.100E-07
     TRS4 it   6 1.00000000   0.668E-02       0.001       32.256   0.100E-07
     TRS4 it   7 1.00000000   0.983E-04       0.001       32.256   0.100E-07
     TRS4 it   8 1.00000000   0.300E-07       0.001       32.256   0.100E-07
     Final TRS4 iteration    8 1.00000000   0.300E-07
     Chemical potential (mu):       0.00282
 
 PAO| energy:  -7.7328467919150432      penalty:   1.4685129739903290E-005
 PAO|CG| trace_G_new    2.6854637691029171E-003
 PAO|CG| trace_G_prev    1.2474745780641719E-002
 PAO|CG| trace_G_mix    9.2725962153800769E-005
 PAO|CG| trace_D    1.7681130416930049E-002
 PAO|CG| trace_D_Gnew   3.4272404958937856E-005
 PAO|CG| beta:   0.20783892934896683     
 PAO| norm of gradient:   5.1821460507234997E-002
 PAO| energy improvement:  -2.2410834649493339E-003
 PAO| step     15                   -7.732846792  0.324E-02  0.365E+00     0.047
 PAO|LS| adapt:  T F F
 PAO|LS| adapt: scan_steps:    0.0000000000000000        0.0000000000000000        0.0000000000000000     
 PAO|LS| adapt: energies:   -7.7328467919150432        0.0000000000000000        0.0000000000000000     
 PAO| ======================= Iteration:        16 =============================

     Lanczos converged:  T threshold:   0.100E-02
     Est. extremal eigenvalues:    0.265E+01   0.189E+00
     Est. condition number :    0.140E+02
     NS sqrt iter    1 1.00000000   0.676E+00       0.001       64.512
     NS sqrt iter    2 1.00000000   0.307E+00       0.001      110.592
     NS sqrt iter    3 1.00000000   0.647E-01       0.001      110.592
     NS sqrt iter    4 1.00000000   0.120E-02       0.001      110.592
     NS sqrt iter    5 1.00000000   0.153E-07       0.001       46.080
     Final NS sqrt iter    5 1.00000000   0.490E-08

     Est. extremal eigenvalues     -0.91582     1.60740  converged:  T
     TRS4 it   1 1.00000000   0.865E+00       0.000       16.128   0.100E-07
     TRS4 it   2 1.00000000   0.597E+00       0.001       32.256   0.100E-07
     TRS4 it   3 1.00000000   0.400E+00       0.001       32.256   0.100E-07
     TRS4 it   4 1.00000000   0.199E+00       0.001       32.256   0.100E-07
     TRS4 it   5 1.00000000   0.603E-01       0.001       32.256   0.100E-07
     TRS4 it   6 1.00000000   0.648E-02       0.001       32.256   0.100E-07
     TRS4 it   7 1.00000000   0.931E-04       0.001       32.256   0.100E-07
     TRS4 it   8 1.00000000   0.272E-07       0.001       32.256   0.100E-07
     Final TRS4 iteration    8 1.00000000   0.272E-07
     Chemical potential (mu):       0.00359
 
 PAO| energy:  -7.7329958091550868      penalty:   1.4491735359440853E-005
 PAO|LS| adapt:  T T F
 PAO|LS| adapt: scan_steps:    0.0000000000000000       0.36492293483116400        0.0000000000000000     
 PAO|LS| adapt: energies:   -7.7328467919150432       -7.7329958091550868        0.0000000000000000     
 PAO| ======================= Iteration:        17 =============================

     Lanczos converged:  T threshold:   0.100E-02
     Est. extremal eigenvalues:    0.264E+01   0.190E+00
     Est. condition number :    0.139E+02
     NS sqrt iter    1 1.00000000   0.674E+00       0.001       64.512
     NS sqrt iter    2 1.00000000   0.306E+00       0.001      110.592
     NS sqrt iter    3 1.00000000   0.642E-01       0.001      110.592
     NS sqrt iter    4 1.00000000   0.117E-02       0.001      110.592
     NS sqrt iter    5 1.00000000   0.141E-07       0.001       46.080
     Final NS sqrt iter    5 1.00000000   0.397E-08

     Est. extremal eigenvalues     -0.91568     1.60766  converged:  T
     TRS4 it   1 1.00000000   0.865E+00       0.000       16.128   0.100E-07
     TRS4 it   2 1.00000000   0.596E+00       0.001       32.256   0.100E-07
     TRS4 it   3 1.00000000   0.399E+00       0.001       32.256   0.100E-07
     TRS4 it   4 1.00000000   0.197E+00       0.001       32.256   0.100E-07
     TRS4 it   5 1.00000000   0.593E-01       0.001       32.256   0.100E-07
     TRS4 it   6 1.00000000   0.629E-02       0.001       32.256   0.100E-07
     TRS4 it   7 1.00000000   0.883E-04       0.001       32.256   0.100E-07
     TRS4 it   8 1.00000000   0.247E-07       0.001       32.256   0.100E-07
     Final TRS4 iteration    8 1.00000000   0.247E-07
     Chemical potential (mu):       0.00434
 
 PAO| energy:  -7.7314827549323590      penalty:   1.4418796736486038E-005
 PAO|LS| adapt:  T T T
 PAO|LS| adapt: scan_steps:    0.0000000000000000       0.36492293483116400       0.72984586966232801     
 PAO|LS| adapt: energies:   -7.7328467919150432       -7.7329958091550868       -7.7314827549323590     
 PAO|LS| adapt: suggested step_size:   0.21517956034671717     
 PAO|LS| adapt: predicted energy  -7.7331357397275537     
 PAO| ======================= Iteration:        18 =============================

     Lanczos converged:  T threshold:   0.100E-02
     Est. extremal eigenvalues:    0.265E+01   0.189E+00
     Est. condition number :    0.140E+02
     NS sqrt iter    1 1.00000000   0.676E+00       0.001       64.512
     NS sqrt iter    2 1.00000000   0.308E+00       0.001      110.592
     NS sqrt iter    3 1.00000000   0.649E-01       0.001      110.592
     NS sqrt iter    4 1.00000000   0.121E-02       0.001      110.592
     NS sqrt iter    5 1.00000000   0.158E-07       0.001       46.080
     Final NS sqrt iter    5 1.00000000   0.510E-08

     Est. extremal eigenvalues     -0.91583     1.60733  converged:  T
     TRS4 it   1 1.00000000   0.865E+00       0.000       16.128   0.100E-07
     TRS4 it   2 1.00000000   0.597E+00       0.001       32.256   0.100E-07
     TRS4 it   3 1.00000000   0.401E+00       0.001       32.256   0.100E-07
     TRS4 it   4 1.00000000   0.200E+00       0.001       32.256   0.100E-07
     TRS4 it   5 1.00000000   0.607E-01       0.001       32.256   0.100E-07
     TRS4 it   6 1.00000000   0.656E-02       0.001       32.256   0.100E-07
     TRS4 it   7 1.00000000   0.952E-04       0.001       32.256   0.100E-07
     TRS4 it   8 1.00000000   0.283E-07       0.001       32.256   0.100E-07
     Final TRS4 iteration    8 1.00000000   0.283E-07
     Chemical potential (mu):       0.00327
 
 PAO| energy:  -7.7331353206042763      penalty:   1.4556810750819420E-005
 PAO|CG| trace_G_new    7.6109717835256760E-004
 PAO|CG| trace_G_prev    2.6854637691029171E-003
 PAO|CG| trace_G_mix    1.0055253429601540E-006
 PAO|CG| trace_D    3.4349896432162284E-003
 PAO|CG| trace_D_Gnew  -1.7396363295191094E-006
 PAO|CG| beta:   0.28303925070771563     
 PAO| norm of gradient:   2.7587989748304748E-002
 PAO| energy improvement:  -2.8852868923312514E-004
 PAO| step     18                   -7.733135321  0.172E-02  0.215E+00     0.046
 PAO|LS| adapt:  T F F
 PAO|LS| adapt: scan_steps:    0.0000000000000000        0.0000000000000000        0.0000000000000000     
 PAO|LS| adapt: energies:   -7.7331353206042763        0.0000000000000000        0.0000000000000000     
 PAO| ======================= Iteration:        19 =============================

     Lanczos converged:  T threshold:   0.100E-02
     Est. extremal eigenvalues:    0.265E+01   0.189E+00
     Est. condition number :    0.140E+02
     NS sqrt iter    1 1.00000000   0.676E+00       0.001       64.512
     NS sqrt iter    2 1.00000000   0.308E+00       0.001      110.592
     NS sqrt iter    3 1.00000000   0.651E-01       0.001      110.592
     NS sqrt iter    4 1.00000000   0.122E-02       0.001      110.592
     NS sqrt iter    5 1.00000000   0.161E-07       0.001       46.080
     Final NS sqrt iter    5 1.00000000   0.514E-08

     Est. extremal eigenvalues     -0.91583     1.60772  converged:  T
     TRS4 it   1 1.00000000   0.865E+00       0.000       16.128   0.100E-07
     TRS4 it   2 1.00000000   0.597E+00       0.001       32.256   0.100E-07
     TRS4 it   3 1.00000000   0.401E+00       0.001       32.256   0.100E-07
     TRS4 it   4 1.00000000   0.199E+00       0.001       32.256   0.100E-07
     TRS4 it   5 1.00000000   0.607E-01       0.001       32.256   0.100E-07
     TRS4 it   6 1.00000000   0.657E-02       0.001       32.256   0.100E-07
     TRS4 it   7 1.00000000   0.960E-04       0.001       32.256   0.100E-07
     TRS4 it   8 1.00000000   0.290E-07       0.001       32.256   0.100E-07
     Final TRS4 iteration    8 1.00000000   0.290E-07
     Chemical potential (mu):       0.00305
 
 PAO| energy:  -7.7332587460091053      penalty:   1.4277264919145654E-005
 PAO|LS| adapt:  T T F
 PAO|LS| adapt: scan_steps:    0.0000000000000000       0.21517956034671717        0.0000000000000000     
 PAO|LS| adapt: energies:   -7.7331353206042763       -7.7332587460091053        0.0000000000000000     
 PAO| ======================= Iteration:        20 =============================

     Lanczos converged:  T threshold:   0.100E-02
     Est. extremal eigenvalues:    0.265E+01   0.189E+00
     Est. condition number :    0.141E+02
     NS sqrt iter    1 1.00000000   0.676E+00       0.001       64.512
     NS sqrt iter    2 1.00000000   0.308E+00       0.001      110.592
     NS sqrt iter    3 1.00000000   0.654E-01       0.001      110.592
     NS sqrt iter    4 1.00000000   0.123E-02       0.001      110.592
     NS sqrt iter    5 1.00000000   0.164E-07       0.001       46.080
     Final NS sqrt iter    5 1.00000000   0.517E-08

     Est. extremal eigenvalues     -0.91583     1.60812  converged:  T
     TRS4 it   1 1.00000000   0.865E+00       0.000       16.128   0.100E-07
     TRS4 it   2 1.00000000   0.597E+00       0.001       32.256   0.100E-07
     TRS4 it   3 1.00000000   0.401E+00       0.001       32.256   0.100E-07
     TRS4 it   4 1.00000000   0.199E+00       0.001       32.256   0.100E-07
     TRS4 it   5 1.00000000   0.606E-01       0.001       32.256   0.100E-07
     TRS4 it   6 1.00000000   0.658E-02       0.001       32.256   0.100E-07
     TRS4 it   7 1.00000000   0.968E-04       0.001       32.256   0.100E-07
     TRS4 it   8 1.00000000   0.297E-07       0.001       32.256   0.100E-07
     Final TRS4 iteration    8 1.00000000   0.297E-07
     Chemical potential (mu):       0.00281
 
 PAO| energy:  -7.7333008235828027      penalty:   1.4010693578648353E-005
 PAO|LS| adapt:  T T F
 PAO|LS| adapt: scan_steps:    0.0000000000000000       0.43035912069343435        0.0000000000000000     
 PAO|LS| adapt: energies:   -7.7331353206042763       -7.7333008235828027        0.0000000000000000     
 PAO| ======================= Iteration:        21 =============================

     Lanczos converged:  T threshold:   0.100E-02
     Est. extremal eigenvalues:    0.266E+01   0.188E+00
     Est. condition number :    0.141E+02
     NS sqrt iter    1 1.00000000   0.677E+00       0.001       64.512
     NS sqrt iter    2 1.00000000   0.309E+00       0.001      110.592
     NS sqrt iter    3 1.00000000   0.659E-01       0.001      110.592
     NS sqrt iter    4 1.00000000   0.125E-02       0.001      110.592
     NS sqrt iter    5 1.00000000   0.172E-07       0.001       47.744
     Final NS sqrt iter    5 1.00000000   0.381E-08

     Est. extremal eigenvalues     -0.91581     1.60893  converged:  T
     TRS4 it   1 1.00000000   0.865E+00       0.000       16.128   0.100E-07
     TRS4 it   2 1.00000000   0.597E+00       0.001       32.256   0.100E-07
     TRS4 it   3 1.00000000   0.400E+00       0.001       32.256   0.100E-07
     TRS4 it   4 1.00000000   0.199E+00       0.001       32.256   0.100E-07
     TRS4 it   5 1.00000000   0.605E-01       0.001       32.256   0.100E-07
     TRS4 it   6 1.00000000   0.659E-02       0.001       32.256   0.100E-07
     TRS4 it   7 1.00000000   0.986E-04       0.001       32.256   0.100E-07
     TRS4 it   8 1.00000000   0.312E-07       0.001       32.256   0.100E-07
     Final TRS4 iteration    8 1.00000000   0.312E-07
     Chemical potential (mu):       0.00234
 
 PAO| energy:  -7.7331382560240662      penalty:   1.3515927239627324E-005
 PAO|LS| Need extra step
 PAO|LS| adapt:  T T T
 PAO|LS| adapt: scan_steps:    0.0000000000000000       0.43035912069343435       0.86071824138686870     
 PAO|LS| adapt: energies:   -7.7331353206042763       -7.7333008235828027       -7.7331382560240662     
 PAO|LS| adapt: suggested step_size:   0.43228444548820305     
 PAO|LS| adapt: predicted energy  -7.7333008268658965     
 PAO| ======================= Iteration:        22 =============================

     Lanczos converged:  T threshold:   0.100E-02
     Est. extremal eigenvalues:    0.265E+01   0.189E+00
     Est. condition number :    0.141E+02
     NS sqrt iter    1 1.00000000   0.676E+00       0.001       64.512
     NS sqrt iter    2 1.00000000   0.308E+00       0.001      110.592
     NS sqrt iter    3 1.00000000   0.654E-01       0.001      110.592
     NS sqrt iter    4 1.00000000   0.123E-02       0.001      110.592
     NS sqrt iter    5 1.00000000   0.164E-07       0.001       46.080
     Final NS sqrt iter    5 1.00000000   0.517E-08

     Est. extremal eigenvalues     -0.91583     1.60812  converged:  T
     TRS4 it   1 1.00000000   0.865E+00       0.000       16.128   0.100E-07
     TRS4 it   2 1.00000000   0.597E+00       0.001       32.256   0.100E-07
     TRS4 it   3 1.00000000   0.401E+00       0.001       32.256   0.100E-07
     TRS4 it   4 1.00000000   0.199E+00       0.001       32.256   0.100E-07
     TRS4 it   5 1.00000000   0.606E-01       0.001       32.256   0.100E-07
     TRS4 it   6 1.00000000   0.658E-02       0.001       32.256   0.100E-07
     TRS4 it   7 1.00000000   0.969E-04       0.001       32.256   0.100E-07
     TRS4 it   8 1.00000000   0.297E-07       0.001       32.256   0.100E-07
     Final TRS4 iteration    8 1.00000000   0.297E-07
     Chemical potential (mu):       0.00281
 
 PAO| energy:  -7.7333008308777114      penalty:   1.4008366456122826E-005
 PAO|CG| trace_G_new    2.1603569665833717E-004
 PAO|CG| trace_G_prev    7.6109717835256760E-004
 PAO|CG| trace_G_mix    3.4573165683180955E-006
 PAO|CG| trace_D    1.0372631512949042E-003
 PAO|CG| trace_D_Gnew  -2.0869892788092281E-006
 PAO|CG| beta:   0.27930517434075303     
 PAO| norm of gradient:   1.4698152831506998E-002
 PAO| energy improvement:  -1.6551027343503222E-004
 PAO| step     22                   -7.733300831  0.919E-03  0.432E+00     0.060
 PAO|LS| adapt:  T F F
 PAO|LS| adapt: scan_steps:    0.0000000000000000        0.0000000000000000        0.0000000000000000     
 PAO|LS| adapt: energies:   -7.7333008308777114        0.0000000000000000        0.0000000000000000     
 PAO| ======================= Iteration:        23 =============================

     Lanczos converged:  T threshold:   0.100E-02
     Est. extremal eigenvalues:    0.266E+01   0.189E+00
     Est. condition number :    0.141E+02
     NS sqrt iter    1 1.00000000   0.676E+00       0.001       64.512
     NS sqrt iter    2 1.00000000   0.308E+00       0.001      110.592
     NS sqrt iter    3 1.00000000   0.654E-01       0.001      110.592
     NS sqrt iter    4 1.00000000   0.123E-02       0.001      110.592
     NS sqrt iter    5 1.00000000   0.164E-07       0.001       46.080
     Final NS sqrt iter    5 1.00000000   0.516E-08

     Est. extremal eigenvalues     -0.91583     1.60845  converged:  T
     TRS4 it   1 1.00000000   0.865E+00       0.000       16.128   0.100E-07
     TRS4 it   2 1.00000000   0.597E+00       0.001       32.256   0.100E-07
     TRS4 it   3 1.00000000   0.401E+00       0.001       32.256   0.100E-07
     TRS4 it   4 1.00000000   0.200E+00       0.001       32.256   0.100E-07
     TRS4 it   5 1.00000000   0.608E-01       0.001       32.256   0.100E-07
     TRS4 it   6 1.00000000   0.663E-02       0.001       32.256   0.100E-07
     TRS4 it   7 1.00000000   0.988E-04       0.001       32.256   0.100E-07
     TRS4 it   8 1.00000000   0.310E-07       0.001       32.256   0.100E-07
     Final TRS4 iteration    8 1.00000000   0.310E-07
     Chemical potential (mu):       0.00246
 
 PAO| energy:  -7.7333429021586806      penalty:   1.3381005528350290E-005
 PAO|LS| adapt:  T T F
 PAO|LS| adapt: scan_steps:    0.0000000000000000       0.43228444548820305        0.0000000000000000     
 PAO|LS| adapt: energies:   -7.7333008308777114       -7.7333429021586806        0.0000000000000000     
 PAO| ======================= Iteration:        24 =============================

     Lanczos converged:  T threshold:   0.100E-02
     Est. extremal eigenvalues:    0.266E+01   0.189E+00
     Est. condition number :    0.141E+02
     NS sqrt iter    1 1.00000000   0.677E+00       0.001       64.512
     NS sqrt iter    2 1.00000000   0.308E+00       0.001      110.592
     NS sqrt iter    3 1.00000000   0.655E-01       0.001      110.592
     NS sqrt iter    4 1.00000000   0.123E-02       0.001      110.592
     NS sqrt iter    5 1.00000000   0.165E-07       0.001       46.080
     Final NS sqrt iter    5 1.00000000   0.514E-08

     Est. extremal eigenvalues     -0.91582     1.60878  converged:  T
     TRS4 it   1 1.00000000   0.865E+00       0.000       16.128   0.100E-07
     TRS4 it   2 1.00000000   0.597E+00       0.001       32.256   0.100E-07
     TRS4 it   3 1.00000000   0.401E+00       0.001       32.256   0.100E-07
     TRS4 it   4 1.00000000   0.200E+00       0.001       32.256   0.100E-07
     TRS4 it   5 1.00000000   0.610E-01       0.001       32.256   0.100E-07
     TRS4 it   6 1.00000000   0.668E-02       0.001       32.256   0.100E-07
     TRS4 it   7 1.00000000   0.101E-03       0.001       32.256   0.100E-07
     TRS4 it   8 1.00000000   0.323E-07       0.001       32.256   0.100E-07
     Final TRS4 iteration    8 1.00000000   0.323E-07
     Chemical potential (mu):       0.00210
 
 PAO| energy:  -7.7332813005697707      penalty:   1.2778089275361145E-005
 PAO|LS| adapt:  T T T
 PAO|LS| adapt: scan_steps:    0.0000000000000000       0.43228444548820305       0.86456889097640610     
 PAO|LS| adapt: energies:   -7.7333008308777114       -7.7333429021586806       -7.7332813005697707     
 PAO|LS| adapt: suggested step_size:   0.39156671312395097     
 PAO|LS| adapt: predicted energy  -7.7333433620583270     
 PAO| ======================= Iteration:        25 =============================

     Lanczos converged:  T threshold:   0.100E-02
     Est. extremal eigenvalues:    0.266E+01   0.189E+00
     Est. condition number :    0.141E+02
     NS sqrt iter    1 1.00000000   0.676E+00       0.001       64.512
     NS sqrt iter    2 1.00000000   0.308E+00       0.001      110.592
     NS sqrt iter    3 1.00000000   0.654E-01       0.001      110.592
     NS sqrt iter    4 1.00000000   0.123E-02       0.001      110.592
     NS sqrt iter    5 1.00000000   0.164E-07       0.001       46.080
     Final NS sqrt iter    5 1.00000000   0.516E-08

     Est. extremal eigenvalues     -0.91583     1.60842  converged:  T
     TRS4 it   1 1.00000000   0.865E+00       0.000       16.128   0.100E-07
     TRS4 it   2 1.00000000   0.597E+00       0.001       32.256   0.100E-07
     TRS4 it   3 1.00000000   0.401E+00       0.001       32.256   0.100E-07
     TRS4 it   4 1.00000000   0.200E+00       0.001       32.256   0.100E-07
     TRS4 it   5 1.00000000   0.608E-01       0.001       32.256   0.100E-07
     TRS4 it   6 1.00000000   0.663E-02       0.001       32.256   0.100E-07
     TRS4 it   7 1.00000000   0.986E-04       0.001       32.256   0.100E-07
     TRS4 it   8 1.00000000   0.309E-07       0.001       32.256   0.100E-07
     Final TRS4 iteration    8 1.00000000   0.309E-07
     Chemical potential (mu):       0.00249
 
 PAO| energy:  -7.7333433495329498      penalty:   1.3439047559383555E-005
 PAO|CG| trace_G_new    6.7397350084467809E-005
 PAO|CG| trace_G_prev    2.1603569665833717E-004
 PAO|CG| trace_G_mix    3.8912018099677794E-007
 PAO|CG| trace_D    2.9811984075165906E-004
 PAO|CG| trace_D_Gnew  -3.0577561437720278E-007
 PAO|CG| beta:   0.31017202684538420     
 PAO| norm of gradient:   8.2095889108083717E-003
 PAO| energy improvement:  -4.2518655238410474E-005
 PAO| step     25                   -7.733343350  0.513E-03  0.392E+00     0.046
 PAO|LS| adapt:  T F F
 PAO|LS| adapt: scan_steps:    0.0000000000000000        0.0000000000000000        0.0000000000000000     
 PAO|LS| adapt: energies:   -7.7333433495329498        0.0000000000000000        0.0000000000000000     
 PAO| ======================= Iteration:        26 =============================

     Lanczos converged:  T threshold:   0.100E-02
     Est. extremal eigenvalues:    0.265E+01   0.189E+00
     Est. condition number :    0.140E+02
     NS sqrt iter    1 1.00000000   0.676E+00       0.001       64.512
     NS sqrt iter    2 1.00000000   0.308E+00       0.001      110.592
     NS sqrt iter    3 1.00000000   0.653E-01       0.001      110.592
     NS sqrt iter    4 1.00000000   0.122E-02       0.001      110.592
     NS sqrt iter    5 1.00000000   0.163E-07       0.001       46.080
     Final NS sqrt iter    5 1.00000000   0.512E-08

     Est. extremal eigenvalues     -0.91583     1.60827  converged:  T
     TRS4 it   1 1.00000000   0.865E+00       0.000       16.128   0.100E-07
     TRS4 it   2 1.00000000   0.597E+00       0.001       32.256   0.100E-07
     TRS4 it   3 1.00000000   0.401E+00       0.001       32.256   0.100E-07
     TRS4 it   4 1.00000000   0.199E+00       0.001       32.256   0.100E-07
     TRS4 it   5 1.00000000   0.608E-01       0.001       32.256   0.100E-07
     TRS4 it   6 1.00000000   0.662E-02       0.001       32.256   0.100E-07
     TRS4 it   7 1.00000000   0.984E-04       0.001       32.256   0.100E-07
     TRS4 it   8 1.00000000   0.308E-07       0.001       32.256   0.100E-07
     Final TRS4 iteration    8 1.00000000   0.308E-07
     Chemical potential (mu):       0.00251
 
 PAO| energy:  -7.7333469766382441      penalty:   1.2844579571074910E-005
 PAO|LS| adapt:  T T F
 PAO|LS| adapt: scan_steps:    0.0000000000000000       0.39156671312395097        0.0000000000000000     
 PAO|LS| adapt: energies:   -7.7333433495329498       -7.7333469766382441        0.0000000000000000     
 PAO| ======================= Iteration:        27 =============================

     Lanczos converged:  T threshold:   0.100E-02
     Est. extremal eigenvalues:    0.265E+01   0.189E+00
     Est. condition number :    0.140E+02
     NS sqrt iter    1 1.00000000   0.676E+00       0.001       64.512
     NS sqrt iter    2 1.00000000   0.308E+00       0.001      110.592
     NS sqrt iter    3 1.00000000   0.652E-01       0.001      110.592
     NS sqrt iter    4 1.00000000   0.122E-02       0.001      110.592
     NS sqrt iter    5 1.00000000   0.161E-07       0.001       46.080
     Final NS sqrt iter    5 1.00000000   0.509E-08

     Est. extremal eigenvalues     -0.91583     1.60812  converged:  T
     TRS4 it   1 1.00000000   0.865E+00       0.000       16.128   0.100E-07
     TRS4 it   2 1.00000000   0.597E+00       0.001       32.256   0.100E-07
     TRS4 it   3 1.00000000   0.401E+00       0.001       32.256   0.100E-07
     TRS4 it   4 1.00000000   0.199E+00       0.001       32.256   0.100E-07
     TRS4 it   5 1.00000000   0.607E-01       0.001       32.256   0.100E-07
     TRS4 it   6 1.00000000   0.662E-02       0.001       32.256   0.100E-07
     TRS4 it   7 1.00000000   0.983E-04       0.001       32.256   0.100E-07
     TRS4 it   8 1.00000000   0.307E-07       0.001       32.256   0.100E-07
     Final TRS4 iteration    8 1.00000000   0.307E-07
     Chemical potential (mu):       0.00253
 
 PAO| energy:  -7.7333049353791248      penalty:   1.2265953322906033E-005
 PAO|LS| adapt:  T T T
 PAO|LS| adapt: scan_steps:    0.0000000000000000       0.39156671312395097       0.78313342624790194     
 PAO|LS| adapt: energies:   -7.7333433495329498       -7.7333469766382441       -7.7333049353791248     
 PAO|LS| adapt: suggested step_size:   0.22688264633273458     
 PAO|LS| adapt: predicted energy  -7.7333510156684158     
 PAO| ======================= Iteration:        28 =============================

     Lanczos converged:  T threshold:   0.100E-02
     Est. extremal eigenvalues:    0.265E+01   0.189E+00
     Est. condition number :    0.141E+02
     NS sqrt iter    1 1.00000000   0.676E+00       0.001       64.512
     NS sqrt iter    2 1.00000000   0.308E+00       0.001      110.592
     NS sqrt iter    3 1.00000000   0.654E-01       0.001      110.592
     NS sqrt iter    4 1.00000000   0.123E-02       0.001      110.592
     NS sqrt iter    5 1.00000000   0.163E-07       0.001       46.080
     Final NS sqrt iter    5 1.00000000   0.514E-08

     Est. extremal eigenvalues     -0.91583     1.60833  converged:  T
     TRS4 it   1 1.00000000   0.865E+00       0.000       16.128   0.100E-07
     TRS4 it   2 1.00000000   0.597E+00       0.001       32.256   0.100E-07
     TRS4 it   3 1.00000000   0.401E+00       0.001       32.256   0.100E-07
     TRS4 it   4 1.00000000   0.199E+00       0.001       32.256   0.100E-07
     TRS4 it   5 1.00000000   0.608E-01       0.001       32.256   0.100E-07
     TRS4 it   6 1.00000000   0.662E-02       0.001       32.256   0.100E-07
     TRS4 it   7 1.00000000   0.985E-04       0.001       32.256   0.100E-07
     TRS4 it   8 1.00000000   0.308E-07       0.001       32.256   0.100E-07
     Final TRS4 iteration    8 1.00000000   0.308E-07
     Chemical potential (mu):       0.00250
 
 PAO| energy:  -7.7333510098851237      penalty:   1.3092660316200684E-005
 PAO|CG| trace_G_new    1.6165501568000002E-005
 PAO|CG| trace_G_prev    6.7397350084467809E-005
 PAO|CG| trace_G_mix    2.6818634226590994E-008
 PAO|CG| trace_D    9.6268158148941040E-005
 PAO|CG| trace_D_Gnew  -1.9921308857754918E-008
 PAO|CG| beta:   0.23945574883206991     
 PAO| norm of gradient:   4.0206344733138832E-003
 PAO| energy improvement:  -7.6603521739215807E-006
 PAO| step     28                   -7.733351010  0.251E-03  0.227E+00     0.046
 PAO|LS| adapt:  T F F
 PAO|LS| adapt: scan_steps:    0.0000000000000000        0.0000000000000000        0.0000000000000000     
 PAO|LS| adapt: energies:   -7.7333510098851237        0.0000000000000000        0.0000000000000000     
 PAO| ======================= Iteration:        29 =============================

     Lanczos converged:  T threshold:   0.100E-02
     Est. extremal eigenvalues:    0.265E+01   0.189E+00
     Est. condition number :    0.140E+02
     NS sqrt iter    1 1.00000000   0.676E+00       0.001       64.512
     NS sqrt iter    2 1.00000000   0.308E+00       0.001      110.592
     NS sqrt iter    3 1.00000000   0.653E-01       0.001      110.592
     NS sqrt iter    4 1.00000000   0.122E-02       0.001      110.592
     NS sqrt iter    5 1.00000000   0.163E-07       0.001       46.080
     Final NS sqrt iter    5 1.00000000   0.514E-08

     Est. extremal eigenvalues     -0.91583     1.60830  converged:  T
     TRS4 it   1 1.00000000   0.865E+00       0.000       16.128   0.100E-07
     TRS4 it   2 1.00000000   0.597E+00       0.001       32.256   0.100E-07
     TRS4 it   3 1.00000000   0.401E+00       0.001       32.256   0.100E-07
     TRS4 it   4 1.00000000   0.199E+00       0.001       32.256   0.100E-07
     TRS4 it   5 1.00000000   0.607E-01       0.001       32.256   0.100E-07
     TRS4 it   6 1.00000000   0.661E-02       0.001       32.256   0.100E-07
     TRS4 it   7 1.00000000   0.981E-04       0.001       32.256   0.100E-07
     TRS4 it   8 1.00000000   0.306E-07       0.001       32.256   0.100E-07
     Final TRS4 iteration    8 1.00000000   0.306E-07
     Chemical potential (mu):       0.00257
 
 PAO| energy:  -7.7333541323278236      penalty:   1.2770399881310031E-005
 PAO|LS| adapt:  T T F
 PAO|LS| adapt: scan_steps:    0.0000000000000000       0.22688264633273458        0.0000000000000000     
 PAO|LS| adapt: energies:   -7.7333510098851237       -7.7333541323278236        0.0000000000000000     
 PAO| ======================= Iteration:        30 =============================

     Lanczos converged:  T threshold:   0.100E-02
     Est. extremal eigenvalues:    0.265E+01   0.189E+00
     Est. condition number :    0.140E+02
     NS sqrt iter    1 1.00000000   0.676E+00       0.001       64.512
     NS sqrt iter    2 1.00000000   0.308E+00       0.001      110.592
     NS sqrt iter    3 1.00000000   0.653E-01       0.001      110.592
     NS sqrt iter    4 1.00000000   0.122E-02       0.001      110.592
     NS sqrt iter    5 1.00000000   0.162E-07       0.001       46.080
     Final NS sqrt iter    5 1.00000000   0.514E-08

     Est. extremal eigenvalues     -0.91583     1.60826  converged:  T
     TRS4 it   1 1.00000000   0.865E+00       0.000       16.128   0.100E-07
     TRS4 it   2 1.00000000   0.597E+00       0.001       32.256   0.100E-07
     TRS4 it   3 1.00000000   0.401E+00       0.001       32.256   0.100E-07
     TRS4 it   4 1.00000000   0.199E+00       0.001       32.256   0.100E-07
     TRS4 it   5 1.00000000   0.607E-01       0.001       32.256   0.100E-07
     TRS4 it   6 1.00000000   0.660E-02       0.001       32.256   0.100E-07
     TRS4 it   7 1.00000000   0.977E-04       0.001       32.256   0.100E-07
     TRS4 it   8 1.00000000   0.303E-07       0.001       32.256   0.100E-07
     Final TRS4 iteration    8 1.00000000   0.303E-07
     Chemical potential (mu):       0.00264
 
 PAO| energy:  -7.7333561613855082      penalty:   1.2452403755057984E-005
 PAO|LS| adapt:  T T F
 PAO|LS| adapt: scan_steps:    0.0000000000000000       0.45376529266546917        0.0000000000000000     
 PAO|LS| adapt: energies:   -7.7333510098851237       -7.7333561613855082        0.0000000000000000     
 PAO| ======================= Iteration:        31 =============================

     Lanczos converged:  T threshold:   0.100E-02
     Est. extremal eigenvalues:    0.265E+01   0.189E+00
     Est. condition number :    0.140E+02
     NS sqrt iter    1 1.00000000   0.676E+00       0.001       64.512
     NS sqrt iter    2 1.00000000   0.308E+00       0.001      110.592
     NS sqrt iter    3 1.00000000   0.652E-01       0.001      110.592
     NS sqrt iter    4 1.00000000   0.122E-02       0.001      110.592
     NS sqrt iter    5 1.00000000   0.161E-07       0.001       46.080
     Final NS sqrt iter    5 1.00000000   0.513E-08

     Est. extremal eigenvalues     -0.91583     1.60819  converged:  T
     TRS4 it   1 1.00000000   0.865E+00       0.000       16.128   0.100E-07
     TRS4 it   2 1.00000000   0.597E+00       0.001       32.256   0.100E-07
     TRS4 it   3 1.00000000   0.401E+00       0.001       32.256   0.100E-07
     TRS4 it   4 1.00000000   0.199E+00       0.001       32.256   0.100E-07
     TRS4 it   5 1.00000000   0.606E-01       0.001       32.256   0.100E-07
     TRS4 it   6 1.00000000   0.657E-02       0.001       32.256   0.100E-07
     TRS4 it   7 1.00000000   0.969E-04       0.001       32.256   0.100E-07
     TRS4 it   8 1.00000000   0.298E-07       0.001       32.256   0.100E-07
     Final TRS4 iteration    8 1.00000000   0.298E-07
     Chemical potential (mu):       0.00279
 
 PAO| energy:  -7.7333569378683888      penalty:   1.1829166775185101E-005
 PAO|LS| Need extra step
 PAO|LS| adapt:  T T F
 PAO|LS| adapt: scan_steps:    0.0000000000000000       0.90753058533093833        0.0000000000000000     
 PAO|LS| adapt: energies:   -7.7333510098851237       -7.7333569378683888        0.0000000000000000     
 PAO| ======================= Iteration:        32 =============================

     Lanczos converged:  T threshold:   0.100E-02
     Est. extremal eigenvalues:    0.265E+01   0.189E+00
     Est. condition number :    0.140E+02
     NS sqrt iter    1 1.00000000   0.675E+00       0.001       64.512
     NS sqrt iter    2 1.00000000   0.307E+00       0.001      110.592
     NS sqrt iter    3 1.00000000   0.650E-01       0.001      110.592
     NS sqrt iter    4 1.00000000   0.121E-02       0.001      110.592
     NS sqrt iter    5 1.00000000   0.159E-07       0.001       46.080
     Final NS sqrt iter    5 1.00000000   0.513E-08

     Est. extremal eigenvalues     -0.91584     1.60805  converged:  T
     TRS4 it   1 1.00000000   0.865E+00       0.000       16.128   0.100E-07
     TRS4 it   2 1.00000000   0.597E+00       0.001       32.256   0.100E-07
     TRS4 it   3 1.00000000   0.400E+00       0.001       32.256   0.100E-07
     TRS4 it   4 1.00000000   0.199E+00       0.001       32.256   0.100E-07
     TRS4 it   5 1.00000000   0.604E-01       0.001       32.256   0.100E-07
     TRS4 it   6 1.00000000   0.653E-02       0.001       32.256   0.100E-07
     TRS4 it   7 1.00000000   0.954E-04       0.001       32.256   0.100E-07
     TRS4 it   8 1.00000000   0.288E-07       0.001       32.256   0.100E-07
     Final TRS4 iteration    8 1.00000000   0.288E-07
     Chemical potential (mu):       0.00307
 
 PAO| energy:  -7.7333453539268939      penalty:   1.0633450984270486E-005
 PAO|LS| Need extra step
 PAO|LS| adapt:  T T T
 PAO|LS| adapt: scan_steps:    0.0000000000000000       0.90753058533093833        1.8150611706618767     
 PAO|LS| adapt: energies:   -7.7333510098851237       -7.7333569378683888       -7.7333453539268939     
 PAO|LS| adapt: suggested step_size:   0.76097459125281064     
 PAO|LS| adapt: predicted energy  -7.7333571662118175     
 PAO| ======================= Iteration:        33 =============================

     Lanczos converged:  T threshold:   0.100E-02
     Est. extremal eigenvalues:    0.265E+01   0.189E+00
     Est. condition number :    0.140E+02
     NS sqrt iter    1 1.00000000   0.676E+00       0.001       64.512
     NS sqrt iter    2 1.00000000   0.308E+00       0.001      110.592
     NS sqrt iter    3 1.00000000   0.652E-01       0.001      110.592
     NS sqrt iter    4 1.00000000   0.122E-02       0.001      110.592
     NS sqrt iter    5 1.00000000   0.162E-07       0.001       46.080
     Final NS sqrt iter    5 1.00000000   0.513E-08

     Est. extremal eigenvalues     -0.91583     1.60822  converged:  T
     TRS4 it   1 1.00000000   0.865E+00       0.000       16.128   0.100E-07
     TRS4 it   2 1.00000000   0.597E+00       0.001       32.256   0.100E-07
     TRS4 it   3 1.00000000   0.401E+00       0.001       32.256   0.100E-07
     TRS4 it   4 1.00000000   0.199E+00       0.001       32.256   0.100E-07
     TRS4 it   5 1.00000000   0.606E-01       0.001       32.256   0.100E-07
     TRS4 it   6 1.00000000   0.658E-02       0.001       32.256   0.100E-07
     TRS4 it   7 1.00000000   0.972E-04       0.001       32.256   0.100E-07
     TRS4 it   8 1.00000000   0.300E-07       0.001       32.256   0.100E-07
     Final TRS4 iteration    8 1.00000000   0.300E-07
     Chemical potential (mu):       0.00274
 
 PAO| energy:  -7.7333571655899638      penalty:   1.2028602138883919E-005
 PAO|CG| trace_G_new    3.8375795558382969E-005
 PAO|CG| trace_G_prev    1.6165501568000002E-005
 PAO|CG| trace_G_mix    2.3792379498027504E-008
 PAO|CG| trace_D    2.1694967389163112E-005
 PAO|CG| trace_D_Gnew  -2.9117664499825654E-009
 PAO|CG| beta:    2.3724598347634109     
 PAO| norm of gradient:   6.1948200585959694E-003
 PAO| energy improvement:  -6.1557048400828762E-006
 PAO| step     33                   -7.733357166  0.387E-03  0.761E+00     0.075
 PAO|LS| adapt:  T F F
 PAO|LS| adapt: scan_steps:    0.0000000000000000        0.0000000000000000        0.0000000000000000     
 PAO|LS| adapt: energies:   -7.7333571655899638        0.0000000000000000        0.0000000000000000     
 PAO| ======================= Iteration:        34 =============================

     Lanczos converged:  T threshold:   0.100E-02
     Est. extremal eigenvalues:    0.265E+01   0.189E+00
     Est. condition number :    0.140E+02
     NS sqrt iter    1 1.00000000   0.675E+00       0.001       64.512
     NS sqrt iter    2 1.00000000   0.307E+00       0.001      110.592
     NS sqrt iter    3 1.00000000   0.648E-01       0.001      110.592
     NS sqrt iter    4 1.00000000   0.121E-02       0.001      110.592
     NS sqrt iter    5 1.00000000   0.158E-07       0.001       46.080
     Final NS sqrt iter    5 1.00000000   0.515E-08

     Est. extremal eigenvalues     -0.91585     1.60733  converged:  T
     TRS4 it   1 1.00000000   0.865E+00       0.000       16.128   0.100E-07
     TRS4 it   2 1.00000000   0.597E+00       0.001       32.256   0.100E-07
     TRS4 it   3 1.00000000   0.400E+00       0.001       32.256   0.100E-07
     TRS4 it   4 1.00000000   0.199E+00       0.001       32.256   0.100E-07
     TRS4 it   5 1.00000000   0.601E-01       0.001       32.256   0.100E-07
     TRS4 it   6 1.00000000   0.647E-02       0.001       32.256   0.100E-07
     TRS4 it   7 1.00000000   0.938E-04       0.001       32.256   0.100E-07
     TRS4 it   8 1.00000000   0.278E-07       0.001       32.256   0.100E-07
     Final TRS4 iteration    8 1.00000000   0.278E-07
     Chemical potential (mu):       0.00328
 
 PAO| energy:  -7.7333674667705727      penalty:   9.0377534085597825E-006
 PAO|LS| adapt:  T T F
[...]
 PAO|LS| adapt: scan_steps:    0.0000000000000000       0.20000000000000001        0.0000000000000000     
 PAO|LS| adapt: energies:   -7.7327384102670935       -7.7327384102778689        0.0000000000000000     
 PAO| ======================= Iteration:       883 =============================

     Lanczos converged:  T threshold:   0.100E-02
     Est. extremal eigenvalues:    0.244E+01   0.236E+00
     Est. condition number :    0.104E+02
     NS sqrt iter    1 1.00000000   0.618E+00       0.001       64.512
     NS sqrt iter    2 1.00000000   0.258E+00       0.001      110.592
     NS sqrt iter    3 1.00000000   0.391E-01       0.001      110.592
     NS sqrt iter    4 1.00000000   0.252E-03       0.001      109.312
     NS sqrt iter    5 1.00000000   0.168E-09       0.001       36.864
     Final NS sqrt iter    5 1.00000000   0.711E-10

     Est. extremal eigenvalues     -0.91554     1.41291  converged:  T
     TRS4 it   1 1.00000000   0.820E+00       0.000       16.128   0.100E-07
     TRS4 it   2 1.00000000   0.583E+00       0.001       32.256   0.100E-07
     TRS4 it   3 1.00000000   0.414E+00       0.001       32.256   0.100E-07
     TRS4 it   4 1.00000000   0.250E+00       0.001       32.256   0.100E-07
     TRS4 it   5 1.00000000   0.111E+00       0.001       32.256   0.100E-07
     TRS4 it   6 1.00000000   0.268E-01       0.001       32.256   0.100E-07
     TRS4 it   7 1.00000000   0.204E-02       0.001       32.256   0.100E-07
     TRS4 it   8 1.00000000   0.145E-04       0.001       32.256   0.100E-07
     TRS4 it   9 1.00000000   0.843E-09       0.001       32.256   0.100E-07
     Final TRS4 iteration    9 1.00000000   0.843E-09
     Chemical potential (mu):      -0.07761
 
 PAO| energy:  -7.7327384102752781      penalty:   2.3118221847969071E-011
 PAO|LS| Need extra step
 PAO|LS| adapt:  T T T
 PAO|LS| adapt: scan_steps:    0.0000000000000000       0.20000000000000001       0.40000000000000002     
 PAO|LS| adapt: energies:   -7.7327384102670935       -7.7327384102778689       -7.7327384102752781     
 PAO|LS| adapt: suggested step_size:   0.26123330453850757     
 PAO|LS| adapt: predicted energy  -7.7327384102784933     
 PAO| ======================= Iteration:       884 =============================

     Lanczos converged:  T threshold:   0.100E-02
     Est. extremal eigenvalues:    0.244E+01   0.236E+00
     Est. condition number :    0.104E+02
     NS sqrt iter    1 1.00000000   0.618E+00       0.001       63.905
     NS sqrt iter    2 1.00000000   0.258E+00       0.001      109.780
     NS sqrt iter    3 1.00000000   0.391E-01       0.001      110.592
     NS sqrt iter    4 1.00000000   0.252E-03       0.001      109.312
     NS sqrt iter    5 1.00000000   0.168E-09       0.001       36.864
     Final NS sqrt iter    5 1.00000000   0.711E-10

     Est. extremal eigenvalues     -0.91554     1.41291  converged:  T
     TRS4 it   1 1.00000000   0.820E+00       0.000       16.128   0.100E-07
     TRS4 it   2 1.00000000   0.583E+00       0.001       32.256   0.100E-07
     TRS4 it   3 1.00000000   0.414E+00       0.001       32.256   0.100E-07
     TRS4 it   4 1.00000000   0.250E+00       0.001       32.256   0.100E-07
     TRS4 it   5 1.00000000   0.111E+00       0.001       32.256   0.100E-07
     TRS4 it   6 1.00000000   0.268E-01       0.001       32.256   0.100E-07
     TRS4 it   7 1.00000000   0.204E-02       0.001       32.256   0.100E-07
     TRS4 it   8 1.00000000   0.145E-04       0.001       32.256   0.100E-07
     TRS4 it   9 1.00000000   0.843E-09       0.001       32.256   0.100E-07
     Final TRS4 iteration    9 1.00000000   0.843E-09
     Chemical potential (mu):      -0.07761
 
 PAO| energy:  -7.7327384102784942      penalty:   2.3357062082799998E-011
 PAO|CG| warming up with steepest descent
 PAO|CG| beta:    0.0000000000000000     
 PAO| norm of gradient:   7.1668828106660161E-006
 PAO| energy improvement:  -1.1400658195270807E-011
 PAO| step    884                   -7.732738410  0.448E-06  0.261E+00     0.065
 PAO| converged after          884  steps :-)
 PAO| Recalculating energy after mixing.

     Lanczos converged:  T threshold:   0.100E-02
     Est. extremal eigenvalues:    0.244E+01   0.236E+00
     Est. condition number :    0.104E+02
     NS sqrt iter    1 1.00000000   0.618E+00       0.001       64.512
     NS sqrt iter    2 1.00000000   0.258E+00       0.001      109.614
     NS sqrt iter    3 1.00000000   0.391E-01       0.001      110.592
     NS sqrt iter    4 1.00000000   0.252E-03       0.001      109.312
     NS sqrt iter    5 1.00000000   0.168E-09       0.001       36.864
     Final NS sqrt iter    5 1.00000000   0.711E-10

     Est. extremal eigenvalues     -0.91554     1.41291  converged:  T
     TRS4 it   1 1.00000000   0.820E+00       0.000       16.128   0.100E-07
     TRS4 it   2 1.00000000   0.583E+00       0.001       32.256   0.100E-07
     TRS4 it   3 1.00000000   0.414E+00       0.001       32.256   0.100E-07
     TRS4 it   4 1.00000000   0.250E+00       0.001       32.256   0.100E-07
     TRS4 it   5 1.00000000   0.111E+00       0.001       32.256   0.100E-07
     TRS4 it   6 1.00000000   0.268E-01       0.001       32.256   0.100E-07
     TRS4 it   7 1.00000000   0.204E-02       0.001       32.256   0.100E-07
     TRS4 it   8 1.00000000   0.145E-04       0.001       32.256   0.100E-07
     TRS4 it   9 1.00000000   0.843E-09       0.001       32.256   0.100E-07
     Final TRS4 iteration    9 1.00000000   0.843E-09
     Chemical potential (mu):      -0.07761
 
 PAO| energy:  -7.7327384102756458      penalty:   2.3583178241654270E-011
 PAO| Writing restart file.
     Est. extremal eigenvalues     -0.91554     1.41291  converged:  T
     TRS4 it   1 1.00000000   0.820E+00       0.000       16.128   0.100E-07
     TRS4 it   2 1.00000000   0.583E+00       0.001       32.256   0.100E-07
     TRS4 it   3 1.00000000   0.414E+00       0.001       32.256   0.100E-07
     TRS4 it   4 1.00000000   0.250E+00       0.001       32.256   0.100E-07
     TRS4 it   5 1.00000000   0.111E+00       0.001       32.256   0.100E-07
     TRS4 it   6 1.00000000   0.268E-01       0.001       32.256   0.100E-07
     TRS4 it   7 1.00000000   0.204E-02       0.001       32.256   0.100E-07
     TRS4 it   8 1.00000000   0.145E-04       0.001       32.256   0.100E-07
     TRS4 it   9 1.00000000   0.843E-09       0.001       32.256   0.100E-07
     Final TRS4 iteration    9 1.00000000   0.843E-09
     Chemical potential (mu):      -0.07761

 SCF     1       -34.445731004       -34.445731004    1.885307

*********************************************************
 Using MIXING_FRACTION=0.450 to mix KS matrix:  iscf=  2
 KS_nw=0.450*KS + 0.550*KS_old
*********************************************************
     Est. extremal eigenvalues     -0.91554     1.41291  converged:  T
     TRS4 it   1 1.00000000   0.820E+00       0.000       16.128   0.100E-07
     TRS4 it   2 1.00000000   0.583E+00       0.001       32.256   0.100E-07
     TRS4 it   3 1.00000000   0.414E+00       0.001       32.256   0.100E-07
     TRS4 it   4 1.00000000   0.250E+00       0.001       32.256   0.100E-07
     TRS4 it   5 1.00000000   0.111E+00       0.001       32.256   0.100E-07
     TRS4 it   6 1.00000000   0.268E-01       0.001       32.256   0.100E-07
     TRS4 it   7 1.00000000   0.204E-02       0.001       32.256   0.100E-07
     TRS4 it   8 1.00000000   0.145E-04       0.001       32.256   0.100E-07
     TRS4 it   9 1.00000000   0.844E-09       0.001       32.256   0.100E-07
     Final TRS4 iteration    9 1.00000000   0.844E-09
     Chemical potential (mu):      -0.07761

 SCF     2       -34.445731004         0.000000000    1.971384

 PAO| Storing density matrix for ASPC guess in slot:           1

 ENERGY| Total FORCE_EVAL ( QS ) energy (a.u.):              -34.445731003596904


 -------------------------------------------------------------------------------
 -                                                                             -
 -                                DBCSR STATISTICS                             -
 -                                                                             -
 -------------------------------------------------------------------------------
 COUNTER                                    TOTAL       BLAS       SMM       ACC
 flops     5 x     5 x     4                32000       0.0%    100.0%      0.0%
 flops    13 x     5 x     4                33280       0.0%    100.0%      0.0%
 flops     5 x    13 x     4                33280       0.0%    100.0%      0.0%
 flops    13 x    13 x     4                64896       0.0%    100.0%      0.0%
 flops     4 x     4 x     5              6919680       0.0%    100.0%      0.0%
 flops     5 x     4 x     5              8464000       0.0%    100.0%      0.0%
 flops     4 x     4 x    13              8995584       0.0%    100.0%      0.0%
 flops    13 x     4 x     5             11003200       0.0%    100.0%      0.0%
 flops     5 x     4 x    13             11003200       0.0%    100.0%      0.0%
 flops     5 x     4 x     4             13159040       0.0%    100.0%      0.0%
 flops    13 x     4 x    13             14304160       0.0%    100.0%      0.0%
 flops    13 x     4 x     4             17183712       0.0%    100.0%      0.0%
 flops     4 x     4 x     4            875074688       0.0%    100.0%      0.0%
 flops inhomo. stacks                           0       0.0%      0.0%      0.0%
 flops total                       966.270720E+06       0.0%    100.0%      0.0%
 flops max/rank                    966.270720E+06       0.0%    100.0%      0.0%
 matmuls inhomo. stacks                         0       0.0%      0.0%      0.0%
 matmuls total                            7120500       0.0%    100.0%      0.0%
 number of processed stacks                 56855       0.0%    100.0%      0.0%
 average stack size                                     0.0     125.2       0.0
 marketing flops                     1.580739E+09
 -------------------------------------------------------------------------------
 # multiplications                          47618
 max memory usage/rank             321.376256E+06
 # max total images/rank                        1
 # max 3D layers                                1
 # MPI messages exchanged                       0
 MPI messages size (bytes):
  total size                         0.000000E+00
  min size                           0.000000E+00
  max size                           0.000000E+00
  average size                       0.000000E+00
 MPI breakdown and total messages size (bytes):
             size <=      128                   0                        0
       128 < size <=     8192                   0                        0
      8192 < size <=    32768                   0                        0
     32768 < size <=   131072                   0                        0
    131072 < size <=  4194304                   0                        0
   4194304 < size <= 16777216                   0                        0
  16777216 < size                               0                        0
 -------------------------------------------------------------------------------

 MEMORY| Estimated peak process memory [MiB]                                 307

 -------------------------------------------------------------------------------
 -                                                                             -
 -                           R E F E R E N C E S                               -
 -                                                                             -
 -------------------------------------------------------------------------------
 
 CP2K version 7.0 (Development Version), the CP2K developers group (2018).
 CP2K is freely available from https://www.cp2k.org/ .

 Schuett, O; VandeVondele, J. 
 Journal of Chemical Theory and Computation, 14, (2018). 
 Machine Learning Adaptive Basis Sets for Efficient Large Scale Density Functional Theory Simulation.
 https://dx.doi.org/10.1021/acs.jctc.8b00378


 Schuett, Ole; Messmer, Peter; Hutter, Juerg; VandeVondele, Joost. 
 Electronic Structure Calculations on Graphics Processing Units, John Wiley & Sons, Ltd, 173-190 (2016). 
 GPU-Accelerated Sparse Matrix-Matrix Multiplication for Linear Scaling Density Functional Theory.
 https://dx.doi.org/10.1002/9781118670712.ch8


 Borstnik, U; VandeVondele, J; Weber, V; Hutter, J. 
 PARALLEL COMPUTING, 40 (5-6), 47-58 (2014). 
 Sparse matrix multiplication: The distributed block-compressed sparse
 row library.
 https://dx.doi.org/10.1016/j.parco.2014.03.012


 Hutter, J; Iannuzzi, M; Schiffmann, F; VandeVondele, J. 
 WILEY INTERDISCIPLINARY REVIEWS-COMPUTATIONAL MOLECULAR SCIENCE, 4 (1), 15-25 (2014). 
 CP2K: atomistic simulations of condensed matter systems.
 https://dx.doi.org/10.1002/wcms.1159


 VandeVondele, J; Borstnik, U; Hutter, J. 
 JOURNAL OF CHEMICAL THEORY AND COMPUTATION, 8 (10), 3565-3573 (2012). 
 Linear Scaling Self-Consistent Field Calculations with Millions of Atoms
 in the Condensed Phase.
 https://dx.doi.org/10.1021/ct200897x


 VandeVondele, J; Hutter, J. 
 JOURNAL OF CHEMICAL PHYSICS, 127 (11), 114105 (2007). 
 Gaussian basis sets for accurate calculations on molecular systems in
 gas and condensed phases.
 https://dx.doi.org/10.1063/1.2770708


 Krack, M. 
 THEORETICAL CHEMISTRY ACCOUNTS, 114 (1-3), 145-152 (2005). 
 Pseudopotentials for H to Kr optimized for gradient-corrected
 exchange-correlation functionals.
 https://dx.doi.org/10.1007/s00214-005-0655-y


 VandeVondele, J; Krack, M; Mohamed, F; Parrinello, M; Chassaing, T;
 Hutter, J. COMPUTER PHYSICS COMMUNICATIONS, 167 (2), 103-128 (2005). 
 QUICKSTEP: Fast and accurate density functional calculations using a
 mixed Gaussian and plane waves approach.
 https://dx.doi.org/10.1016/j.cpc.2004.12.014


 Frigo, M; Johnson, SG. 
 PROCEEDINGS OF THE IEEE, 93 (2), 216-231 (2005). 
 The design and implementation of FFTW3.
 https://dx.doi.org/10.1109/JPROC.2004.840301


 Niklasson, AMN; Tymczak, CJ; Challacombe, M. 
 JOURNAL OF CHEMICAL PHYSICS, 118 (19), 8611-8620 (2003). 
 Trace resetting density matrix purification in O(N)
 self-consistent-field theory.
 https://dx.doi.org/10.1063/1.1559913


 Hartwigsen, C; Goedecker, S; Hutter, J. 
 PHYSICAL REVIEW B, 58 (7), 3641-3662 (1998). 
 Relativistic separable dual-space Gaussian pseudopotentials from H to Rn.
 https://dx.doi.org/10.1103/PhysRevB.58.3641


 Lippert, G; Hutter, J; Parrinello, M. 
 MOLECULAR PHYSICS, 92 (3), 477-487 (1997). 
 A hybrid Gaussian and plane wave density functional scheme.
 https://dx.doi.org/10.1080/002689797170220


 Perdew, JP; Burke, K; Ernzerhof, M. 
 PHYSICAL REVIEW LETTERS, 77 (18), 3865-3868 (1996). 
 Generalized gradient approximation made simple.
 https://dx.doi.org/10.1103/PhysRevLett.77.3865


 Goedecker, S; Teter, M; Hutter, J. 
 PHYSICAL REVIEW B, 54 (3), 1703-1710 (1996). 
 Separable dual-space Gaussian pseudopotentials.
 https://dx.doi.org/10.1103/PhysRevB.54.1703


 -------------------------------------------------------------------------------
 -                                                                             -
 -                                T I M I N G                                  -
 -                                                                             -
 -------------------------------------------------------------------------------
 SUBROUTINE                       CALLS  ASD         SELF TIME        TOTAL TIME
                                MAXIMUM       AVERAGE  MAXIMUM  AVERAGE  MAXIMUM
 CP2K                                 1  1.0    0.030    0.030   45.402   45.402
 qs_energies                          1  2.0    0.000    0.000   45.036   45.036
 ls_scf                               1  3.0    0.000    0.000   44.931   44.931
 ls_scf_main                          7  4.0    0.001    0.001   28.469   28.469
 ls_scf_dm_to_ks                     15  5.0    0.000    0.000   28.350   28.350
 qs_ks_update_qs_env                 16  6.0    0.000    0.000   21.334   21.334
 rebuild_ks_matrix                   16  7.0    0.000    0.000   21.334   21.334
 qs_ks_build_kohn_sham_matrix        16  8.0    0.002    0.002   21.334   21.334
 pao_update                           7  4.0    0.019    0.019   14.445   14.445
 pao_calc_energy                    890  5.0    0.007    0.007   13.060   13.060
 qs_vxc_create                       16  9.0    0.000    0.000   12.065   12.065
 xc_vxc_pw_create                    16 10.0    0.196    0.196   12.064   12.064
 dbcsr_multiply_generic           47618  8.4    0.820    0.820   10.623   10.623
 qs_rho_update_rho                   16  6.0    0.000    0.000    8.952    8.952
 calculate_rho_elec                  16  7.0    7.292    7.292    8.951    8.951
 xc_rho_set_and_dset_create          16 11.0    0.075    0.075    8.806    8.806
 sum_up_and_integrate                16  9.0    0.034    0.034    7.998    7.998
 integrate_v_rspace                  16 10.0    7.074    7.074    7.964    7.964
 pw_transfer                        305 10.6    0.020    0.020    7.609    7.609
 fft_wrap_pw1pw2                    273 11.7    0.003    0.003    7.445    7.445
 fft_wrap_pw1pw2_200                177 12.8    0.608    0.608    7.121    7.121
 pao_dm_trs4                        890  6.0    0.004    0.004    6.750    6.750
 density_matrix_trs4                905  7.0    0.353    0.353    6.450    6.450
 ls_scf_init_matrix_S               897  7.0    0.006    0.006    6.286    6.286
 pao_rebuild_S                      890  6.0    0.004    0.004    6.238    6.238
 xc_functional_eval                  16 12.0    0.000    0.000    6.068    6.068
 pbe_lda_eval                        16 13.0    6.067    6.067    6.067    6.067
 matrix_sqrt_Newton_Schulz          897  8.0    0.231    0.231    5.650    5.650
 fft3d_s                            274 13.6    4.147    4.147    4.159    4.159
 multiply_cannon                  47618  9.4    1.863    1.863    4.111    4.111
 make_m2s                         95236  9.4    0.276    0.276    3.908    3.908
 make_images                      95236 10.4    1.031    1.031    3.480    3.480
 pao_guess_initial_P                  1  4.0    0.000    0.000    1.943    1.943
 pao_read_preopt_dm                   1  5.0    0.000    0.000    1.943    1.943
 arnoldi_extremal                  1802  8.5    0.006    0.006    1.753    1.753
 arnoldi_normal_ev                 1802  9.5    0.019    0.019    1.746    1.746
 density_rs2pw                       16  8.0    0.001    0.001    1.632    1.632
 pao_calc_AB                       1172  5.8    0.001    0.001    1.355    1.355
 pao_calc_AB_direct                1172  6.8    0.043    0.043    1.353    1.353
 pw_scatter_s                       144 14.2    1.331    1.331    1.331    1.331
 pw_gather_s                        129 13.1    1.320    1.320    1.320    1.320
 build_subspace                    1802 10.5    0.106    0.106    1.301    1.301
 pao_calc_grad_lnv_wrt_AB           281  7.0    0.013    0.013    1.261    1.261
 dbcsr_matrix_vector_mult         43247 11.5    0.210    0.210    1.148    1.148
 dbcsr_create_new                364231 10.7    0.643    0.643    1.141    1.141
 dbcsr_finalize                  112373  9.6    0.207    0.207    1.096    1.096
 -------------------------------------------------------------------------------

 The number of warnings for this run is : 0
 
 -------------------------------------------------------------------------------
  **** **** ******  **  PROGRAM ENDED AT                 2019-02-14 11:06:25.532
 ***** ** ***  *** **   PROGRAM RAN ON                                      otto
 **    ****   ******    PROGRAM RAN BY                                       ole
 ***** **    ** ** **   PROGRAM PROCESS ID                                  7718
  **** **  *******  **  PROGRAM STOPPED IN /home/ole/git/pao_ml_equivar/2H2O_MD/
                                           frame_1400
