 DBCSR| CPU Multiplication driver                                           XSMM (U)
 DBCSR| Multrec recursion limit                                              512 (U)
 DBCSR| Multiplication stack size                                           1000 (D)
 DBCSR| Maximum elements for images                                    UNLIMITED (U)
 DBCSR| Multiplicative factor virtual images                                   1 (U)
 DBCSR| Use multiplication densification                                       T (D)
 DBCSR| Multiplication size stacks                                             3 (U)
 DBCSR| Use memory pool for CPU allocation                                     F (U)
 DBCSR| Number of 3D layers                                               SINGLE (U)
 DBCSR| Use MPI memory allocation                                              F (U)
 DBCSR| Use RMA algorithm                                                      F (U)
 DBCSR| Use Communication thread                                               T (U)
 DBCSR| Communication thread load                                             87 (D)
 DBCSR| MPI: My process id                                                     0
 DBCSR| MPI: Number of processes                                              32
 DBCSR| OMP: Current number of threads                                         1
 DBCSR| OMP: Max number of threads                                             1
 DBCSR| Split modifier for TAS multiplication algorithm                  1.0E+00 (U)


  **** **** ******  **  PROGRAM STARTED AT               2024-09-23 22:46:25.287
 ***** ** ***  *** **   PROGRAM STARTED ON                                moritz
 **    ****   ******    PROGRAM STARTED BY                                   ole
 ***** **    ** ** **   PROGRAM PROCESS ID                                163644
  **** **  *******  **  PROGRAM STARTED IN /home/ole/git/pao_ml_equivar/64H2O_MD
                                           /Frame0400

 CP2K| version string:                 CP2K version 2024.3 (Development Version)
 CP2K| source code revision number:                                  git:3f890bb
 CP2K| cp2kflags: omp libint fftw3 libxc libgrpp pexsi elpa parallel scalapack c
 CP2K|            osma quip deepmd xsmm plumed2 spglib libdftd4 sirius libvori l
 CP2K|            libbqb libvdwxc hdf5
 CP2K| is freely available from                            https://www.cp2k.org/
 CP2K| Program compiled at                          Mo 23 Sep 2024 17:17:04 CEST
 CP2K| Program compiled on                                                moritz
 CP2K| Program compiled for                                                local
 CP2K| Data directory path                               /home/ole/git/cp2k/data
 CP2K| Input file name                                           64H2O_pao44.inp

 GLOBAL| Force Environment number                                              1
 GLOBAL| Basis set file name                                        BASIS_MOLOPT
 GLOBAL| Potential file name                                      GTH_POTENTIALS
 GLOBAL| MM Potential file name                                     MM_POTENTIAL
 GLOBAL| Coordinate file name                                         coords.xyz
 GLOBAL| Method name                                                        CP2K
 GLOBAL| Project name                                                64H2O_pao44
 GLOBAL| Run type                                                         ENERGY
 GLOBAL| FFT library                                                       FFTW3
 GLOBAL| Diagonalization library                                            ELPA
 GLOBAL| DGEMM library                                                      BLAS
 GLOBAL| Minimum number of eigenvectors for ELPA usage                        16
 GLOBAL| Orthonormality check for eigenvectors                          DISABLED
 GLOBAL| Matrix multiplication library                                     COSMA
 GLOBAL| All-to-all communication in single precision                          F
 GLOBAL| FFTs using library dependent lengths                                  F
 GLOBAL| Grid backend                                                       AUTO
 GLOBAL| Global print level                                                  LOW
 GLOBAL| MPI I/O enabled                                                       T
 GLOBAL| Total number of message passing processes                            32
 GLOBAL| Number of threads for this process                                    1
 GLOBAL| This output is from process                                           0
 GLOBAL| Stack size for threads created by OpenMP (OMP_STACKSIZE)        default
 GLOBAL| CPU model name           AMD Ryzen Threadripper 3970X 32-Core Processor
 GLOBAL| CPUID                                                              1002

 MEMORY| system memory details [Kb]
 MEMORY|                        rank 0           min           max       average
 MEMORY| MemTotal            131752136     131752136     131752136     131752136
 MEMORY| MemFree             114447768     114447768     114447768     114447768
 MEMORY| Buffers               1984020       1984020       1984020       1984020
 MEMORY| Cached                8573368       8573368       8573372       8573368
 MEMORY| Slab                  1633800       1633800       1633800       1633800
 MEMORY| SReclaimable          1140500       1140500       1140500       1140500
 MEMORY| MemLikelyFree       126145656     126145656     126145660     126145656


 GENERATE|  Preliminary Number of Bonds generated:                             0
 GENERATE|  Achieved consistency in connectivity generation.

 *******************************************************************************
 *******************************************************************************
 **                                                                           **
 **     #####                         ##              ##                      **
 **    ##   ##            ##          ##              ##                      **
 **   ##     ##                       ##            ######                    **
 **   ##     ##  ##   ##  ##   #####  ##  ##   ####   ##    #####    #####    **
 **   ##     ##  ##   ##  ##  ##      ## ##   ##      ##   ##   ##  ##   ##   **
 **   ##  ## ##  ##   ##  ##  ##      ####     ###    ##   ######   ######    **
 **    ##  ###   ##   ##  ##  ##      ## ##      ##   ##   ##       ##        **
 **     #######   #####   ##   #####  ##  ##  ####    ##    #####   ##        **
 **           ##                                                    ##        **
 **                                                                           **
 **                                                ... make the atoms dance   **
 **                                                                           **
 **            Copyright (C) by CP2K developers group (2000-2024)             **
 **                      J. Chem. Phys. 152, 194103 (2020)                    **
 **                                                                           **
 *******************************************************************************


 TOTAL NUMBERS AND MAXIMUM NUMBERS

  Total number of            - Atomic kinds:                                   2
                             - Atoms:                                        192
                             - Shell sets:                                   192
                             - Shells:                                       704
                             - Primitive Cartesian functions:               1344
                             - Cartesian basis functions:                   1536
                             - Spherical basis functions:                   1472

  Maximum angular momentum of- Orbital basis functions:                        2
                             - Local part of the GTH pseudopotential:          2
                             - Non-local part of the GTH pseudopotential:      0

 ------------------------------ Linear scaling SCF -----------------------------
 eps_scf:                                                              0.100E-07
 eps_filter:                                                           0.100E-11
 mixing_fraction:                                                      0.450E+00
 max_scf:                                                                     25
 fixed chemical potential (mu)                                                 F
 has unit metric:                                                              F
 Computing inv(S):                                                             T
 Computing sqrt(S):                                                            T
 Computing S preconditioner                                                    F
 S sqrt method:                                                     NEWTONSCHULZ
 S sqrt order:                                                                 3
 Extrapolation order:                                                          1
 S preconditioner type                                                      NONE
 Polarized Atomic Orbitals (PAO)                                               T
 Purification method                                   Trace resetting 4th order
 Cluster type                                                             ATOMIC
 Computing Chebyshev                                                       FALSE
 Using PAO                                                                     T
 -------------------------------------------------------------------------------

 
 PAO|                                  EPS_PAO                           0.5E-06
 PAO|                                  MIXING                            0.5E+00
 PAO|                                  MAX_PAO                              1500
 PAO|                                  MAX_CYCLES                           1000
 PAO|                                  PARAMETERIZATION              EQUIVARIANT
 PAO|                                  PRECONDITION                            F
 PAO|                                  REGULARIZATION                    0.0E+00
 PAO|                                  EPS_PGF                           0.1E-09
 PAO|                                  PENALTY_DISTANCE                  0.1E+00
 PAO|                                  PENALTY_STRENGTH                  0.5E-02
 PAO|                                  LINPOT_PRECONDITION_DELTA         0.0E+00
 PAO|                                  LINPOT_INITGUESS_DELT             0.0E+00
 PAO|                                  LINPOT_REGULARIZATION_DELTA       0.0E+00
 PAO|                                  LINPOT_REGULARIZATION_STRENGTH    0.0E+00
 PAO|                                  OPTIMIZER                              CG
 PAO|                                  CG_INIT_STEPS                           2
 PAO|                                  CG_RESET_LIMIT                    0.1E+00
 PAO|                                  CHECK_UNITARY_TOL                -0.1E+01
 PAO|                                  CHECK_GRADIENT_TOL               -0.1E+01
 PAO|                                  NUM_GRADIENT_ORDER                      2
 PAO|                                  NUM_GRADIENT_EPS                  0.1E-07
 PAO|                                  PRINT%RESTART%WRITE_CYCLES            100
 PAO|                                  RESTART_FILE 
 PAO|                                  PREOPT_DM_FILE 64H2O_ref_LS_DM_SPIN_1_RESTART.dm
 PAO|                                  MACHINE_LEARNING%METHOD       GAUSSIAN_PR
 PAO|                                  MACHINE_LEARNING%PRIOR               ZERO
 PAO|                                  MACHINE_LEARNING%DESCRIPTOR     POTENTIAL
 PAO|                                  MACHINE_LEARNING%TOLERANCE        0.1E-01
 PAO|                                  MACHINE_LEARNING%GP_NOISE_VAR     0.1E+00
 PAO|                                  MACHINE_LEARNING%GP_SCALE         0.5E-01
 

 Calculating atomic Fock matrix for atomic kind: O

 Electronic structure
    Total number of core electrons                                          2.00
    Total number of valence electrons                                       6.00
    Total number of electrons                                               8.00
    Multiplicity                                                   not specified
    S   [  2.00] 2.00
    P      4.00


 *******************************************************************************
                  Iteration          Convergence                     Energy [au]
 *******************************************************************************
                          1        0.708315                     -15.576645311500
                          2        0.608879                     -15.587933561584
                          3        0.102828E-01                 -15.656849565404
                          4        0.113889E-02                 -15.656866888140
                          5        0.434197E-03                 -15.656867072159
                          6        0.263771E-03                 -15.656867091904
                          7        0.478536E-06                 -15.656867103452

 Energy components [Hartree]           Total Energy ::          -15.656867103452
                                        Band Energy ::           -3.000198112285
                                     Kinetic Energy ::           11.759971203220
                                   Potential Energy ::          -27.416838306672
                                      Virial (-V/T) ::            2.331369510426
                                        Core Energy ::          -26.140716385623
                                          XC Energy ::           -3.154051012914
                                     Coulomb Energy ::           13.637900295084
                       Total Pseudopotential Energy ::          -37.935781716540
                       Local Pseudopotential Energy ::          -39.218907440693
                    Nonlocal Pseudopotential Energy ::            1.283125724153
                                        Confinement ::            0.350941276976

 Orbital energies  State     L     Occupation   Energy[a.u.]          Energy[eV]

                       1     0          2.000      -0.864471          -23.523463

                       1     1          4.000      -0.317814           -8.648154


 Total Electron Density at R=0:                                         0.000068

 Calculating atomic Fock matrix for atomic kind: H

 Electronic structure
    Total number of core electrons                                          0.00
    Total number of valence electrons                                       1.00
    Total number of electrons                                               1.00
    Multiplicity                                                   not specified
    S      1.00


 *******************************************************************************
                  Iteration          Convergence                     Energy [au]
 *******************************************************************************
                          1        0.437545E-02                  -0.424159432110
                          2        0.531356E-03                  -0.424178438213
                          3        0.259176E-06                  -0.424178722480

 Energy components [Hartree]           Total Energy ::           -0.424178722480
                                        Band Energy ::           -0.199015229016
                                     Kinetic Energy ::            0.464007633961
                                   Potential Energy ::           -0.888186356441
                                      Virial (-V/T) ::            1.914163240935
                                        Core Energy ::           -0.479160803564
                                          XC Energy ::           -0.244352904054
                                     Coulomb Energy ::            0.299334985138
                       Total Pseudopotential Energy ::           -0.962295316385
                       Local Pseudopotential Energy ::           -0.962295316385
                    Nonlocal Pseudopotential Energy ::            0.000000000000
                                        Confinement ::            0.191268788606

 Orbital energies  State     L     Occupation   Energy[a.u.]          Energy[eV]

                       1     0          1.000      -0.199015           -5.415480


 Total Electron Density at R=0:                                         0.242907
 PAO| Made initial guess for matrix_X with norm:   27.712812921102035     

     Lanczos converged:  F threshold:   0.100E-02
     Est. extremal eigenvalues:    0.619E+01   0.920E-01
     Est. condition number :    0.673E+02

 Order=           3
     NS sqrt iter    1 1.00000000   0.151E+01       0.021     2769.027
     NS sqrt iter    2 1.00000000   0.822E+00       0.033     3458.530
     NS sqrt iter    3 1.00000000   0.331E+00       0.033     3465.265
     NS sqrt iter    4 1.00000000   0.924E-01       0.032     3486.901
     NS sqrt iter    5 1.00000000   0.337E-02       0.033     3448.087
     NS sqrt iter    6 1.00000000   0.311E-06       0.028     3038.009
     Symmetrizing Results
     Final NS sqrt iter    6 1.00000000   0.233E-12

 PAO| Read restart DM 64H2O_ref_LS_DM_SPIN_1_RESTART.dm with checksum:    5964.8458438626585     
 PAO| Quickstep energy from restart density:  -1103.1106674510606     
 PAO| ======================= Iteration:         1 =============================

     Lanczos converged:  F threshold:   0.100E-02
     Est. extremal eigenvalues:    0.619E+01   0.920E-01
     Est. condition number :    0.673E+02

 Order=           3
     NS sqrt iter    1 1.00000000   0.151E+01       0.020     2795.276
     NS sqrt iter    2 1.00000000   0.822E+00       0.033     3464.467
     NS sqrt iter    3 1.00000000   0.331E+00       0.033     3479.103
     NS sqrt iter    4 1.00000000   0.924E-01       0.033     3481.786
     NS sqrt iter    5 1.00000000   0.337E-02       0.033     3459.125
     NS sqrt iter    6 1.00000000   0.311E-06       0.028     3027.931
     Symmetrizing Results
     Final NS sqrt iter    6 1.00000000   0.233E-12

     Est. extremal eigenvalues     -0.81858     2.62490  converged:  T
     TRS4 it   1 1.00000000   0.273E+02       0.006     2208.065   0.100E-11
     TRS4 it   2 1.00000000   0.236E+02       0.012     2283.880   0.100E-11
     TRS4 it   3 1.00000000   0.160E+02       0.012     2283.870   0.100E-11
     TRS4 it   4 1.00000000   0.100E+02       0.012     2285.514   0.100E-11
     TRS4 it   5 1.00000000   0.482E+01       0.013     2267.447   0.100E-11
     TRS4 it   6 1.00000000   0.159E+01       0.012     2281.073   0.100E-11
     TRS4 it   7 1.00000000   0.307E+00       0.013     2273.409   0.100E-11
     TRS4 it   8 1.00000000   0.202E-01       0.012     2298.607   0.100E-11
     TRS4 it   9 1.00000000   0.137E-03       0.013     2259.833   0.100E-11
     TRS4 it  10 1.00000000   0.571E-08       0.013     2268.403   0.100E-11
     TRS4 it  11 1.00000000   0.355E-13       0.012     2285.488   0.100E-11
     Final TRS4 iteration   11 1.00000000   0.355E-13
     Chemical potential (mu):       0.00936
 
 PAO| energy:  -185.98118047688973      penalty:   1.4224148197266368E-031
 PAO|CG| warming up with steepest descent
 PAO|CG| beta:    0.0000000000000000     
 PAO| norm of gradient:   3.9786587803240563     
 PAO|LS| adapt:  T F F
 PAO|LS| adapt: scan_steps:    0.0000000000000000        0.0000000000000000        0.0000000000000000     
 PAO|LS| adapt: energies:   -185.98118047688973        0.0000000000000000        0.0000000000000000     
 PAO| ======================= Iteration:         2 =============================

     Lanczos converged:  F threshold:   0.100E-02
     Est. extremal eigenvalues:    0.597E+01   0.986E-01
     Est. condition number :    0.606E+02

 Order=           3
     NS sqrt iter    1 1.00000000   0.147E+01       0.020     2805.946
     NS sqrt iter    2 1.00000000   0.792E+00       0.033     3480.615
     NS sqrt iter    3 1.00000000   0.310E+00       0.033     3480.620
     NS sqrt iter    4 1.00000000   0.777E-01       0.033     3468.381
     NS sqrt iter    5 1.00000000   0.210E-02       0.033     3458.674
     NS sqrt iter    6 1.00000000   0.885E-07       0.028     3047.677
     Symmetrizing Results
     Final NS sqrt iter    6 1.00000000   0.207E-13

     Est. extremal eigenvalues     -0.82168     2.61667  converged:  T
     TRS4 it   1 1.00000000   0.275E+02       0.007     2178.987   0.100E-11
     TRS4 it   2 1.00000000   0.236E+02       0.013     2267.474   0.100E-11
     TRS4 it   3 1.00000000   0.159E+02       0.012     2305.168   0.100E-11
     TRS4 it   4 1.00000000   0.980E+01       0.012     2312.204   0.100E-11
     TRS4 it   5 1.00000000   0.460E+01       0.013     2273.066   0.100E-11
     TRS4 it   6 1.00000000   0.146E+01       0.013     2262.366   0.100E-11
     TRS4 it   7 1.00000000   0.262E+00       0.013     2253.400   0.100E-11
     TRS4 it   8 1.00000000   0.143E-01       0.012     2300.655   0.100E-11
     TRS4 it   9 1.00000000   0.615E-04       0.013     2275.201   0.100E-11
     TRS4 it  10 1.00000000   0.135E-08       0.012     2276.774   0.100E-11
     TRS4 it  11 1.00000000   0.249E-13       0.012     2291.649   0.100E-11
     Final TRS4 iteration   11 1.00000000   0.249E-13
     Chemical potential (mu):       0.01515
 
 PAO| energy:  -187.43419537349624      penalty:   4.7071849451624155E-007
 PAO|LS| adapt:  T T F
 PAO|LS| adapt: scan_steps:    0.0000000000000000       0.10000000000000001        0.0000000000000000     
 PAO|LS| adapt: energies:   -185.98118047688973       -187.43419537349624        0.0000000000000000     
 PAO| ======================= Iteration:         3 =============================

     Lanczos converged:  F threshold:   0.100E-02
     Est. extremal eigenvalues:    0.576E+01   0.104E+00
     Est. condition number :    0.552E+02

 Order=           3
     NS sqrt iter    1 1.00000000   0.142E+01       0.021     2758.237
     NS sqrt iter    2 1.00000000   0.763E+00       0.033     3457.404
     NS sqrt iter    3 1.00000000   0.290E+00       0.033     3471.769
     NS sqrt iter    4 1.00000000   0.650E-01       0.033     3476.651
     NS sqrt iter    5 1.00000000   0.132E-02       0.033     3476.550
     NS sqrt iter    6 1.00000000   0.263E-07       0.028     3014.389
     Symmetrizing Results
     Final NS sqrt iter    6 1.00000000   0.339E-14

     Est. extremal eigenvalues     -0.82466     2.61240  converged:  T
     TRS4 it   1 1.00000000   0.277E+02       0.006     2205.881   0.100E-11
     TRS4 it   2 1.00000000   0.235E+02       0.013     2258.355   0.100E-11
     TRS4 it   3 1.00000000   0.158E+02       0.013     2272.197   0.100E-11
     TRS4 it   4 1.00000000   0.961E+01       0.013     2269.086   0.100E-11
     TRS4 it   5 1.00000000   0.440E+01       0.013     2267.673   0.100E-11
     TRS4 it   6 1.00000000   0.133E+01       0.012     2277.723   0.100E-11
     TRS4 it   7 1.00000000   0.221E+00       0.012     2289.990   0.100E-11
     TRS4 it   8 1.00000000   0.985E-02       0.013     2217.185   0.100E-11
     TRS4 it   9 1.00000000   0.256E-04       0.012     2277.532   0.100E-11
     TRS4 it  10 1.00000000   0.276E-09       0.012     2277.322   0.100E-11
     TRS4 it  11 1.00000000   0.711E-14       0.012     2287.376   0.100E-11
     Final TRS4 iteration   11 1.00000000   0.711E-14
     Chemical potential (mu):       0.02177
 
 PAO| energy:  -188.61123983799283      penalty:   7.5314959122460167E-006
 PAO|LS| adapt:  T T F
 PAO|LS| adapt: scan_steps:    0.0000000000000000       0.20000000000000001        0.0000000000000000     
 PAO|LS| adapt: energies:   -185.98118047688973       -188.61123983799283        0.0000000000000000     
 PAO| ======================= Iteration:         4 =============================

     Lanczos converged:  F threshold:   0.100E-02
     Est. extremal eigenvalues:    0.534E+01   0.114E+00
     Est. condition number :    0.469E+02

 Order=           3
     NS sqrt iter    1 1.00000000   0.134E+01       0.021     2775.069
     NS sqrt iter    2 1.00000000   0.707E+00       0.032     3495.190
     NS sqrt iter    3 1.00000000   0.252E+00       0.033     3470.952
     NS sqrt iter    4 1.00000000   0.455E-01       0.033     3482.061
     NS sqrt iter    5 1.00000000   0.540E-03       0.033     3477.318
     NS sqrt iter    6 1.00000000   0.240E-08       0.028     2956.283
     Symmetrizing Results
     Final NS sqrt iter    6 1.00000000   0.140E-13

     Est. extremal eigenvalues     -0.82975     2.61347  converged:  T
     TRS4 it   1 1.00000000   0.281E+02       0.006     2193.981   0.100E-11
     TRS4 it   2 1.00000000   0.236E+02       0.012     2283.702   0.100E-11
     TRS4 it   3 1.00000000   0.156E+02       0.012     2287.924   0.100E-11
     TRS4 it   4 1.00000000   0.928E+01       0.012     2291.161   0.100E-11
     TRS4 it   5 1.00000000   0.404E+01       0.012     2278.225   0.100E-11
     TRS4 it   6 1.00000000   0.112E+01       0.012     2279.940   0.100E-11
     TRS4 it   7 1.00000000   0.157E+00       0.012     2301.330   0.100E-11
     TRS4 it   8 1.00000000   0.451E-02       0.013     2260.224   0.100E-11
     TRS4 it   9 1.00000000   0.426E-05       0.012     2278.743   0.100E-11
     TRS4 it  10 1.00000000   0.844E-11       0.012     2277.446   0.100E-11
     Final TRS4 iteration   10 1.00000000   0.844E-11
     Chemical potential (mu):       0.04076
 
 PAO| energy:  -190.09668822612718      penalty:   1.2050393459582958E-004
 PAO|LS| Need extra step
 PAO|LS| adapt:  T T F
 PAO|LS| adapt: scan_steps:    0.0000000000000000       0.40000000000000002        0.0000000000000000     
 PAO|LS| adapt: energies:   -185.98118047688973       -190.09668822612718        0.0000000000000000     
 PAO| ======================= Iteration:         5 =============================

     Lanczos converged:  F threshold:   0.100E-02
     Est. extremal eigenvalues:    0.468E+01   0.131E+00
     Est. condition number :    0.358E+02

 Order=           3
     NS sqrt iter    1 1.00000000   0.122E+01       0.021     2769.650
     NS sqrt iter    2 1.00000000   0.617E+00       0.032     3493.950
     NS sqrt iter    3 1.00000000   0.195E+00       0.033     3472.138
     NS sqrt iter    4 1.00000000   0.238E-01       0.033     3468.238
     NS sqrt iter    5 1.00000000   0.103E-03       0.032     3497.492
     NS sqrt iter    6 1.00000000   0.240E-10       0.018     2294.632
     Symmetrizing Results
     Final NS sqrt iter    6 1.00000000   0.208E-11

     Est. extremal eigenvalues     -0.83383     2.61352  converged:  T
     TRS4 it   1 1.00000000   0.287E+02       0.007     2180.346   0.100E-11
     TRS4 it   2 1.00000000   0.236E+02       0.013     2274.532   0.100E-11
     TRS4 it   3 1.00000000   0.154E+02       0.012     2304.996   0.100E-11
     TRS4 it   4 1.00000000   0.879E+01       0.012     2296.046   0.100E-11
     TRS4 it   5 1.00000000   0.353E+01       0.012     2296.511   0.100E-11
     TRS4 it   6 1.00000000   0.837E+00       0.012     2285.339   0.100E-11
     TRS4 it   7 1.00000000   0.858E-01       0.012     2288.318   0.100E-11
     TRS4 it   8 1.00000000   0.123E-02       0.012     2306.623   0.100E-11
     TRS4 it   9 1.00000000   0.306E-06       0.012     2284.756   0.100E-11
     TRS4 it  10 1.00000000   0.533E-13       0.012     2283.836   0.100E-11
     Final TRS4 iteration   10 1.00000000   0.533E-13
     Chemical potential (mu):       0.06278
 
 PAO| energy:  -189.72437194501390      penalty:   1.9280629535324218E-003
 PAO|LS| Need extra step
 PAO|LS| adapt:  T T T
 PAO|LS| adapt: scan_steps:    0.0000000000000000       0.40000000000000002       0.80000000000000004     
 PAO|LS| adapt: energies:   -185.98118047688973       -190.09668822612718       -189.72437194501390     
 PAO|LS| adapt: suggested step_size:   0.56681542960728015     
 PAO|LS| adapt: predicted energy  -190.48695203416310     
 PAO| ======================= Iteration:         6 =============================

     Lanczos converged:  F threshold:   0.100E-02
     Est. extremal eigenvalues:    0.504E+01   0.121E+00
     Est. condition number :    0.416E+02

 Order=           3
     NS sqrt iter    1 1.00000000   0.128E+01       0.021     2770.409
     NS sqrt iter    2 1.00000000   0.665E+00       0.033     3471.854
     NS sqrt iter    3 1.00000000   0.225E+00       0.032     3489.957
     NS sqrt iter    4 1.00000000   0.343E-01       0.033     3474.128
     NS sqrt iter    5 1.00000000   0.264E-03       0.033     3482.930
     NS sqrt iter    6 1.00000000   0.335E-09       0.027     2777.505
     Symmetrizing Results
     Final NS sqrt iter    6 1.00000000   0.314E-12

     Est. extremal eigenvalues     -0.83259     2.61529  converged:  T
     TRS4 it   1 1.00000000   0.284E+02       0.006     2195.254   0.100E-11
     TRS4 it   2 1.00000000   0.236E+02       0.013     2271.299   0.100E-11
     TRS4 it   3 1.00000000   0.155E+02       0.012     2276.989   0.100E-11
     TRS4 it   4 1.00000000   0.905E+01       0.012     2280.907   0.100E-11
     TRS4 it   5 1.00000000   0.379E+01       0.013     2267.217   0.100E-11
     TRS4 it   6 1.00000000   0.981E+00       0.013     2271.453   0.100E-11
     TRS4 it   7 1.00000000   0.119E+00       0.013     2271.934   0.100E-11
     TRS4 it   8 1.00000000   0.246E-02       0.012     2295.555   0.100E-11
     TRS4 it   9 1.00000000   0.119E-05       0.012     2283.323   0.100E-11
     TRS4 it  10 1.00000000   0.655E-12       0.012     2283.399   0.100E-11
     Final TRS4 iteration   10 1.00000000   0.655E-12
     Chemical potential (mu):       0.05116
 
 PAO| energy:  -190.45997701100711      penalty:   4.8587876364049152E-004
 PAO|CG| warming up with steepest descent
 PAO|CG| beta:    0.0000000000000000     
 PAO| norm of gradient:   2.0987382947850177     
 PAO| energy improvement:  -4.4787965341173788     
 PAO| step      6                 -190.459977011  0.410E-02  0.567E+00     2.411
 PAO|LS| adapt:  T F F
 PAO|LS| adapt: scan_steps:    0.0000000000000000        0.0000000000000000        0.0000000000000000     
 PAO|LS| adapt: energies:   -190.45997701100711        0.0000000000000000        0.0000000000000000     
 PAO| ======================= Iteration:         7 =============================

     Lanczos converged:  F threshold:   0.100E-02
     Est. extremal eigenvalues:    0.488E+01   0.129E+00
     Est. condition number :    0.379E+02

 Order=           3
     NS sqrt iter    1 1.00000000   0.125E+01       0.020     2785.888
     NS sqrt iter    2 1.00000000   0.640E+00       0.032     3491.538
     NS sqrt iter    3 1.00000000   0.208E+00       0.033     3461.760
     NS sqrt iter    4 1.00000000   0.275E-01       0.033     3483.653
     NS sqrt iter    5 1.00000000   0.145E-03       0.033     3477.812
     NS sqrt iter    6 1.00000000   0.612E-10       0.023     2461.024
     Symmetrizing Results
     Final NS sqrt iter    6 1.00000000   0.208E-11

     Est. extremal eigenvalues     -0.83338     2.60888  converged:  T
     TRS4 it   1 1.00000000   0.285E+02       0.006     2191.497   0.100E-11
     TRS4 it   2 1.00000000   0.236E+02       0.013     2263.487   0.100E-11
     TRS4 it   3 1.00000000   0.156E+02       0.012     2291.507   0.100E-11
     TRS4 it   4 1.00000000   0.918E+01       0.013     2269.141   0.100E-11
     TRS4 it   5 1.00000000   0.389E+01       0.012     2294.611   0.100E-11
     TRS4 it   6 1.00000000   0.101E+01       0.013     2272.712   0.100E-11
     TRS4 it   7 1.00000000   0.121E+00       0.012     2287.790   0.100E-11
     TRS4 it   8 1.00000000   0.248E-02       0.013     2268.246   0.100E-11
     TRS4 it   9 1.00000000   0.122E-05       0.012     2280.302   0.100E-11
     TRS4 it  10 1.00000000   0.737E-12       0.012     2285.433   0.100E-11
     Final TRS4 iteration   10 1.00000000   0.737E-12
     Chemical potential (mu):       0.05315
 
 PAO| energy:  -189.56751257878778      penalty:   6.8120939959656342E-004
 PAO|LS| adapt:  T F T
 PAO|LS| adapt: scan_steps:    0.0000000000000000        0.0000000000000000       0.56681542960728015     
 PAO|LS| adapt: energies:   -190.45997701100711        0.0000000000000000       -189.56751257878778     
 PAO| ======================= Iteration:         8 =============================

     Lanczos converged:  F threshold:   0.100E-02
     Est. extremal eigenvalues:    0.496E+01   0.125E+00
     Est. condition number :    0.398E+02

 Order=           3
     NS sqrt iter    1 1.00000000   0.127E+01       0.021     2770.197
     NS sqrt iter    2 1.00000000   0.653E+00       0.033     3441.160
     NS sqrt iter    3 1.00000000   0.216E+00       0.033     3474.134
     NS sqrt iter    4 1.00000000   0.308E-01       0.033     3477.958
     NS sqrt iter    5 1.00000000   0.197E-03       0.033     3476.985
     NS sqrt iter    6 1.00000000   0.146E-09       0.026     2649.040
     Symmetrizing Results
     Final NS sqrt iter    6 1.00000000   0.123E-11

     Est. extremal eigenvalues     -0.83372     2.61303  converged:  T
     TRS4 it   1 1.00000000   0.285E+02       0.006     2212.628   0.100E-11
     TRS4 it   2 1.00000000   0.236E+02       0.013     2266.602   0.100E-11
     TRS4 it   3 1.00000000   0.155E+02       0.012     2277.014   0.100E-11
     TRS4 it   4 1.00000000   0.908E+01       0.013     2251.742   0.100E-11
     TRS4 it   5 1.00000000   0.381E+01       0.013     2273.035   0.100E-11
     TRS4 it   6 1.00000000   0.984E+00       0.013     2269.673   0.100E-11
     TRS4 it   7 1.00000000   0.119E+00       0.013     2271.613   0.100E-11
     TRS4 it   8 1.00000000   0.245E-02       0.012     2277.796   0.100E-11
     TRS4 it   9 1.00000000   0.120E-05       0.013     2270.700   0.100E-11
     TRS4 it  10 1.00000000   0.714E-12       0.013     2274.998   0.100E-11
     Final TRS4 iteration   10 1.00000000   0.714E-12
     Chemical potential (mu):       0.05116
 
 PAO| energy:  -190.84693711305758      penalty:   5.1513506050881682E-004
 PAO|LS| adapt:  T T T
 PAO|LS| adapt: scan_steps:    0.0000000000000000       0.28340771480364008       0.56681542960728015     
 PAO|LS| adapt: energies:   -190.45997701100711       -190.84693711305758       -189.56751257878778     
 PAO|LS| adapt: suggested step_size:   0.20751548087218261     
 PAO|LS| adapt: predicted energy  -190.90668418055751     
 PAO| ======================= Iteration:         9 =============================

     Lanczos converged:  F threshold:   0.100E-02
     Est. extremal eigenvalues:    0.498E+01   0.124E+00
     Est. condition number :    0.403E+02

 Order=           3
     NS sqrt iter    1 1.00000000   0.127E+01       0.020     2802.663
     NS sqrt iter    2 1.00000000   0.656E+00       0.033     3472.135
     NS sqrt iter    3 1.00000000   0.219E+00       0.033     3464.049
     NS sqrt iter    4 1.00000000   0.317E-01       0.033     3477.029
     NS sqrt iter    5 1.00000000   0.213E-03       0.032     3497.967
     NS sqrt iter    6 1.00000000   0.183E-09       0.027     2668.647
     Symmetrizing Results
     Final NS sqrt iter    6 1.00000000   0.949E-12

     Est. extremal eigenvalues     -0.83357     2.61384  converged:  T
     TRS4 it   1 1.00000000   0.285E+02       0.006     2206.473   0.100E-11
     TRS4 it   2 1.00000000   0.236E+02       0.013     2253.017   0.100E-11
     TRS4 it   3 1.00000000   0.155E+02       0.012     2283.713   0.100E-11
     TRS4 it   4 1.00000000   0.906E+01       0.013     2261.862   0.100E-11
     TRS4 it   5 1.00000000   0.380E+01       0.013     2273.475   0.100E-11
     TRS4 it   6 1.00000000   0.981E+00       0.013     2260.317   0.100E-11
     TRS4 it   7 1.00000000   0.119E+00       0.012     2278.796   0.100E-11
     TRS4 it   8 1.00000000   0.245E-02       0.013     2270.147   0.100E-11
     TRS4 it   9 1.00000000   0.120E-05       0.013     2272.600   0.100E-11
     TRS4 it  10 1.00000000   0.689E-12       0.013     2273.791   0.100E-11
     Final TRS4 iteration   10 1.00000000   0.689E-12
     Chemical potential (mu):       0.05096
 
 PAO| energy:  -190.91102647015461      penalty:   4.9822476806354421E-004
 PAO|CG| trace_G_new   0.75067484123905348     
 PAO|CG| trace_G_prev    4.4047024299971245     
 PAO|CG| trace_G_mix   -4.4489717659079102E-002
 PAO|CG| trace_D    4.4047024299971245     
 PAO|CG| trace_D_Gnew   4.4489717659079102E-002
 PAO|CG| beta:   0.18052628333820309     
 PAO| norm of gradient:  0.86641493595104502     
 PAO| energy improvement: -0.45104945914749806     
 PAO| step      9                 -190.911026470  0.169E-02  0.208E+00     1.492
 PAO|LS| adapt:  T F F
 PAO|LS| adapt: scan_steps:    0.0000000000000000        0.0000000000000000        0.0000000000000000     
 PAO|LS| adapt: energies:   -190.91102647015461        0.0000000000000000        0.0000000000000000     
 PAO| ======================= Iteration:        10 =============================

     Lanczos converged:  F threshold:   0.100E-02
     Est. extremal eigenvalues:    0.493E+01   0.127E+00
     Est. condition number :    0.388E+02

 Order=           3
     NS sqrt iter    1 1.00000000   0.126E+01       0.021     2760.432
     NS sqrt iter    2 1.00000000   0.647E+00       0.033     3476.814
     NS sqrt iter    3 1.00000000   0.213E+00       0.033     3453.179
     NS sqrt iter    4 1.00000000   0.294E-01       0.033     3465.591
     NS sqrt iter    5 1.00000000   0.170E-03       0.033     3477.780
     NS sqrt iter    6 1.00000000   0.924E-10       0.024     2544.188
     Symmetrizing Results
     Final NS sqrt iter    6 1.00000000   0.170E-11

     Est. extremal eigenvalues     -0.83404     2.60024  converged:  T
     TRS4 it   1 1.00000000   0.284E+02       0.006     2207.301   0.100E-11
     TRS4 it   2 1.00000000   0.235E+02       0.012     2289.214   0.100E-11
     TRS4 it   3 1.00000000   0.155E+02       0.013     2275.787   0.100E-11
     TRS4 it   4 1.00000000   0.904E+01       0.013     2268.871   0.100E-11
     TRS4 it   5 1.00000000   0.378E+01       0.012     2281.004   0.100E-11
     TRS4 it   6 1.00000000   0.968E+00       0.013     2255.368   0.100E-11
     TRS4 it   7 1.00000000   0.115E+00       0.013     2256.793   0.100E-11
     TRS4 it   8 1.00000000   0.230E-02       0.013     2267.821   0.100E-11
     TRS4 it   9 1.00000000   0.106E-05       0.013     2264.499   0.100E-11
     TRS4 it  10 1.00000000   0.549E-12       0.012     2292.960   0.100E-11
     Final TRS4 iteration   10 1.00000000   0.549E-12
     Chemical potential (mu):       0.05186
 
 PAO| energy:  -191.01471081953056      penalty:   5.0105294726348465E-004
 PAO|LS| adapt:  T T F
 PAO|LS| adapt: scan_steps:    0.0000000000000000       0.20751548087218261        0.0000000000000000     
 PAO|LS| adapt: energies:   -190.91102647015461       -191.01471081953056        0.0000000000000000     
 PAO| ======================= Iteration:        11 =============================

     Lanczos converged:  F threshold:   0.100E-02
     Est. extremal eigenvalues:    0.487E+01   0.130E+00
     Est. condition number :    0.374E+02

 Order=           3
     NS sqrt iter    1 1.00000000   0.125E+01       0.020     2777.943
     NS sqrt iter    2 1.00000000   0.639E+00       0.033     3460.319
     NS sqrt iter    3 1.00000000   0.207E+00       0.032     3490.957
     NS sqrt iter    4 1.00000000   0.272E-01       0.033     3455.633
     NS sqrt iter    5 1.00000000   0.135E-03       0.033     3468.539
     NS sqrt iter    6 1.00000000   0.459E-10       0.021     2392.299
     Symmetrizing Results
     Final NS sqrt iter    6 1.00000000   0.222E-11

     Est. extremal eigenvalues     -0.83426     2.58659  converged:  T
     TRS4 it   1 1.00000000   0.284E+02       0.006     2208.449   0.100E-11
     TRS4 it   2 1.00000000   0.234E+02       0.013     2270.674   0.100E-11
     TRS4 it   3 1.00000000   0.155E+02       0.012     2286.853   0.100E-11
     TRS4 it   4 1.00000000   0.902E+01       0.013     2273.126   0.100E-11
     TRS4 it   5 1.00000000   0.375E+01       0.013     2263.622   0.100E-11
     TRS4 it   6 1.00000000   0.953E+00       0.012     2296.090   0.100E-11
     TRS4 it   7 1.00000000   0.112E+00       0.013     2275.223   0.100E-11
     TRS4 it   8 1.00000000   0.215E-02       0.012     2282.821   0.100E-11
     TRS4 it   9 1.00000000   0.930E-06       0.012     2281.278   0.100E-11
     TRS4 it  10 1.00000000   0.458E-12       0.012     2287.816   0.100E-11
     Final TRS4 iteration   10 1.00000000   0.458E-12
     Chemical potential (mu):       0.05284
 
 PAO| energy:  -191.02037500931829      penalty:   5.1431767775089764E-004
 PAO|LS| adapt:  T T F
 PAO|LS| adapt: scan_steps:    0.0000000000000000       0.41503096174436521        0.0000000000000000     
 PAO|LS| adapt: energies:   -190.91102647015461       -191.02037500931829        0.0000000000000000     
 PAO| ======================= Iteration:        12 =============================

     Lanczos converged:  T threshold:   0.100E-02
     Est. extremal eigenvalues:    0.477E+01   0.137E+00
     Est. condition number :    0.348E+02

 Order=           3
     NS sqrt iter    1 1.00000000   0.123E+01       0.021     2765.378
     NS sqrt iter    2 1.00000000   0.622E+00       0.034     3362.257
     NS sqrt iter    3 1.00000000   0.196E+00       0.033     3463.636
     NS sqrt iter    4 1.00000000   0.233E-01       0.033     3483.328
     NS sqrt iter    5 1.00000000   0.841E-04       0.033     3481.800
     NS sqrt iter    6 1.00000000   0.108E-10       0.015     2197.617
     Symmetrizing Results
     Final NS sqrt iter    6 1.00000000   0.175E-11

     Est. extremal eigenvalues     -0.83397     2.56028  converged:  T
     TRS4 it   1 1.00000000   0.284E+02       0.006     2199.430   0.100E-11
     TRS4 it   2 1.00000000   0.233E+02       0.013     2265.858   0.100E-11
     TRS4 it   3 1.00000000   0.154E+02       0.013     2257.504   0.100E-11
     TRS4 it   4 1.00000000   0.896E+01       0.013     2275.196   0.100E-11
     TRS4 it   5 1.00000000   0.369E+01       0.013     2276.137   0.100E-11
     TRS4 it   6 1.00000000   0.920E+00       0.012     2301.456   0.100E-11
     TRS4 it   7 1.00000000   0.103E+00       0.013     2260.921   0.100E-11
     TRS4 it   8 1.00000000   0.184E-02       0.012     2285.238   0.100E-11
     TRS4 it   9 1.00000000   0.694E-06       0.013     2252.373   0.100E-11
     TRS4 it  10 1.00000000   0.231E-12       0.013     2264.086   0.100E-11
     Final TRS4 iteration   10 1.00000000   0.231E-12
     Chemical potential (mu):       0.05498
 
 PAO| energy:  -190.75543081880269      penalty:   5.7995584285581493E-004
 PAO|LS| Need extra step
 PAO|LS| adapt:  T T T
 PAO|LS| adapt: scan_steps:    0.0000000000000000       0.41503096174436521       0.83006192348873042     
 PAO|LS| adapt: energies:   -190.91102647015461       -191.02037500931829       -190.75543081880269     
 PAO|LS| adapt: suggested step_size:   0.32876557678863449     
 PAO|LS| adapt: predicted energy  -191.02846026078055     
 PAO| ======================= Iteration:        13 =============================

     Lanczos converged:  F threshold:   0.100E-02
     Est. extremal eigenvalues:    0.490E+01   0.129E+00
     Est. condition number :    0.380E+02

 Order=           3
     NS sqrt iter    1 1.00000000   0.125E+01       0.021     2753.689
     NS sqrt iter    2 1.00000000   0.642E+00       0.032     3492.125
     NS sqrt iter    3 1.00000000   0.209E+00       0.033     3444.465
     NS sqrt iter    4 1.00000000   0.281E-01       0.033     3476.716
     NS sqrt iter    5 1.00000000   0.148E-03       0.033     3476.040
     NS sqrt iter    6 1.00000000   0.615E-10       0.023     2425.098
     Symmetrizing Results
     Final NS sqrt iter    6 1.00000000   0.209E-11

     Est. extremal eigenvalues     -0.83420     2.59225  converged:  T
     TRS4 it   1 1.00000000   0.284E+02       0.007     2175.639   0.100E-11
     TRS4 it   2 1.00000000   0.235E+02       0.013     2271.883   0.100E-11
     TRS4 it   3 1.00000000   0.155E+02       0.013     2271.622   0.100E-11
     TRS4 it   4 1.00000000   0.903E+01       0.013     2264.814   0.100E-11
     TRS4 it   5 1.00000000   0.376E+01       0.013     2276.645   0.100E-11
     TRS4 it   6 1.00000000   0.959E+00       0.013     2265.173   0.100E-11
     TRS4 it   7 1.00000000   0.113E+00       0.013     2256.878   0.100E-11
     TRS4 it   8 1.00000000   0.221E-02       0.012     2284.127   0.100E-11
     TRS4 it   9 1.00000000   0.984E-06       0.012     2284.204   0.100E-11
     TRS4 it  10 1.00000000   0.451E-12       0.013     2226.174   0.100E-11
     Final TRS4 iteration   10 1.00000000   0.451E-12
     Chemical potential (mu):       0.05242
 
 PAO| energy:  -191.02964595095565      penalty:   5.0744585390747829E-004
 PAO|CG| trace_G_new   0.29222431192611692     
 PAO|CG| trace_G_prev   0.75067484123905348     
 PAO|CG| trace_G_mix   -1.2812651965599813E-002
 PAO|CG| trace_D   0.87815981694767609     
 PAO|CG| trace_D_Gnew   1.2453402028169743E-002
 PAO|CG| beta:   0.40635032258204762     
 PAO| norm of gradient:  0.54057775752070758     
 PAO| energy improvement: -0.11861948080104412     
 PAO| step     13                 -191.029645951  0.106E-02  0.329E+00     1.922
 PAO|LS| adapt:  T F F
 PAO|LS| adapt: scan_steps:    0.0000000000000000        0.0000000000000000        0.0000000000000000     
 PAO|LS| adapt: energies:   -191.02964595095565        0.0000000000000000        0.0000000000000000     
 PAO| ======================= Iteration:        14 =============================

     Lanczos converged:  F threshold:   0.100E-02
     Est. extremal eigenvalues:    0.482E+01   0.132E+00
     Est. condition number :    0.365E+02

 Order=           3
     NS sqrt iter    1 1.00000000   0.124E+01       0.021     2774.076
     NS sqrt iter    2 1.00000000   0.631E+00       0.033     3465.616
     NS sqrt iter    3 1.00000000   0.203E+00       0.032     3490.237
     NS sqrt iter    4 1.00000000   0.258E-01       0.033     3472.696
     NS sqrt iter    5 1.00000000   0.118E-03       0.033     3470.968
     NS sqrt iter    6 1.00000000   0.309E-10       0.019     2307.625
     Symmetrizing Results
     Final NS sqrt iter    6 1.00000000   0.216E-11

     Est. extremal eigenvalues     -0.83455     2.58516  converged:  T
     TRS4 it   1 1.00000000   0.285E+02       0.006     2217.144   0.100E-11
     TRS4 it   2 1.00000000   0.234E+02       0.013     2254.325   0.100E-11
     TRS4 it   3 1.00000000   0.155E+02       0.012     2281.756   0.100E-11
     TRS4 it   4 1.00000000   0.897E+01       0.013     2259.517   0.100E-11
     TRS4 it   5 1.00000000   0.370E+01       0.012     2279.962   0.100E-11
     TRS4 it   6 1.00000000   0.929E+00       0.012     2293.938   0.100E-11
     TRS4 it   7 1.00000000   0.106E+00       0.013     2262.974   0.100E-11
     TRS4 it   8 1.00000000   0.194E-02       0.012     2279.146   0.100E-11
     TRS4 it   9 1.00000000   0.762E-06       0.012     2294.130   0.100E-11
     TRS4 it  10 1.00000000   0.274E-12       0.013     2268.620   0.100E-11
     Final TRS4 iteration   10 1.00000000   0.274E-12
     Chemical potential (mu):       0.05432
 
 PAO| energy:  -191.08424909222288      penalty:   5.1044733700458052E-004
 PAO|LS| adapt:  T T F
 PAO|LS| adapt: scan_steps:    0.0000000000000000       0.32876557678863449        0.0000000000000000     
 PAO|LS| adapt: energies:   -191.02964595095565       -191.08424909222288        0.0000000000000000     
 PAO| ======================= Iteration:        15 =============================

     Lanczos converged:  F threshold:   0.100E-02
     Est. extremal eigenvalues:    0.475E+01   0.135E+00
     Est. condition number :    0.352E+02

 Order=           3
     NS sqrt iter    1 1.00000000   0.122E+01       0.021     2775.867
     NS sqrt iter    2 1.00000000   0.621E+00       0.033     3456.635
     NS sqrt iter    3 1.00000000   0.197E+00       0.033     3451.713
     NS sqrt iter    4 1.00000000   0.238E-01       0.033     3458.316
     NS sqrt iter    5 1.00000000   0.935E-04       0.033     3446.322
     NS sqrt iter    6 1.00000000   0.155E-10       0.016     2216.588
     Symmetrizing Results
     Final NS sqrt iter    6 1.00000000   0.199E-11

     Est. extremal eigenvalues     -0.83463     2.57769  converged:  T
     TRS4 it   1 1.00000000   0.285E+02       0.007     2182.577   0.100E-11
     TRS4 it   2 1.00000000   0.234E+02       0.013     2265.211   0.100E-11
     TRS4 it   3 1.00000000   0.154E+02       0.013     2275.090   0.100E-11
     TRS4 it   4 1.00000000   0.891E+01       0.012     2290.338   0.100E-11
     TRS4 it   5 1.00000000   0.365E+01       0.013     2255.123   0.100E-11
     TRS4 it   6 1.00000000   0.899E+00       0.012     2280.828   0.100E-11
     TRS4 it   7 1.00000000   0.996E-01       0.012     2287.923   0.100E-11
     TRS4 it   8 1.00000000   0.170E-02       0.013     2273.455   0.100E-11
     TRS4 it   9 1.00000000   0.594E-06       0.013     2275.298   0.100E-11
     TRS4 it  10 1.00000000   0.151E-12       0.012     2281.148   0.100E-11
     Final TRS4 iteration   10 1.00000000   0.151E-12
     Chemical potential (mu):       0.05612
 
 PAO| energy:  -191.06045241594197      penalty:   5.2944628202761333E-004
 PAO|LS| adapt:  T T T
 PAO|LS| adapt: scan_steps:    0.0000000000000000       0.32876557678863449       0.65753115357726899     
 PAO|LS| adapt: energies:   -191.02964595095565       -191.08424909222288       -191.06045241594197     
 PAO|LS| adapt: suggested step_size:   0.39335823495283279     
 PAO|LS| adapt: predicted energy  -191.08576223076489     
 PAO| ======================= Iteration:        16 =============================

     Lanczos converged:  F threshold:   0.100E-02
     Est. extremal eigenvalues:    0.481E+01   0.133E+00
     Est. condition number :    0.363E+02

 Order=           3
     NS sqrt iter    1 1.00000000   0.124E+01       0.021     2776.272
     NS sqrt iter    2 1.00000000   0.629E+00       0.033     3466.605
     NS sqrt iter    3 1.00000000   0.202E+00       0.033     3466.343
     NS sqrt iter    4 1.00000000   0.254E-01       0.033     3477.821
     NS sqrt iter    5 1.00000000   0.112E-03       0.033     3474.865
     NS sqrt iter    6 1.00000000   0.270E-10       0.018     2294.487
     Symmetrizing Results
     Final NS sqrt iter    6 1.00000000   0.219E-11

     Est. extremal eigenvalues     -0.83459     2.58372  converged:  T
     TRS4 it   1 1.00000000   0.285E+02       0.006     2198.683   0.100E-11
     TRS4 it   2 1.00000000   0.234E+02       0.013     2250.770   0.100E-11
     TRS4 it   3 1.00000000   0.155E+02       0.013     2258.803   0.100E-11
     TRS4 it   4 1.00000000   0.896E+01       0.012     2294.064   0.100E-11
     TRS4 it   5 1.00000000   0.369E+01       0.013     2270.149   0.100E-11
     TRS4 it   6 1.00000000   0.923E+00       0.012     2295.577   0.100E-11
     TRS4 it   7 1.00000000   0.105E+00       0.013     2263.562   0.100E-11
     TRS4 it   8 1.00000000   0.189E-02       0.012     2284.180   0.100E-11
     TRS4 it   9 1.00000000   0.726E-06       0.012     2287.698   0.100E-11
     TRS4 it  10 1.00000000   0.227E-12       0.013     2269.090   0.100E-11
     Final TRS4 iteration   10 1.00000000   0.227E-12
     Chemical potential (mu):       0.05468
 
 PAO| energy:  -191.08570387091146      penalty:   5.1286330611933963E-004
 PAO|CG| trace_G_new   0.11226392728581039     
 PAO|CG| trace_G_prev   0.29222431192611692     
 PAO|CG| trace_G_mix    4.7610922314870836E-003
 PAO|CG| trace_D   0.42710568646487973     
 PAO|CG| trace_D_Gnew   8.3364286061671862E-004
 PAO|CG| beta:   0.36787779341748694     
 PAO| norm of gradient:  0.33505809538915843     
 PAO| energy improvement:  -5.6057919955804891E-002
 PAO| step     16                 -191.085703871  0.654E-03  0.393E+00     1.472
 PAO|LS| adapt:  T F F
 PAO|LS| adapt: scan_steps:    0.0000000000000000        0.0000000000000000        0.0000000000000000     
 PAO|LS| adapt: energies:   -191.08570387091146        0.0000000000000000        0.0000000000000000     
 PAO| ======================= Iteration:        17 =============================

     Lanczos converged:  F threshold:   0.100E-02
     Est. extremal eigenvalues:    0.477E+01   0.134E+00
     Est. condition number :    0.355E+02

 Order=           3
     NS sqrt iter    1 1.00000000   0.123E+01       0.020     2785.037
     NS sqrt iter    2 1.00000000   0.624E+00       0.032     3495.939
     NS sqrt iter    3 1.00000000   0.199E+00       0.033     3477.087
     NS sqrt iter    4 1.00000000   0.246E-01       0.032     3485.406
     NS sqrt iter    5 1.00000000   0.102E-03       0.033     3468.878
     NS sqrt iter    6 1.00000000   0.204E-10       0.017     2260.529
     Symmetrizing Results
     Final NS sqrt iter    6 1.00000000   0.211E-11

     Est. extremal eigenvalues     -0.83467     2.58036  converged:  T
     TRS4 it   1 1.00000000   0.285E+02       0.006     2224.467   0.100E-11
     TRS4 it   2 1.00000000   0.234E+02       0.012     2285.347   0.100E-11
     TRS4 it   3 1.00000000   0.154E+02       0.012     2292.794   0.100E-11
     TRS4 it   4 1.00000000   0.891E+01       0.012     2277.146   0.100E-11
     TRS4 it   5 1.00000000   0.365E+01       0.012     2286.039   0.100E-11
     TRS4 it   6 1.00000000   0.903E+00       0.013     2262.556   0.100E-11
     TRS4 it   7 1.00000000   0.101E+00       0.012     2280.384   0.100E-11
     TRS4 it   8 1.00000000   0.173E-02       0.013     2250.681   0.100E-11
     TRS4 it   9 1.00000000   0.615E-06       0.012     2278.533   0.100E-11
     TRS4 it  10 1.00000000   0.197E-12       0.013     2262.664   0.100E-11
     Final TRS4 iteration   10 1.00000000   0.197E-12
     Chemical potential (mu):       0.05581
 
 PAO| energy:  -191.09015160641664      penalty:   5.0649880351924829E-004
 PAO|LS| adapt:  T T F
 PAO|LS| adapt: scan_steps:    0.0000000000000000       0.39335823495283279        0.0000000000000000     
 PAO|LS| adapt: energies:   -191.08570387091146       -191.09015160641664        0.0000000000000000     
 PAO| ======================= Iteration:        18 =============================

     Lanczos converged:  F threshold:   0.100E-02
     Est. extremal eigenvalues:    0.473E+01   0.136E+00
     Est. condition number :    0.348E+02

 Order=           3
     NS sqrt iter    1 1.00000000   0.122E+01       0.021     2766.842
     NS sqrt iter    2 1.00000000   0.619E+00       0.033     3478.208
     NS sqrt iter    3 1.00000000   0.196E+00       0.033     3405.891
     NS sqrt iter    4 1.00000000   0.238E-01       0.033     3399.181
     NS sqrt iter    5 1.00000000   0.933E-04       0.033     3420.287
     NS sqrt iter    6 1.00000000   0.155E-10       0.016     2212.632
     Symmetrizing Results
     Final NS sqrt iter    6 1.00000000   0.200E-11

     Est. extremal eigenvalues     -0.83460     2.57686  converged:  T
     TRS4 it   1 1.00000000   0.285E+02       0.006     2190.806   0.100E-11
     TRS4 it   2 1.00000000   0.233E+02       0.013     2264.589   0.100E-11
     TRS4 it   3 1.00000000   0.154E+02       0.013     2264.643   0.100E-11
     TRS4 it   4 1.00000000   0.886E+01       0.012     2295.129   0.100E-11
     TRS4 it   5 1.00000000   0.361E+01       0.013     2255.164   0.100E-11
     TRS4 it   6 1.00000000   0.883E+00       0.012     2290.163   0.100E-11
     TRS4 it   7 1.00000000   0.965E-01       0.013     2273.562   0.100E-11
     TRS4 it   8 1.00000000   0.160E-02       0.012     2281.713   0.100E-11
     TRS4 it   9 1.00000000   0.522E-06       0.012     2291.107   0.100E-11
     TRS4 it  10 1.00000000   0.924E-13       0.012     2279.168   0.100E-11
     Final TRS4 iteration   10 1.00000000   0.924E-13
     Chemical potential (mu):       0.05699
 
 PAO| energy:  -191.01523583444654      penalty:   5.0835388234496989E-004
 PAO|LS| adapt:  T T T
 PAO|LS| adapt: scan_steps:    0.0000000000000000       0.39335823495283279       0.78671646990566557     
 PAO|LS| adapt: energies:   -191.08570387091146       -191.09015160641664       -191.01523583444654     
 PAO|LS| adapt: suggested step_size:   0.21872392677872768     
 PAO|LS| adapt: predicted energy  -191.09797280837896     
 PAO| ======================= Iteration:        19 =============================

     Lanczos converged:  F threshold:   0.100E-02
     Est. extremal eigenvalues:    0.479E+01   0.133E+00
     Est. condition number :    0.359E+02

 Order=           3
     NS sqrt iter    1 1.00000000   0.123E+01       0.021     2747.811
     NS sqrt iter    2 1.00000000   0.626E+00       0.033     3472.334
     NS sqrt iter    3 1.00000000   0.200E+00       0.033     3442.750
     NS sqrt iter    4 1.00000000   0.250E-01       0.033     3473.729
     NS sqrt iter    5 1.00000000   0.107E-03       0.033     3467.738
     NS sqrt iter    6 1.00000000   0.230E-10       0.018     2251.131
     Symmetrizing Results
     Final NS sqrt iter    6 1.00000000   0.216E-11

     Est. extremal eigenvalues     -0.83465     2.58187  converged:  T
     TRS4 it   1 1.00000000   0.285E+02       0.006     2190.620   0.100E-11
     TRS4 it   2 1.00000000   0.234E+02       0.013     2260.463   0.100E-11
     TRS4 it   3 1.00000000   0.154E+02       0.012     2277.337   0.100E-11
     TRS4 it   4 1.00000000   0.893E+01       0.012     2279.517   0.100E-11
     TRS4 it   5 1.00000000   0.367E+01       0.013     2243.566   0.100E-11
     TRS4 it   6 1.00000000   0.911E+00       0.012     2289.857   0.100E-11
     TRS4 it   7 1.00000000   0.102E+00       0.013     2261.465   0.100E-11
     TRS4 it   8 1.00000000   0.180E-02       0.013     2262.195   0.100E-11
     TRS4 it   9 1.00000000   0.662E-06       0.013     2274.180   0.100E-11
     TRS4 it  10 1.00000000   0.217E-12       0.013     2256.106   0.100E-11
     Final TRS4 iteration   10 1.00000000   0.217E-12
     Chemical potential (mu):       0.05531
 
 PAO| energy:  -191.09795859758952      penalty:   5.0832972160077140E-004
 PAO|CG| trace_G_new    2.1268243844550991E-002
 PAO|CG| trace_G_prev   0.11226392728581039     
 PAO|CG| trace_G_mix   -3.8649533524056181E-004
 PAO|CG| trace_D   0.16945252114312676     
 PAO|CG| trace_D_Gnew  -4.9957800744085591E-005
 PAO|CG| beta:   0.19289133832509889     
 PAO| norm of gradient:  0.14583635981658000     
 PAO| energy improvement:  -1.2254726678065708E-002
 PAO| step     19                 -191.097958598  0.285E-03  0.219E+00     1.472
 PAO|LS| adapt:  T F F
 PAO|LS| adapt: scan_steps:    0.0000000000000000        0.0000000000000000        0.0000000000000000     
 PAO|LS| adapt: energies:   -191.09795859758952        0.0000000000000000        0.0000000000000000     
 PAO| ======================= Iteration:        20 =============================

     Lanczos converged:  F threshold:   0.100E-02
     Est. extremal eigenvalues:    0.478E+01   0.134E+00
     Est. condition number :    0.358E+02

 Order=           3
     NS sqrt iter    1 1.00000000   0.123E+01       0.020     2782.537
     NS sqrt iter    2 1.00000000   0.626E+00       0.033     3482.296
     NS sqrt iter    3 1.00000000   0.200E+00       0.033     3473.349
     NS sqrt iter    4 1.00000000   0.249E-01       0.033     3462.642
     NS sqrt iter    5 1.00000000   0.106E-03       0.033     3459.429
     NS sqrt iter    6 1.00000000   0.227E-10       0.018     2252.689
     Symmetrizing Results
     Final NS sqrt iter    6 1.00000000   0.215E-11

     Est. extremal eigenvalues     -0.83466     2.58051  converged:  T
     TRS4 it   1 1.00000000   0.285E+02       0.006     2206.097   0.100E-11
     TRS4 it   2 1.00000000   0.234E+02       0.013     2262.668   0.100E-11
     TRS4 it   3 1.00000000   0.154E+02       0.013     2274.612   0.100E-11
     TRS4 it   4 1.00000000   0.892E+01       0.013     2259.641   0.100E-11
     TRS4 it   5 1.00000000   0.366E+01       0.013     2270.589   0.100E-11
     TRS4 it   6 1.00000000   0.907E+00       0.013     2272.377   0.100E-11
     TRS4 it   7 1.00000000   0.102E+00       0.013     2275.665   0.100E-11
     TRS4 it   8 1.00000000   0.177E-02       0.012     2277.856   0.100E-11
     TRS4 it   9 1.00000000   0.642E-06       0.012     2283.119   0.100E-11
     TRS4 it  10 1.00000000   0.204E-12       0.013     2253.852   0.100E-11
     Final TRS4 iteration   10 1.00000000   0.204E-12
     Chemical potential (mu):       0.05549
 
 PAO| energy:  -191.10169408488525      penalty:   4.9881501588963303E-004
 PAO|LS| adapt:  T T F
 PAO|LS| adapt: scan_steps:    0.0000000000000000       0.21872392677872768        0.0000000000000000     
 PAO|LS| adapt: energies:   -191.09795859758952       -191.10169408488525        0.0000000000000000     
 PAO| ======================= Iteration:        21 =============================

     Lanczos converged:  F threshold:   0.100E-02
     Est. extremal eigenvalues:    0.478E+01   0.134E+00
     Est. condition number :    0.357E+02

 Order=           3
     NS sqrt iter    1 1.00000000   0.123E+01       0.020     2777.021
     NS sqrt iter    2 1.00000000   0.626E+00       0.033     3462.456
     NS sqrt iter    3 1.00000000   0.200E+00       0.033     3471.487
     NS sqrt iter    4 1.00000000   0.249E-01       0.033     3477.760
     NS sqrt iter    5 1.00000000   0.106E-03       0.033     3472.072
     NS sqrt iter    6 1.00000000   0.225E-10       0.018     2254.366
     Symmetrizing Results
     Final NS sqrt iter    6 1.00000000   0.215E-11

     Est. extremal eigenvalues     -0.83466     2.57913  converged:  T
     TRS4 it   1 1.00000000   0.285E+02       0.007     2157.591   0.100E-11
     TRS4 it   2 1.00000000   0.234E+02       0.013     2271.604   0.100E-11
     TRS4 it   3 1.00000000   0.154E+02       0.012     2287.608   0.100E-11
     TRS4 it   4 1.00000000   0.891E+01       0.012     2278.962   0.100E-11
     TRS4 it   5 1.00000000   0.365E+01       0.012     2303.742   0.100E-11
     TRS4 it   6 1.00000000   0.903E+00       0.012     2289.472   0.100E-11
     TRS4 it   7 1.00000000   0.101E+00       0.012     2292.057   0.100E-11
     TRS4 it   8 1.00000000   0.174E-02       0.013     2273.780   0.100E-11
     TRS4 it   9 1.00000000   0.622E-06       0.013     2253.705   0.100E-11
     TRS4 it  10 1.00000000   0.199E-12       0.013     2264.935   0.100E-11
     Final TRS4 iteration   10 1.00000000   0.199E-12
     Chemical potential (mu):       0.05568
 
 PAO| energy:  -191.10357942476486      penalty:   4.8970623282662865E-004
 PAO|LS| adapt:  T T F
 PAO|LS| adapt: scan_steps:    0.0000000000000000       0.43744785355745536        0.0000000000000000     
 PAO|LS| adapt: energies:   -191.09795859758952       -191.10357942476486        0.0000000000000000     
 PAO| ======================= Iteration:        22 =============================

     Lanczos converged:  F threshold:   0.100E-02
     Est. extremal eigenvalues:    0.477E+01   0.134E+00
     Est. condition number :    0.355E+02

 Order=           3
     NS sqrt iter    1 1.00000000   0.123E+01       0.021     2756.826
     NS sqrt iter    2 1.00000000   0.625E+00       0.033     3466.083
     NS sqrt iter    3 1.00000000   0.200E+00       0.033     3479.317
     NS sqrt iter    4 1.00000000   0.249E-01       0.033     3472.247
     NS sqrt iter    5 1.00000000   0.106E-03       0.033     3483.892
     NS sqrt iter    6 1.00000000   0.220E-10       0.017     2251.832
     Symmetrizing Results
     Final NS sqrt iter    6 1.00000000   0.213E-11

     Est. extremal eigenvalues     -0.83467     2.57635  converged:  T
     TRS4 it   1 1.00000000   0.285E+02       0.006     2194.299   0.100E-11
     TRS4 it   2 1.00000000   0.233E+02       0.013     2269.161   0.100E-11
     TRS4 it   3 1.00000000   0.154E+02       0.013     2248.183   0.100E-11
     TRS4 it   4 1.00000000   0.888E+01       0.012     2281.137   0.100E-11
     TRS4 it   5 1.00000000   0.363E+01       0.013     2265.660   0.100E-11
     TRS4 it   6 1.00000000   0.895E+00       0.012     2290.410   0.100E-11
     TRS4 it   7 1.00000000   0.992E-01       0.013     2251.657   0.100E-11
     TRS4 it   8 1.00000000   0.169E-02       0.013     2245.232   0.100E-11
     TRS4 it   9 1.00000000   0.584E-06       0.012     2291.662   0.100E-11
     TRS4 it  10 1.00000000   0.165E-12       0.013     2269.624   0.100E-11
     Final TRS4 iteration   10 1.00000000   0.165E-12
     Chemical potential (mu):       0.05607
 
 PAO| energy:  -191.10172020062342      penalty:   4.7268163641822999E-004
 PAO|LS| Need extra step
 PAO|LS| adapt:  T T T
 PAO|LS| adapt: scan_steps:    0.0000000000000000       0.43744785355745536       0.87489570711491071     
 PAO|LS| adapt: energies:   -191.09795859758952       -191.10357942476486       -191.10172020062342     
 PAO|LS| adapt: suggested step_size:   0.54744076025193333     
 PAO|LS| adapt: predicted energy  -191.10381588132086     
 PAO| ======================= Iteration:        23 =============================

     Lanczos converged:  F threshold:   0.100E-02
     Est. extremal eigenvalues:    0.477E+01   0.134E+00
     Est. condition number :    0.357E+02

 Order=           3
     NS sqrt iter    1 1.00000000   0.123E+01       0.021     2766.990
     NS sqrt iter    2 1.00000000   0.625E+00       0.033     3469.492
     NS sqrt iter    3 1.00000000   0.200E+00       0.033     3462.377
     NS sqrt iter    4 1.00000000   0.249E-01       0.033     3481.186
     NS sqrt iter    5 1.00000000   0.106E-03       0.032     3485.391
     NS sqrt iter    6 1.00000000   0.224E-10       0.018     2247.559
     Symmetrizing Results
     Final NS sqrt iter    6 1.00000000   0.214E-11

     Est. extremal eigenvalues     -0.83466     2.57844  converged:  T
     TRS4 it   1 1.00000000   0.285E+02       0.006     2192.602   0.100E-11
     TRS4 it   2 1.00000000   0.234E+02       0.012     2277.758   0.100E-11
     TRS4 it   3 1.00000000   0.154E+02       0.013     2272.484   0.100E-11
     TRS4 it   4 1.00000000   0.890E+01       0.013     2243.488   0.100E-11
     TRS4 it   5 1.00000000   0.364E+01       0.013     2268.307   0.100E-11
     TRS4 it   6 1.00000000   0.901E+00       0.013     2270.671   0.100E-11
     TRS4 it   7 1.00000000   0.100E+00       0.012     2290.633   0.100E-11
     TRS4 it   8 1.00000000   0.173E-02       0.012     2284.615   0.100E-11
     TRS4 it   9 1.00000000   0.612E-06       0.013     2266.365   0.100E-11
     TRS4 it  10 1.00000000   0.179E-12       0.013     2273.266   0.100E-11
     Final TRS4 iteration   10 1.00000000   0.179E-12
     Chemical potential (mu):       0.05578
 
 PAO| energy:  -191.10382213480759      penalty:   4.8527683819971101E-004
 PAO|CG| trace_G_new    1.5948172175292152E-002
 PAO|CG| trace_G_prev    2.1268243844550991E-002
 PAO|CG| trace_G_mix    1.1366747796764037E-004
 PAO|CG| trace_D    2.7592348243510020E-002
 PAO|CG| trace_D_Gnew  -4.9222877362027346E-005
 PAO|CG| beta:   0.74451397177211587     
 PAO| norm of gradient:  0.12628607276850504     
 PAO| energy improvement:  -5.8635372180617651E-003
 PAO| step     23                 -191.103822135  0.247E-03  0.547E+00     1.909
 PAO|LS| adapt:  T F F
 PAO|LS| adapt: scan_steps:    0.0000000000000000        0.0000000000000000        0.0000000000000000     
 PAO|LS| adapt: energies:   -191.10382213480759        0.0000000000000000        0.0000000000000000     
 PAO| ======================= Iteration:        24 =============================

     Lanczos converged:  F threshold:   0.100E-02
     Est. extremal eigenvalues:    0.476E+01   0.134E+00
     Est. condition number :    0.355E+02

 Order=           3
     NS sqrt iter    1 1.00000000   0.122E+01       0.021     2768.132
     NS sqrt iter    2 1.00000000   0.624E+00       0.032     3498.772
     NS sqrt iter    3 1.00000000   0.200E+00       0.033     3467.187
     NS sqrt iter    4 1.00000000   0.249E-01       0.032     3490.461
     NS sqrt iter    5 1.00000000   0.106E-03       0.032     3485.834
     NS sqrt iter    6 1.00000000   0.222E-10       0.018     2259.566
     Symmetrizing Results
     Final NS sqrt iter    6 1.00000000   0.212E-11

     Est. extremal eigenvalues     -0.83467     2.57570  converged:  T
     TRS4 it   1 1.00000000   0.285E+02       0.006     2218.911   0.100E-11
     TRS4 it   2 1.00000000   0.233E+02       0.012     2279.822   0.100E-11
     TRS4 it   3 1.00000000   0.154E+02       0.013     2266.829   0.100E-11
     TRS4 it   4 1.00000000   0.888E+01       0.012     2284.281   0.100E-11
     TRS4 it   5 1.00000000   0.362E+01       0.012     2289.192   0.100E-11
     TRS4 it   6 1.00000000   0.893E+00       0.012     2277.778   0.100E-11
     TRS4 it   7 1.00000000   0.986E-01       0.013     2270.350   0.100E-11
     TRS4 it   8 1.00000000   0.167E-02       0.013     2265.039   0.100E-11
     TRS4 it   9 1.00000000   0.570E-06       0.012     2294.893   0.100E-11
     TRS4 it  10 1.00000000   0.176E-12       0.013     2274.550   0.100E-11
     Final TRS4 iteration   10 1.00000000   0.176E-12
     Chemical potential (mu):       0.05623
 
 PAO| energy:  -191.10678048384466      penalty:   4.4919175416496034E-004
 PAO|LS| adapt:  T T F
 PAO|LS| adapt: scan_steps:    0.0000000000000000       0.54744076025193333        0.0000000000000000     
 PAO|LS| adapt: energies:   -191.10382213480759       -191.10678048384466        0.0000000000000000     
 PAO| ======================= Iteration:        25 =============================

     Lanczos converged:  F threshold:   0.100E-02
     Est. extremal eigenvalues:    0.475E+01   0.134E+00
     Est. condition number :    0.354E+02

 Order=           3
     NS sqrt iter    1 1.00000000   0.122E+01       0.020     2803.688
     NS sqrt iter    2 1.00000000   0.623E+00       0.033     3483.265
     NS sqrt iter    3 1.00000000   0.199E+00       0.032     3485.669
     NS sqrt iter    4 1.00000000   0.249E-01       0.033     3480.704
     NS sqrt iter    5 1.00000000   0.106E-03       0.033     3473.890
     NS sqrt iter    6 1.00000000   0.221E-10       0.018     2247.812
     Symmetrizing Results
     Final NS sqrt iter    6 1.00000000   0.213E-11

     Est. extremal eigenvalues     -0.83466     2.57284  converged:  T
     TRS4 it   1 1.00000000   0.285E+02       0.006     2209.032   0.100E-11
     TRS4 it   2 1.00000000   0.233E+02       0.013     2275.203   0.100E-11
     TRS4 it   3 1.00000000   0.154E+02       0.013     2260.883   0.100E-11
     TRS4 it   4 1.00000000   0.885E+01       0.012     2296.342   0.100E-11
     TRS4 it   5 1.00000000   0.360E+01       0.013     2257.343   0.100E-11
     TRS4 it   6 1.00000000   0.884E+00       0.013     2246.187   0.100E-11
     TRS4 it   7 1.00000000   0.969E-01       0.013     2269.738   0.100E-11
     TRS4 it   8 1.00000000   0.161E-02       0.013     2274.032   0.100E-11
     TRS4 it   9 1.00000000   0.531E-06       0.012     2294.371   0.100E-11
     TRS4 it  10 1.00000000   0.130E-12       0.013     2271.952   0.100E-11
     Final TRS4 iteration   10 1.00000000   0.130E-12
     Chemical potential (mu):       0.05668
 
 PAO| energy:  -191.09797045728473      penalty:   4.1666884157547579E-004
 PAO|LS| adapt:  T T T
 PAO|LS| adapt: scan_steps:    0.0000000000000000       0.54744076025193333        1.0948815205038667     
 PAO|LS| adapt: energies:   -191.10382213480759       -191.10678048384466       -191.09797045728473     
 PAO|LS| adapt: suggested step_size:   0.41133672595013987     
 PAO|LS| adapt: predicted energy  -191.10714419302386     
 PAO| ======================= Iteration:        26 =============================

     Lanczos converged:  F threshold:   0.100E-02
     Est. extremal eigenvalues:    0.476E+01   0.134E+00
     Est. condition number :    0.356E+02

 Order=           3
     NS sqrt iter    1 1.00000000   0.122E+01       0.021     2762.920
     NS sqrt iter    2 1.00000000   0.624E+00       0.033     3479.998
     NS sqrt iter    3 1.00000000   0.200E+00       0.033     3475.587
     NS sqrt iter    4 1.00000000   0.249E-01       0.033     3459.610
     NS sqrt iter    5 1.00000000   0.106E-03       0.033     3476.636
     NS sqrt iter    6 1.00000000   0.222E-10       0.018     2256.909
     Symmetrizing Results
     Final NS sqrt iter    6 1.00000000   0.213E-11

     Est. extremal eigenvalues     -0.83467     2.57639  converged:  T
     TRS4 it   1 1.00000000   0.285E+02       0.006     2196.114   0.100E-11
     TRS4 it   2 1.00000000   0.233E+02       0.013     2275.211   0.100E-11
     TRS4 it   3 1.00000000   0.154E+02       0.012     2283.751   0.100E-11
     TRS4 it   4 1.00000000   0.888E+01       0.013     2262.493   0.100E-11
     TRS4 it   5 1.00000000   0.363E+01       0.013     2250.966   0.100E-11
     TRS4 it   6 1.00000000   0.895E+00       0.013     2245.992   0.100E-11
     TRS4 it   7 1.00000000   0.991E-01       0.013     2273.206   0.100E-11
     TRS4 it   8 1.00000000   0.168E-02       0.013     2244.516   0.100E-11
     TRS4 it   9 1.00000000   0.580E-06       0.013     2274.131   0.100E-11
     TRS4 it  10 1.00000000   0.149E-12       0.012     2284.318   0.100E-11
     Final TRS4 iteration   10 1.00000000   0.149E-12
     Chemical potential (mu):       0.05612
 
 PAO| energy:  -191.10713343809971      penalty:   4.5782439845796808E-004
 PAO|CG| trace_G_new    1.2250329092915565E-002
 PAO|CG| trace_G_prev    1.5948172175292152E-002
 PAO|CG| trace_G_mix    2.1723791654625760E-004
 PAO|CG| trace_D    3.1315934133380650E-002
 PAO|CG| trace_D_Gnew  -6.8490001443239073E-005
 PAO|CG| beta:   0.75451224404334438     
 PAO| norm of gradient:  0.11068120478615855     
 PAO| energy improvement:  -3.3113032921221475E-003
 PAO| step     26                 -191.107133438  0.216E-03  0.411E+00     1.471
 PAO|LS| adapt:  T F F
 PAO|LS| adapt: scan_steps:    0.0000000000000000        0.0000000000000000        0.0000000000000000     
 PAO|LS| adapt: energies:   -191.10713343809971        0.0000000000000000        0.0000000000000000     
 PAO| ======================= Iteration:        27 =============================

     Lanczos converged:  F threshold:   0.100E-02
     Est. extremal eigenvalues:    0.475E+01   0.134E+00
     Est. condition number :    0.355E+02

 Order=           3
     NS sqrt iter    1 1.00000000   0.122E+01       0.021     2770.614
     NS sqrt iter    2 1.00000000   0.623E+00       0.033     3424.711
     NS sqrt iter    3 1.00000000   0.199E+00       0.032     3501.799
     NS sqrt iter    4 1.00000000   0.248E-01       0.033     3446.538
     NS sqrt iter    5 1.00000000   0.106E-03       0.033     3478.960
     NS sqrt iter    6 1.00000000   0.222E-10       0.018     2249.517
     Symmetrizing Results
     Final NS sqrt iter    6 1.00000000   0.214E-11

     Est. extremal eigenvalues     -0.83468     2.57442  converged:  T
     TRS4 it   1 1.00000000   0.285E+02       0.006     2207.555   0.100E-11
     TRS4 it   2 1.00000000   0.233E+02       0.013     2257.001   0.100E-11
     TRS4 it   3 1.00000000   0.154E+02       0.013     2265.579   0.100E-11
     TRS4 it   4 1.00000000   0.886E+01       0.013     2254.825   0.100E-11
     TRS4 it   5 1.00000000   0.361E+01       0.012     2280.516   0.100E-11
     TRS4 it   6 1.00000000   0.887E+00       0.012     2286.875   0.100E-11
     TRS4 it   7 1.00000000   0.975E-01       0.013     2268.448   0.100E-11
     TRS4 it   8 1.00000000   0.163E-02       0.013     2272.172   0.100E-11
     TRS4 it   9 1.00000000   0.545E-06       0.013     2267.300   0.100E-11
     TRS4 it  10 1.00000000   0.123E-12       0.013     2267.365   0.100E-11
     Final TRS4 iteration   10 1.00000000   0.123E-12
     Chemical potential (mu):       0.05654
 
 PAO| energy:  -191.10962382544469      penalty:   4.2387036257972950E-004
 PAO|LS| adapt:  T T F
 PAO|LS| adapt: scan_steps:    0.0000000000000000       0.41133672595013987        0.0000000000000000     
 PAO|LS| adapt: energies:   -191.10713343809971       -191.10962382544469        0.0000000000000000     
 PAO| ======================= Iteration:        28 =============================

     Lanczos converged:  F threshold:   0.100E-02
     Est. extremal eigenvalues:    0.474E+01   0.134E+00
     Est. condition number :    0.354E+02

 Order=           3
     NS sqrt iter    1 1.00000000   0.122E+01       0.021     2761.518
     NS sqrt iter    2 1.00000000   0.622E+00       0.033     3449.899
     NS sqrt iter    3 1.00000000   0.199E+00       0.033     3482.622
     NS sqrt iter    4 1.00000000   0.247E-01       0.033     3458.898
     NS sqrt iter    5 1.00000000   0.106E-03       0.033     3478.668
     NS sqrt iter    6 1.00000000   0.222E-10       0.018     2250.284
     Symmetrizing Results
     Final NS sqrt iter    6 1.00000000   0.212E-11

     Est. extremal eigenvalues     -0.83469     2.57236  converged:  T
     TRS4 it   1 1.00000000   0.285E+02       0.007     2180.059   0.100E-11
     TRS4 it   2 1.00000000   0.233E+02       0.013     2250.837   0.100E-11
     TRS4 it   3 1.00000000   0.154E+02       0.013     2251.535   0.100E-11
     TRS4 it   4 1.00000000   0.885E+01       0.013     2231.336   0.100E-11
     TRS4 it   5 1.00000000   0.360E+01       0.013     2165.491   0.100E-11
     TRS4 it   6 1.00000000   0.880E+00       0.013     2255.727   0.100E-11
     TRS4 it   7 1.00000000   0.960E-01       0.012     2281.148   0.100E-11
     TRS4 it   8 1.00000000   0.158E-02       0.013     2271.546   0.100E-11
     TRS4 it   9 1.00000000   0.511E-06       0.012     2278.548   0.100E-11
     TRS4 it  10 1.00000000   0.107E-12       0.013     2259.269   0.100E-11
     Final TRS4 iteration   10 1.00000000   0.107E-12
     Chemical potential (mu):       0.05695
 
 PAO| energy:  -191.10693025430086      penalty:   3.9253571591033796E-004
 PAO|LS| adapt:  T T T
 PAO|LS| adapt: scan_steps:    0.0000000000000000       0.41133672595013987       0.82267345190027974     
 PAO|LS| adapt: energies:   -191.10713343809971       -191.10962382544469       -191.10693025430086     
 PAO|LS| adapt: suggested step_size:   0.40327561215420965     
 PAO|LS| adapt: predicted energy  -191.10962482091119     
 PAO| ======================= Iteration:        29 =============================

     Lanczos converged:  F threshold:   0.100E-02
     Est. extremal eigenvalues:    0.475E+01   0.134E+00
     Est. condition number :    0.355E+02

 Order=           3
     NS sqrt iter    1 1.00000000   0.122E+01       0.021     2756.319
     NS sqrt iter    2 1.00000000   0.623E+00       0.033     3476.555
     NS sqrt iter    3 1.00000000   0.199E+00       0.033     3475.327
     NS sqrt iter    4 1.00000000   0.248E-01       0.033     3466.828
     NS sqrt iter    5 1.00000000   0.106E-03       0.033     3447.533
     NS sqrt iter    6 1.00000000   0.222E-10       0.018     2239.629
     Symmetrizing Results
     Final NS sqrt iter    6 1.00000000   0.214E-11

     Est. extremal eigenvalues     -0.83468     2.57446  converged:  T
     TRS4 it   1 1.00000000   0.285E+02       0.006     2193.068   0.100E-11
     TRS4 it   2 1.00000000   0.233E+02       0.013     2270.109   0.100E-11
     TRS4 it   3 1.00000000   0.154E+02       0.013     2275.012   0.100E-11
     TRS4 it   4 1.00000000   0.886E+01       0.013     2272.881   0.100E-11
     TRS4 it   5 1.00000000   0.361E+01       0.013     2267.131   0.100E-11
     TRS4 it   6 1.00000000   0.888E+00       0.013     2260.506   0.100E-11
     TRS4 it   7 1.00000000   0.975E-01       0.013     2267.385   0.100E-11
     TRS4 it   8 1.00000000   0.163E-02       0.013     2266.683   0.100E-11
     TRS4 it   9 1.00000000   0.545E-06       0.013     2269.575   0.100E-11
[...]
     TRS4 it   2 1.00000000   0.232E+02       0.013     2258.298   0.100E-11
     TRS4 it   3 1.00000000   0.155E+02       0.013     2253.566   0.100E-11
     TRS4 it   4 1.00000000   0.918E+01       0.013     2242.473   0.100E-11
     TRS4 it   5 1.00000000   0.410E+01       0.013     2234.064   0.100E-11
     TRS4 it   6 1.00000000   0.127E+01       0.013     2244.390   0.100E-11
     TRS4 it   7 1.00000000   0.214E+00       0.013     2241.852   0.100E-11
     TRS4 it   8 1.00000000   0.840E-02       0.013     2228.208   0.100E-11
     TRS4 it   9 1.00000000   0.153E-04       0.013     2237.183   0.100E-11
     TRS4 it  10 1.00000000   0.113E-09       0.013     2261.637   0.100E-11
     Final TRS4 iteration   10 1.00000000   0.113E-09
     Chemical potential (mu):       0.03091
 
 PAO| energy:  -190.70296566621403      penalty:   9.7137501921446561E-009
 PAO| Writing restart file.
     Est. extremal eigenvalues     -0.83492     2.52147  converged:  T
     TRS4 it   1 1.00000000   0.286E+02       0.007     2180.296   0.100E-11
     TRS4 it   2 1.00000000   0.232E+02       0.013     2237.732   0.100E-11
     TRS4 it   3 1.00000000   0.155E+02       0.013     2242.482   0.100E-11
     TRS4 it   4 1.00000000   0.918E+01       0.013     2250.232   0.100E-11
     TRS4 it   5 1.00000000   0.410E+01       0.013     2233.935   0.100E-11
     TRS4 it   6 1.00000000   0.127E+01       0.013     2249.905   0.100E-11
     TRS4 it   7 1.00000000   0.214E+00       0.013     2245.531   0.100E-11
     TRS4 it   8 1.00000000   0.840E-02       0.013     2242.147   0.100E-11
     TRS4 it   9 1.00000000   0.153E-04       0.013     2253.484   0.100E-11
     TRS4 it  10 1.00000000   0.113E-09       0.013     2246.609   0.100E-11
     Final TRS4 iteration   10 1.00000000   0.113E-09
     Chemical potential (mu):       0.03091

 SCF     1     -1103.018845809     -1103.018845809    1.745277

*********************************************************
 Using MIXING_FRACTION=0.450 to mix KS matrix:  iscf=  2
 KS_nw=0.450*KS + 0.550*KS_old
*********************************************************
     Est. extremal eigenvalues     -0.83492     2.52147  converged:  T
     TRS4 it   1 1.00000000   0.286E+02       0.007     2176.644   0.100E-11
     TRS4 it   2 1.00000000   0.232E+02       0.013     2235.535   0.100E-11
     TRS4 it   3 1.00000000   0.155E+02       0.013     2244.691   0.100E-11
     TRS4 it   4 1.00000000   0.918E+01       0.013     2235.532   0.100E-11
     TRS4 it   5 1.00000000   0.410E+01       0.013     2252.425   0.100E-11
     TRS4 it   6 1.00000000   0.127E+01       0.013     2226.854   0.100E-11
     TRS4 it   7 1.00000000   0.214E+00       0.013     2228.224   0.100E-11
     TRS4 it   8 1.00000000   0.840E-02       0.013     2246.371   0.100E-11
     TRS4 it   9 1.00000000   0.153E-04       0.013     2245.933   0.100E-11
     TRS4 it  10 1.00000000   0.113E-09       0.013     2245.449   0.100E-11
     Final TRS4 iteration   10 1.00000000   0.113E-09
     Chemical potential (mu):       0.03091

 SCF     2     -1103.018845809        -0.000000000    1.749916


 SCF run converged in     2 steps.

 PAO| Storing density matrix for ASPC guess in slot:           1

 ENERGY| Total FORCE_EVAL ( QS ) energy [a.u.]:            -1103.018845808649985

 -------------------------------------------------------------------------------
 -                                                                             -
 -                                DBCSR STATISTICS                             -
 -                                                                             -
 -------------------------------------------------------------------------------
 COUNTER                                    TOTAL       BLAS       SMM       ACC
 flops     5 x     5 x     4             26419200       0.0%    100.0%      0.0%     
 flops    13 x     5 x     4             34078720       0.0%    100.0%      0.0%     
 flops     5 x    13 x     4             34078720       0.0%    100.0%      0.0%     
 flops    13 x    13 x     4             44994560       0.0%    100.0%      0.0%     
 flops     4 x     4 x     5           6425149440       0.0%    100.0%      0.0%     
 flops     5 x     4 x     5           7920025600       0.0%    100.0%      0.0%     
 flops     4 x     4 x    13           8352694272       0.0%    100.0%      0.0%     
 flops    13 x     4 x     5          10296033280       0.0%    100.0%      0.0%     
 flops     5 x     4 x    13          10296033280       0.0%    100.0%      0.0%     
 flops    13 x     4 x    13          13384843264       0.0%    100.0%      0.0%     
 flops     5 x     4 x     4         404851350560       0.0%    100.0%      0.0%     
 flops    13 x     4 x     4         549288854400       0.0%    100.0%      0.0%     
 flops     4 x     4 x     4       28781624758656       0.0%    100.0%      0.0%     
 flops inhomo. stacks                           0       0.0%      0.0%      0.0%
 flops total                        29.792579E+12       0.0%    100.0%      0.0%
 flops max/rank                    940.467150E+09       0.0%    100.0%      0.0%
 matmuls inhomo. stacks                         0       0.0%      0.0%      0.0%
 matmuls total                       228856802780       0.0%    100.0%      0.0%
 number of processed stacks             233767219       0.0%    100.0%      0.0%
 average stack size                                     0.0     979.0       0.0
 marketing flops                    51.661054E+12
 -------------------------------------------------------------------------------
 # multiplications                          48286
 max memory usage/rank             617.857024E+06
 # max total images/rank                        2
 # max 3D layers                                1
 # MPI messages exchanged                20086976
 MPI messages size (bytes):
  total size                         2.378619E+12
  min size                           0.000000E+00
  max size                         541.696000E+03
  average size                     118.415992E+03
 MPI breakdown and total messages size (bytes):
             size <=      128              881532                    11904
       128 < size <=     8192              298359               1119191808
      8192 < size <=    32768               53374               1307352960
     32768 < size <=   131072             8636243             634247704320
    131072 < size <=  4194304            10217468            1742329359616
   4194304 < size <= 16777216                   0                        0
  16777216 < size                               0                        0
 -------------------------------------------------------------------------------

 *** WARNING in dbcsr_mm.F:301 :: Using a non-square number of MPI ranks ***
 *** might lead to poor performance. Used ranks: 32 Suggested: 36 64     ***

 -------------------------------------------------------------------------------
 -                                                                             -
 -                      DBCSR MESSAGE PASSING PERFORMANCE                      -
 -                                                                             -
 -------------------------------------------------------------------------------
 ROUTINE             CALLS      AVE VOLUME [Bytes]
 MP_Bcast               14                     12.
 MP_Allreduce       288786                     37.
 MP_Alltoall        125383                  14857.
 MP_ISend          1612792                  55138.
 MP_IRecv          1578972                  56404.
 -------------------------------------------------------------------------------

 -------------------------------------------------------------------------------
 -                                                                             -
 -                                DBM STATISTICS                               -
 -                                                                             -
 -------------------------------------------------------------------------------
    M  x    N  x    K                                          COUNT     PERCENT
 -------------------------------------------------------------------------------

 -------------------------------------------------------------------------------
 -                                                                             -
 -                                GRID STATISTICS                              -
 -                                                                             -
 -------------------------------------------------------------------------------
 LP    KERNEL             BACKEND                              COUNT     PERCENT
 2     collocate ortho    CPU                               13111328      28.83%
 2     integrate ortho    CPU                               13111328      28.83%
 3     collocate ortho    CPU                                8429968      18.53%
 3     integrate ortho    CPU                                8429968      18.53%
 4     collocate ortho    CPU                                1197136       2.63%
 4     integrate ortho    CPU                                1197136       2.63%
 0     collocate general  CPU                                   6144       0.01%
 -------------------------------------------------------------------------------

 MEMORY| Estimated peak process memory [MiB]                                 590

 -------------------------------------------------------------------------------
 -                                                                             -
 -                         MESSAGE PASSING PERFORMANCE                         -
 -                                                                             -
 -------------------------------------------------------------------------------

 ROUTINE             CALLS      AVE VOLUME [Bytes]
 MP_Group                5
 MP_Bcast           403434                   1853.
 MP_Allreduce      1002418                    514.
 MP_Sync                 5
 MP_Alltoall           419                3112279.
 MP_SendRecv          1488                  18832.
 MP_ISendRecv         1488                  18832.
 MP_Wait              4218
 MP_ISend             2470                 108139.
 MP_IRecv             2470                 108153.
 -------------------------------------------------------------------------------


 -------------------------------------------------------------------------------
 -                                                                             -
 -                           R E F E R E N C E S                               -
 -                                                                             -
 -------------------------------------------------------------------------------
 
 CP2K version 2024.3 (Development Version), the CP2K developers group (2024).
 CP2K is freely available from https://www.cp2k.org/ .
 
 T. D. Kuehne, M. Iannuzzi, M. Del Ben, V. V. Rybkin, P. Seewald, F. Stein, T. 
 Laino, R. Z. Khaliullin, O. Schuett, F. Schiffmann, D. Golze, J. Wilhelm, S. 
 Chulkov, M. H. Bani-Hashemian, V. Weber, U. Borstnik, M. Taillefumier, A. S. 
 Jakobovits, A. Lazzaro, H. Pabst, T. Mueller, R. Schade, M. Guidon, S. 
 Andermatt, N. Holmberg, G. K. Schenter, A. Hehn, A. Bussy, F. Belleflamme, G. 
 Tabacchi, A. Gloess, M. Lass, I. Bethune, C. J. Mundy, C. Plessl, M. Watkins, 
 J. VandeVondele, M. Krack, J. Hutter.
 J. Chem. Phys. 152, 194103 (2020).
 CP2K: An electronic structure and molecular dynamics software package - 
 Quickstep: Efficient and accurate electronic structure calculations.
 https://doi.org/10.1063/5.0007045

 O. Schuett, J. VandeVondele.
 J. Chem. Theory Comput. 14, 4168-4175 (2018).
 Machine Learning Adaptive Basis Sets for Efficient Large Scale Density 
 Functional Theory Simulation.
 https://doi.org/10.1021/acs.jctc.8b00378

 O. Schuett, P. Messmer, J. Hutter, J. VandeVondele.
 Electronic Structure Calculations on Graphics Processing Units, 173-190 (2016).
 GPU-Accelerated Sparse Matrix-Matrix Multiplication for Linear Scaling Density 
 Functional Theory.
 https://doi.org/10.1002/9781118670712.ch8

 A. Heinecke, G. Henry, M. Hutchinson, H. Pabst.
 Proceedings of Intl. Supercomputing Conference, 981-991 (2016).
 LIBXSMM: Accelerating Small Matrix Multiplications by Runtime Code Generation.
 https://doi.org/10.1109/SC.2016.83

 J. Hutter, M. Iannuzzi, F. Schiffmann, J. VandeVondele.
 WIREs Comput Mol Sci. 4, 15-25 (2014).
 CP2K: atomistic simulations of condensed matter systems.
 https://doi.org/10.1002/wcms.1159

 U. Borstnik, J. VandeVondele, V. Weber, J. Hutter.
 Parallel Comput. 40, 47-58 (2014).
 Sparse matrix multiplication: The distributed block-compressed sparse row 
 library.
 https://doi.org/10.1016/j.parco.2014.03.012

 A. Marek, V. Blum, R. Johanni, V. Havu, B. Lang, T. Auckenthaler, A. Heinecke, 
 H. Bungartz, H. Lederer.
 J. Phys. Condens. Matter 26, 213201 (2014).
 The ELPA library: scalable parallel eigenvalue solutions for electronic 
 structure theory and computational science.
 https://doi.org/10.1088/0953-8984/26/21/213201

 J. VandeVondele, U. Borstnik, J. Hutter.
 J. Chem. Theory Comput. 8, 3565-3573 (2012).
 Linear Scaling Self-Consistent Field Calculations with Millions of Atoms in the 
 Condensed Phase.
 https://doi.org/10.1021/ct200897x

 J. VandeVondele, J. Hutter.
 J. Chem. Phys. 127, 114105 (2007).
 Gaussian basis sets for accurate calculations on molecular systems in gas and 
 condensed phases.
 https://doi.org/10.1063/1.2770708

 J. VandeVondele, M. Krack, F. Mohamed, M. Parrinello, T. Chassaing, J. Hutter.
 Comput. Phys. Commun. 167, 103-128 (2005).
 QUICKSTEP: Fast and accurate density functional calculations using a mixed 
 Gaussian and plane waves approach.
 https://doi.org/10.1016/j.cpc.2004.12.014

 M. Krack.
 Theor. Chem. Acc. 114, 145-152 (2005).
 Pseudopotentials for H to Kr optimized for gradient-corrected 
 exchange-correlation functionals.
 https://doi.org/10.1007/s00214-005-0655-y

 M. Frigo, S. G. Johnson.
 Proc. IEEE 93, 216-231 (2005).
 The design and implementation of FFTW3.
 https://doi.org/10.1109/JPROC.2004.840301

 A. M. N. Niklasson, C. J. Tymczak, M. Challacombe.
 J. Chem. Phys. 118, 8611-8620 (2003).
 Trace resetting density matrix purification in O(N) self-consistent-field 
 theory.
 https://doi.org/10.1063/1.1559913

 C. Hartwigsen, S. Goedecker, J. Hutter.
 Phys. Rev. B 58, 3641-3662 (1998).
 Relativistic separable dual-space Gaussian pseudopotentials from H to Rn.
 https://doi.org/10.1103/PhysRevB.58.3641

 G. Lippert, J. Hutter, M. Parrinello.
 Mol. Phys. 92, 477-487 (1997).
 A hybrid Gaussian and plane wave density functional scheme.
 https://doi.org/10.1080/002689797170220

 S. Goedecker, M. Teter, J. Hutter.
 Phys. Rev. B 54, 1703-1710 (1996).
 Separable dual-space Gaussian pseudopotentials.
 https://doi.org/10.1103/PhysRevB.54.1703

 J. P. Perdew, K. Burke, M. Ernzerhof.
 Phys. Rev. Lett. 77, 3865-3868 (1996).
 Generalized gradient approximation made simple.
 https://doi.org/10.1103/PhysRevLett.77.3865


 -------------------------------------------------------------------------------
 -                                                                             -
 -                                T I M I N G                                  -
 -                                                                             -
 -------------------------------------------------------------------------------
 SUBROUTINE                       CALLS  ASD         SELF TIME        TOTAL TIME
                                MAXIMUM       AVERAGE  MAXIMUM  AVERAGE  MAXIMUM
 CP2K                                 1  1.0    0.012    0.016  433.074  433.075
 qs_energies                          1  2.0    0.000    0.000  432.916  432.916
 ls_scf                               1  3.0    0.000    0.000  431.798  431.799
 pao_update                           7  4.0    0.006    0.024  402.109  402.113
 pao_calc_energy                    806  5.0    0.003    0.018  360.427  360.431
 dbcsr_multiply_generic           48286  8.4    1.358    1.432  328.500  328.865
 multiply_cannon                  48286  9.4    2.511    3.027  262.997  270.360
 multiply_cannon_loop             48286 10.4    1.771    2.035  252.798  258.683
 ls_scf_init_matrix_S               813  7.0    0.008    0.009  206.391  206.494
 pao_rebuild_S                      806  6.0    0.002    0.003  204.608  204.710
 matrix_sqrt_Newton_Schulz          813  8.0    0.169    0.282  191.618  191.669
 multiply_cannon_multrec         386288 11.4  170.698  171.994  171.493  172.756
 pao_dm_trs4                        806  6.0    0.006    0.007  155.415  155.469
 density_matrix_trs4                821  7.0    0.200    0.329  149.742  149.839
 mp_waitall_1                   3092052 12.6   78.055   88.664   78.055   88.664
 multiply_cannon_metrocomm3      386288 11.4    0.659    0.705   61.403   68.568
 arnoldi_extremal                  1634  8.5    0.013    0.014   66.623   66.674
 arnoldi_normal_ev                 1634  9.5    0.038    0.066   66.607   66.657
 build_subspace                    6519 10.6    0.396    0.428   58.457   58.498
 dbcsr_matrix_vector_mult        198838 11.6    0.848    1.283   54.769   55.359
 make_m2s                         96572  9.4    0.520    0.637   48.540   49.671
 make_images                      96572 10.4    7.046    7.177   47.240   48.383
 dbcsr_matrix_vector_mult_local  198838 12.6   46.523   47.054   46.745   47.275
 pao_calc_AB                       1068  5.8    0.002    0.002   41.222   41.228
 pao_calc_AB_equi                  1068  6.8    0.040    0.098   41.221   41.226
 pao_calc_grad_lnv_wrt_AB           261  7.0    0.020    0.024   40.793   40.852
 ls_scf_main                          7  4.0    0.000    0.001   26.224   26.225
 ls_scf_dm_to_ks                     15  5.0    0.000    0.000   23.332   23.337
 mp_sum_l                        196814  9.5    9.643   23.196    9.643   23.196
 make_images_data                 96572 11.4    0.816    0.992   20.159   22.742
 hybrid_alltoall_any              98193 12.4    0.880    1.782   15.875   20.296
 matrix_qs_to_ls                   1634  7.5    0.017    0.022   16.716   17.004
 dbcsr_multiply_generic_mpsum_f   35117  9.5    0.026    0.032    6.043   16.533
 qs_ks_update_qs_env                 16  6.0    0.000    0.000   13.842   13.844
 rebuild_ks_matrix                   16  7.0    0.000    0.000   13.831   13.832
 qs_ks_build_kohn_sham_matrix        16  8.0    0.003    0.003   13.831   13.832
 calculate_norms                 719776 11.4   11.109   11.992   11.109   11.992
 make_images_pack                 96572 11.4   10.596   11.054   10.727   11.190
 qs_rho_update_rho_low               16  6.0    0.000    0.000   10.940   10.944
 calculate_rho_elec                  16  7.0    0.005    0.006   10.940   10.944
 sum_up_and_integrate                16  9.0    0.000    0.000   10.455   10.456
 integrate_v_rspace                  16 10.0    0.000    0.001   10.440   10.443
 grid_collocate_task_list            16  8.0    9.685    9.881    9.685    9.881
 grid_integrate_task_list            16 11.0    9.259    9.353    9.259    9.353
 -------------------------------------------------------------------------------

 The number of warnings for this run is : 1
 
 -------------------------------------------------------------------------------
  **** **** ******  **  PROGRAM ENDED AT                 2024-09-23 22:53:38.911
 ***** ** ***  *** **   PROGRAM RAN ON                                    moritz
 **    ****   ******    PROGRAM RAN BY                                       ole
 ***** **    ** ** **   PROGRAM PROCESS ID                                163644
  **** **  *******  **  PROGRAM STOPPED IN /home/ole/git/pao_ml_equivar/64H2O_MD
                                           /Frame0400
