 DBCSR| CPU Multiplication driver                                           XSMM (U)
 DBCSR| Multrec recursion limit                                              512 (U)
 DBCSR| Multiplication stack size                                           1000 (D)
 DBCSR| Maximum elements for images                                    UNLIMITED (U)
 DBCSR| Multiplicative factor virtual images                                   1 (U)
 DBCSR| Use multiplication densification                                       T (D)
 DBCSR| Multiplication size stacks                                             3 (U)
 DBCSR| Use memory pool for CPU allocation                                     F (U)
 DBCSR| Number of 3D layers                                               SINGLE (U)
 DBCSR| Use MPI memory allocation                                              F (U)
 DBCSR| Use RMA algorithm                                                      F (U)
 DBCSR| Use Communication thread                                               T (U)
 DBCSR| Communication thread load                                             87 (D)
 DBCSR| MPI: My process id                                                     0
 DBCSR| MPI: Number of processes                                              32
 DBCSR| OMP: Current number of threads                                         1
 DBCSR| OMP: Max number of threads                                             1
 DBCSR| Split modifier for TAS multiplication algorithm                  1.0E+00 (U)


  **** **** ******  **  PROGRAM STARTED AT               2024-09-23 17:30:31.254
 ***** ** ***  *** **   PROGRAM STARTED ON                                moritz
 **    ****   ******    PROGRAM STARTED BY                                   ole
 ***** **    ** ** **   PROGRAM PROCESS ID                                155046
  **** **  *******  **  PROGRAM STARTED IN /home/ole/git/pao_ml_equivar/64H2O_MD
                                           /Frame0400

 CP2K| version string:                 CP2K version 2024.3 (Development Version)
 CP2K| source code revision number:                                  git:3f890bb
 CP2K| cp2kflags: omp libint fftw3 libxc libgrpp pexsi elpa parallel scalapack c
 CP2K|            osma quip deepmd xsmm plumed2 spglib libdftd4 sirius libvori l
 CP2K|            libbqb libvdwxc hdf5
 CP2K| is freely available from                            https://www.cp2k.org/
 CP2K| Program compiled at                          Mo 23 Sep 2024 17:17:04 CEST
 CP2K| Program compiled on                                                moritz
 CP2K| Program compiled for                                                local
 CP2K| Data directory path                               /home/ole/git/cp2k/data
 CP2K| Input file name                                             64H2O_ref.inp

 GLOBAL| Force Environment number                                              1
 GLOBAL| Basis set file name                                        BASIS_MOLOPT
 GLOBAL| Potential file name                                      GTH_POTENTIALS
 GLOBAL| MM Potential file name                                     MM_POTENTIAL
 GLOBAL| Coordinate file name                                         coords.xyz
 GLOBAL| Method name                                                        CP2K
 GLOBAL| Project name                                                  64H2O_ref
 GLOBAL| Run type                                                         ENERGY
 GLOBAL| FFT library                                                       FFTW3
 GLOBAL| Diagonalization library                                            ELPA
 GLOBAL| DGEMM library                                                      BLAS
 GLOBAL| Minimum number of eigenvectors for ELPA usage                        16
 GLOBAL| Orthonormality check for eigenvectors                          DISABLED
 GLOBAL| Matrix multiplication library                                     COSMA
 GLOBAL| All-to-all communication in single precision                          F
 GLOBAL| FFTs using library dependent lengths                                  F
 GLOBAL| Grid backend                                                       AUTO
 GLOBAL| Global print level                                                  LOW
 GLOBAL| MPI I/O enabled                                                       T
 GLOBAL| Total number of message passing processes                            32
 GLOBAL| Number of threads for this process                                    1
 GLOBAL| This output is from process                                           0
 GLOBAL| Stack size for threads created by OpenMP (OMP_STACKSIZE)        default
 GLOBAL| CPU model name           AMD Ryzen Threadripper 3970X 32-Core Processor
 GLOBAL| CPUID                                                              1002

 MEMORY| system memory details [Kb]
 MEMORY|                        rank 0           min           max       average
 MEMORY| MemTotal            131752136     131752136     131752136     131752136
 MEMORY| MemFree             118837236     118837236     118837236     118837236
 MEMORY| Buffers                259180        259180        259180        259180
 MEMORY| Cached                6767988       6767988       6767988       6767988
 MEMORY| Slab                   686404        686404        686404        686404
 MEMORY| SReclaimable           259364        259364        259364        259364
 MEMORY| MemLikelyFree       126123768     126123768     126123768     126123768


 GENERATE|  Preliminary Number of Bonds generated:                             0
 GENERATE|  Achieved consistency in connectivity generation.

 *******************************************************************************
 *******************************************************************************
 **                                                                           **
 **     #####                         ##              ##                      **
 **    ##   ##            ##          ##              ##                      **
 **   ##     ##                       ##            ######                    **
 **   ##     ##  ##   ##  ##   #####  ##  ##   ####   ##    #####    #####    **
 **   ##     ##  ##   ##  ##  ##      ## ##   ##      ##   ##   ##  ##   ##   **
 **   ##  ## ##  ##   ##  ##  ##      ####     ###    ##   ######   ######    **
 **    ##  ###   ##   ##  ##  ##      ## ##      ##   ##   ##       ##        **
 **     #######   #####   ##   #####  ##  ##  ####    ##    #####   ##        **
 **           ##                                                    ##        **
 **                                                                           **
 **                                                ... make the atoms dance   **
 **                                                                           **
 **            Copyright (C) by CP2K developers group (2000-2024)             **
 **                      J. Chem. Phys. 152, 194103 (2020)                    **
 **                                                                           **
 *******************************************************************************


 TOTAL NUMBERS AND MAXIMUM NUMBERS

  Total number of            - Atomic kinds:                                   2
                             - Atoms:                                        192
                             - Shell sets:                                   192
                             - Shells:                                       704
                             - Primitive Cartesian functions:               1344
                             - Cartesian basis functions:                   1536
                             - Spherical basis functions:                   1472

  Maximum angular momentum of- Orbital basis functions:                        2
                             - Local part of the GTH pseudopotential:          2
                             - Non-local part of the GTH pseudopotential:      0

 ------------------------------ Linear scaling SCF -----------------------------
 eps_scf:                                                              0.100E-07
 eps_filter:                                                           0.100E-11
 mixing_fraction:                                                      0.450E+00
 max_scf:                                                                     25
 fixed chemical potential (mu)                                                 F
 has unit metric:                                                              F
 Computing inv(S):                                                             T
 Computing sqrt(S):                                                            T
 Computing S preconditioner                                                    F
 S sqrt method:                                                     NEWTONSCHULZ
 S sqrt order:                                                                 3
 Extrapolation order:                                                          1
 S preconditioner type                                                      NONE
 Polarized Atomic Orbitals (PAO)                                               F
 Purification method                                   Trace resetting 4th order
 Cluster type                                                             ATOMIC
 Computing Chebyshev                                                       FALSE
 Using PAO                                                                     F
 -------------------------------------------------------------------------------


     Lanczos converged:  F threshold:   0.100E-02
     Est. extremal eigenvalues:    0.865E+01   0.574E-02
     Est. condition number :    0.151E+04

 Order=           3
     NS sqrt iter    1 1.00000000   0.223E+01       0.065     6133.026
     NS sqrt iter    2 1.00000000   0.117E+01       0.099     8024.447
     NS sqrt iter    3 1.00000000   0.580E+00       0.099     8071.208
     NS sqrt iter    4 1.00000000   0.334E+00       0.099     8049.258
     NS sqrt iter    5 1.00000000   0.226E+00       0.099     8034.423
     NS sqrt iter    6 1.00000000   0.106E+00       0.099     8033.467
     NS sqrt iter    7 1.00000000   0.134E-01       0.098     8099.117
     NS sqrt iter    8 1.00000000   0.682E-04       0.099     8087.332
     NS sqrt iter    9 1.00000000   0.358E-10       0.065     5829.702
     Symmetrizing Results
     Final NS sqrt iter    9 1.00000000   0.733E-11



 Guess for atomic kind: O

 Electronic structure
    Total number of core electrons                                          2.00
    Total number of valence electrons                                       6.00
    Total number of electrons                                               8.00
    Multiplicity                                                   not specified
    S   [  2.00] 2.00
    P      4.00


 *******************************************************************************
                  Iteration          Convergence                     Energy [au]
 *******************************************************************************
                          1        0.708315                     -15.576645311500
                          2        0.608879                     -15.587933561584
                          3        0.102828E-01                 -15.656849565404
                          4        0.113889E-02                 -15.656866888140
                          5        0.434197E-03                 -15.656867072159
                          6        0.263771E-03                 -15.656867091904
                          7        0.478536E-06                 -15.656867103452

 Energy components [Hartree]           Total Energy ::          -15.656867103452
                                        Band Energy ::           -3.000198112285
                                     Kinetic Energy ::           11.759971203220
                                   Potential Energy ::          -27.416838306672
                                      Virial (-V/T) ::            2.331369510426
                                        Core Energy ::          -26.140716385623
                                          XC Energy ::           -3.154051012914
                                     Coulomb Energy ::           13.637900295084
                       Total Pseudopotential Energy ::          -37.935781716540
                       Local Pseudopotential Energy ::          -39.218907440693
                    Nonlocal Pseudopotential Energy ::            1.283125724153
                                        Confinement ::            0.350941276976

 Orbital energies  State     L     Occupation   Energy[a.u.]          Energy[eV]

                       1     0          2.000      -0.864471          -23.523463

                       1     1          4.000      -0.317814           -8.648154


 Total Electron Density at R=0:                                         0.000068

 Guess for atomic kind: H

 Electronic structure
    Total number of core electrons                                          0.00
    Total number of valence electrons                                       1.00
    Total number of electrons                                               1.00
    Multiplicity                                                   not specified
    S      1.00


 *******************************************************************************
                  Iteration          Convergence                     Energy [au]
 *******************************************************************************
                          1        0.437545E-02                  -0.424159432110
                          2        0.531356E-03                  -0.424178438213
                          3        0.259176E-06                  -0.424178722480

 Energy components [Hartree]           Total Energy ::           -0.424178722480
                                        Band Energy ::           -0.199015229016
                                     Kinetic Energy ::            0.464007633961
                                   Potential Energy ::           -0.888186356441
                                      Virial (-V/T) ::            1.914163240935
                                        Core Energy ::           -0.479160803564
                                          XC Energy ::           -0.244352904054
                                     Coulomb Energy ::            0.299334985138
                       Total Pseudopotential Energy ::           -0.962295316385
                       Local Pseudopotential Energy ::           -0.962295316385
                    Nonlocal Pseudopotential Energy ::            0.000000000000
                                        Confinement ::            0.191268788606

 Orbital energies  State     L     Occupation   Energy[a.u.]          Energy[eV]

                       1     0          1.000      -0.199015           -5.415480


 Total Electron Density at R=0:                                         0.242907
 Re-scaling the density matrix to get the right number of electrons
                  # Electrons              Trace(P)               Scaling factor
                          512               512.001                        1.000
 Energy with the initial guess:     -1095.786809210

     Est. extremal eigenvalues     -0.94531     5.22697  converged:  T
     TRS4 it   1 1.00000000   0.566E+02       0.019     5283.455   0.100E-11
     TRS4 it   2 1.00000000   0.539E+02       0.019     5317.976   0.100E-11
     TRS4 it   3 1.00000000   0.337E+02       0.037     5416.508   0.100E-11
     TRS4 it   4 1.00000000   0.177E+02       0.036     5584.720   0.100E-11
     TRS4 it   5 1.00000000   0.107E+02       0.036     5574.154   0.100E-11
     TRS4 it   6 1.00000000   0.484E+01       0.037     5485.308   0.100E-11
     TRS4 it   7 1.00000000   0.143E+01       0.036     5548.062   0.100E-11
     TRS4 it   8 1.00000000   0.215E+00       0.037     5496.784   0.100E-11
     TRS4 it   9 1.00000000   0.910E-02       0.036     5574.623   0.100E-11
     TRS4 it  10 1.00000000   0.248E-04       0.036     5566.737   0.100E-11
     TRS4 it  11 1.00000000   0.662E-10       0.036     5500.610   0.100E-11
     Final TRS4 iteration   11 1.00000000   0.662E-10
     Chemical potential (mu):      -0.10626

 SCF     1     -1097.896269303     -1097.896269303    2.040402

*********************************************************
 Using MIXING_FRACTION=0.450 to mix KS matrix:  iscf=  2
 KS_nw=0.450*KS + 0.550*KS_old
*********************************************************
     Est. extremal eigenvalues     -0.83566     5.32101  converged:  T
     TRS4 it   1 1.00000000   0.558E+02       0.019     5340.647   0.100E-11
     TRS4 it   2 1.00000000   0.542E+02       0.019     5375.601   0.100E-11
     TRS4 it   3 1.00000000   0.350E+02       0.037     5488.143   0.100E-11
     TRS4 it   4 1.00000000   0.184E+02       0.036     5550.054   0.100E-11
     TRS4 it   5 1.00000000   0.119E+02       0.036     5635.369   0.100E-11
     TRS4 it   6 1.00000000   0.623E+01       0.035     5652.126   0.100E-11
     TRS4 it   7 1.00000000   0.249E+01       0.036     5590.404   0.100E-11
     TRS4 it   8 1.00000000   0.678E+00       0.036     5539.393   0.100E-11
     TRS4 it   9 1.00000000   0.973E-01       0.036     5644.729   0.100E-11
     TRS4 it  10 1.00000000   0.467E-02       0.035     5681.519   0.100E-11
     TRS4 it  11 1.00000000   0.560E-05       0.036     5504.330   0.100E-11
     TRS4 it  12 1.00000000   0.909E-11       0.037     5490.243   0.100E-11
     Final TRS4 iteration   12 1.00000000   0.909E-11
     Chemical potential (mu):      -0.01770

 SCF     2     -1102.942896569        -5.046627266    2.060652

*********************************************************
 Using MIXING_FRACTION=0.450 to mix KS matrix:  iscf=  3
 KS_nw=0.450*KS + 0.550*KS_old
*********************************************************
     Est. extremal eigenvalues     -0.84167     5.31128  converged:  T
     TRS4 it   1 1.00000000   0.559E+02       0.019     5280.949   0.100E-11
     TRS4 it   2 1.00000000   0.541E+02       0.019     5332.546   0.100E-11
     TRS4 it   3 1.00000000   0.349E+02       0.037     5462.322   0.100E-11
     TRS4 it   4 1.00000000   0.183E+02       0.036     5565.407   0.100E-11
     TRS4 it   5 1.00000000   0.117E+02       0.036     5540.358   0.100E-11
     TRS4 it   6 1.00000000   0.598E+01       0.036     5508.817   0.100E-11
     TRS4 it   7 1.00000000   0.229E+01       0.036     5560.301   0.100E-11
     TRS4 it   8 1.00000000   0.582E+00       0.037     5473.459   0.100E-11
     TRS4 it   9 1.00000000   0.720E-01       0.036     5580.379   0.100E-11
     TRS4 it  10 1.00000000   0.239E-02       0.036     5574.131   0.100E-11
     TRS4 it  11 1.00000000   0.124E-05       0.036     5573.341   0.100E-11
     TRS4 it  12 1.00000000   0.314E-12       0.036     5507.132   0.100E-11
     Final TRS4 iteration   12 1.00000000   0.314E-12
     Chemical potential (mu):      -0.02683

 SCF     3     -1103.101944013        -0.159047444    2.062077

*********************************************************
 Using MIXING_FRACTION=0.450 to mix KS matrix:  iscf=  4
 KS_nw=0.450*KS + 0.550*KS_old
*********************************************************
     Est. extremal eigenvalues     -0.83839     5.31770  converged:  T
     TRS4 it   1 1.00000000   0.559E+02       0.019     5345.380   0.100E-11
     TRS4 it   2 1.00000000   0.541E+02       0.019     5227.504   0.100E-11
     TRS4 it   3 1.00000000   0.349E+02       0.037     5415.828   0.100E-11
     TRS4 it   4 1.00000000   0.184E+02       0.036     5573.584   0.100E-11
     TRS4 it   5 1.00000000   0.118E+02       0.036     5564.788   0.100E-11
     TRS4 it   6 1.00000000   0.608E+01       0.036     5578.386   0.100E-11
     TRS4 it   7 1.00000000   0.237E+01       0.036     5515.600   0.100E-11
     TRS4 it   8 1.00000000   0.620E+00       0.035     5657.838   0.100E-11
     TRS4 it   9 1.00000000   0.821E-01       0.036     5543.213   0.100E-11
     TRS4 it  10 1.00000000   0.325E-02       0.037     5483.525   0.100E-11
     TRS4 it  11 1.00000000   0.297E-05       0.035     5655.029   0.100E-11
     TRS4 it  12 1.00000000   0.406E-11       0.036     5564.947   0.100E-11
     Final TRS4 iteration   12 1.00000000   0.406E-11
     Chemical potential (mu):      -0.02020

 SCF     4     -1103.109913148        -0.007969135    2.064601

*********************************************************
 Using MIXING_FRACTION=0.450 to mix KS matrix:  iscf=  5
 KS_nw=0.450*KS + 0.550*KS_old
*********************************************************
     Est. extremal eigenvalues     -0.83654     5.31826  converged:  T
     TRS4 it   1 1.00000000   0.559E+02       0.019     5354.709   0.100E-11
     TRS4 it   2 1.00000000   0.541E+02       0.019     5267.440   0.100E-11
     TRS4 it   3 1.00000000   0.349E+02       0.037     5478.301   0.100E-11
     TRS4 it   4 1.00000000   0.184E+02       0.036     5592.888   0.100E-11
     TRS4 it   5 1.00000000   0.118E+02       0.037     5486.258   0.100E-11
     TRS4 it   6 1.00000000   0.607E+01       0.036     5510.027   0.100E-11
     TRS4 it   7 1.00000000   0.236E+01       0.035     5675.544   0.100E-11
     TRS4 it   8 1.00000000   0.617E+00       0.036     5568.415   0.100E-11
     TRS4 it   9 1.00000000   0.814E-01       0.036     5599.806   0.100E-11
     TRS4 it  10 1.00000000   0.319E-02       0.036     5606.321   0.100E-11
     TRS4 it  11 1.00000000   0.280E-05       0.036     5625.934   0.100E-11
     TRS4 it  12 1.00000000   0.335E-11       0.036     5526.124   0.100E-11
     Final TRS4 iteration   12 1.00000000   0.335E-11
     Chemical potential (mu):      -0.01951

 SCF     5     -1103.110547200        -0.000634052    2.061253

*********************************************************
 Using MIXING_FRACTION=0.450 to mix KS matrix:  iscf=  6
 KS_nw=0.450*KS + 0.550*KS_old
*********************************************************
     Est. extremal eigenvalues     -0.83590     5.31918  converged:  T
     TRS4 it   1 1.00000000   0.559E+02       0.019     5248.271   0.100E-11
     TRS4 it   2 1.00000000   0.541E+02       0.019     5222.915   0.100E-11
     TRS4 it   3 1.00000000   0.349E+02       0.036     5582.371   0.100E-11
     TRS4 it   4 1.00000000   0.184E+02       0.036     5625.523   0.100E-11
     TRS4 it   5 1.00000000   0.118E+02       0.036     5504.368   0.100E-11
     TRS4 it   6 1.00000000   0.608E+01       0.036     5601.226   0.100E-11
     TRS4 it   7 1.00000000   0.236E+01       0.036     5516.719   0.100E-11
     TRS4 it   8 1.00000000   0.621E+00       0.037     5473.856   0.100E-11
     TRS4 it   9 1.00000000   0.826E-01       0.036     5617.557   0.100E-11
     TRS4 it  10 1.00000000   0.331E-02       0.036     5498.539   0.100E-11
     TRS4 it  11 1.00000000   0.318E-05       0.036     5574.777   0.100E-11
     TRS4 it  12 1.00000000   0.492E-11       0.036     5515.913   0.100E-11
     Final TRS4 iteration   12 1.00000000   0.492E-11
     Chemical potential (mu):      -0.01842

 SCF     6     -1103.110642325        -0.000095125    2.063420

*********************************************************
 Using MIXING_FRACTION=0.450 to mix KS matrix:  iscf=  7
 KS_nw=0.450*KS + 0.550*KS_old
*********************************************************
     Est. extremal eigenvalues     -0.83538     5.31948  converged:  T
     TRS4 it   1 1.00000000   0.559E+02       0.019     5367.447   0.100E-11
     TRS4 it   2 1.00000000   0.541E+02       0.018     5500.248   0.100E-11
     TRS4 it   3 1.00000000   0.349E+02       0.036     5515.518   0.100E-11
     TRS4 it   4 1.00000000   0.184E+02       0.036     5593.471   0.100E-11
     TRS4 it   5 1.00000000   0.118E+02       0.036     5601.405   0.100E-11
     TRS4 it   6 1.00000000   0.608E+01       0.036     5522.854   0.100E-11
     TRS4 it   7 1.00000000   0.236E+01       0.036     5513.432   0.100E-11
     TRS4 it   8 1.00000000   0.622E+00       0.036     5592.890   0.100E-11
     TRS4 it   9 1.00000000   0.828E-01       0.036     5559.940   0.100E-11
     TRS4 it  10 1.00000000   0.333E-02       0.037     5471.777   0.100E-11
     TRS4 it  11 1.00000000   0.321E-05       0.036     5642.048   0.100E-11
     TRS4 it  12 1.00000000   0.496E-11       0.036     5548.002   0.100E-11
     Final TRS4 iteration   12 1.00000000   0.496E-11
     Chemical potential (mu):      -0.01807

 SCF     7     -1103.110662559        -0.000020234    2.062012

*********************************************************
 Using MIXING_FRACTION=0.450 to mix KS matrix:  iscf=  8
 KS_nw=0.450*KS + 0.550*KS_old
*********************************************************
     Est. extremal eigenvalues     -0.83517     5.31968  converged:  T
     TRS4 it   1 1.00000000   0.559E+02       0.019     5208.103   0.100E-11
     TRS4 it   2 1.00000000   0.541E+02       0.019     5362.182   0.100E-11
     TRS4 it   3 1.00000000   0.349E+02       0.036     5541.210   0.100E-11
     TRS4 it   4 1.00000000   0.184E+02       0.036     5604.474   0.100E-11
     TRS4 it   5 1.00000000   0.118E+02       0.037     5495.908   0.100E-11
     TRS4 it   6 1.00000000   0.608E+01       0.036     5527.101   0.100E-11
     TRS4 it   7 1.00000000   0.237E+01       0.036     5566.561   0.100E-11
     TRS4 it   8 1.00000000   0.622E+00       0.036     5546.007   0.100E-11
     TRS4 it   9 1.00000000   0.830E-01       0.037     5487.459   0.100E-11
     TRS4 it  10 1.00000000   0.335E-02       0.036     5615.600   0.100E-11
     TRS4 it  11 1.00000000   0.329E-05       0.036     5538.365   0.100E-11
     TRS4 it  12 1.00000000   0.538E-11       0.036     5524.685   0.100E-11
     Final TRS4 iteration   12 1.00000000   0.538E-11
     Chemical potential (mu):      -0.01783

 SCF     8     -1103.110667451        -0.000004892    2.064089


 SCF run converged in     8 steps.

 Writing restart DM 64H2O_ref_LS_DM_SPIN_1_RESTART.dm with checksum:       0.59648458E+04

 ENERGY| Total FORCE_EVAL ( QS ) energy [a.u.]:            -1103.110667451060635

 -------------------------------------------------------------------------------
 -                                                                             -
 -                                DBCSR STATISTICS                             -
 -                                                                             -
 -------------------------------------------------------------------------------
 COUNTER                                    TOTAL       BLAS       SMM       ACC
 flops     5 x     5 x     5          79361942750       0.0%    100.0%      0.0%     
 flops    13 x     5 x     5         102767446600       0.0%    100.0%      0.0%     
 flops     5 x    13 x     5         102775047700       0.0%    100.0%      0.0%     
 flops     5 x     5 x    13         103287931500       0.0%    100.0%      0.0%     
 flops    13 x     5 x    13         133759712710       0.0%    100.0%      0.0%     
 flops     5 x    13 x    13         133793438350       0.0%    100.0%      0.0%     
 flops    13 x    13 x     5         134934299890       0.0%    100.0%      0.0%     
 flops    13 x    13 x    13         175668209340       0.0%    100.0%      0.0%     
 flops inhomo. stacks                           0       0.0%      0.0%      0.0%
 flops total                       966.348029E+09       0.0%    100.0%      0.0%
 flops max/rank                     31.012443E+09       0.0%    100.0%      0.0%
 matmuls inhomo. stacks                         0       0.0%      0.0%      0.0%
 matmuls total                         1070708868       0.0%    100.0%      0.0%
 number of processed stacks               1515624       0.0%    100.0%      0.0%
 average stack size                                     0.0     706.4       0.0
 marketing flops                     1.569237E+12
 -------------------------------------------------------------------------------
 # multiplications                            246
 max memory usage/rank             618.528768E+06
 # max total images/rank                        2
 # max 3D layers                                1
 # MPI messages exchanged                  102336
 MPI messages size (bytes):
  total size                        42.353611E+09
  min size                           0.000000E+00
  max size                         541.696000E+03
  average size                     413.868156E+03
 MPI breakdown and total messages size (bytes):
             size <=      128                 312                        0
       128 < size <=     8192                  42                   279312
      8192 < size <=    32768                  62                   841968
     32768 < size <=   131072                   0                        0
    131072 < size <=  4194304              101920              42352489120
   4194304 < size <= 16777216                   0                        0
  16777216 < size                               0                        0
 -------------------------------------------------------------------------------

 *** WARNING in dbcsr_mm.F:301 :: Using a non-square number of MPI ranks ***
 *** might lead to poor performance. Used ranks: 32 Suggested: 36 64     ***

 -------------------------------------------------------------------------------
 -                                                                             -
 -                      DBCSR MESSAGE PASSING PERFORMANCE                      -
 -                                                                             -
 -------------------------------------------------------------------------------
 ROUTINE             CALLS      AVE VOLUME [Bytes]
 MP_Bcast                9                     12.
 MP_Allreduce         1762                     34.
 MP_Alltoall           546                  34827.
 MP_ISend             8604                 170721.
 MP_IRecv             8238                 178943.
 -------------------------------------------------------------------------------

 -------------------------------------------------------------------------------
 -                                                                             -
 -                                DBM STATISTICS                               -
 -                                                                             -
 -------------------------------------------------------------------------------
    M  x    N  x    K                                          COUNT     PERCENT
 -------------------------------------------------------------------------------

 -------------------------------------------------------------------------------
 -                                                                             -
 -                                GRID STATISTICS                              -
 -                                                                             -
 -------------------------------------------------------------------------------
 LP    KERNEL             BACKEND                              COUNT     PERCENT
 2     collocate ortho    CPU                                7375122      28.82%
 2     integrate ortho    CPU                                7375122      28.82%
 3     collocate ortho    CPU                                4741857      18.53%
 3     integrate ortho    CPU                                4741857      18.53%
 4     collocate ortho    CPU                                 673389       2.63%
 4     integrate ortho    CPU                                 673389       2.63%
 0     collocate general  CPU                                   6144       0.02%
 -------------------------------------------------------------------------------

 MEMORY| Estimated peak process memory [MiB]                                 591

 -------------------------------------------------------------------------------
 -                                                                             -
 -                         MESSAGE PASSING PERFORMANCE                         -
 -                                                                             -
 -------------------------------------------------------------------------------

 ROUTINE             CALLS      AVE VOLUME [Bytes]
 MP_Group                5
 MP_Bcast             1930                 201634.
 MP_Allreduce         5274                    941.
 MP_Sync                 5
 MP_Alltoall           244                3638510.
 MP_SendRecv           837                  18832.
 MP_ISendRecv          837                  18832.
 MP_Wait              2391
 MP_ISend             1406                 108579.
 MP_IRecv             1406                 108603.
 -------------------------------------------------------------------------------


 -------------------------------------------------------------------------------
 -                                                                             -
 -                           R E F E R E N C E S                               -
 -                                                                             -
 -------------------------------------------------------------------------------
 
 CP2K version 2024.3 (Development Version), the CP2K developers group (2024).
 CP2K is freely available from https://www.cp2k.org/ .
 
 T. D. Kuehne, M. Iannuzzi, M. Del Ben, V. V. Rybkin, P. Seewald, F. Stein, T. 
 Laino, R. Z. Khaliullin, O. Schuett, F. Schiffmann, D. Golze, J. Wilhelm, S. 
 Chulkov, M. H. Bani-Hashemian, V. Weber, U. Borstnik, M. Taillefumier, A. S. 
 Jakobovits, A. Lazzaro, H. Pabst, T. Mueller, R. Schade, M. Guidon, S. 
 Andermatt, N. Holmberg, G. K. Schenter, A. Hehn, A. Bussy, F. Belleflamme, G. 
 Tabacchi, A. Gloess, M. Lass, I. Bethune, C. J. Mundy, C. Plessl, M. Watkins, 
 J. VandeVondele, M. Krack, J. Hutter.
 J. Chem. Phys. 152, 194103 (2020).
 CP2K: An electronic structure and molecular dynamics software package - 
 Quickstep: Efficient and accurate electronic structure calculations.
 https://doi.org/10.1063/5.0007045

 O. Schuett, P. Messmer, J. Hutter, J. VandeVondele.
 Electronic Structure Calculations on Graphics Processing Units, 173-190 (2016).
 GPU-Accelerated Sparse Matrix-Matrix Multiplication for Linear Scaling Density 
 Functional Theory.
 https://doi.org/10.1002/9781118670712.ch8

 A. Heinecke, G. Henry, M. Hutchinson, H. Pabst.
 Proceedings of Intl. Supercomputing Conference, 981-991 (2016).
 LIBXSMM: Accelerating Small Matrix Multiplications by Runtime Code Generation.
 https://doi.org/10.1109/SC.2016.83

 J. Hutter, M. Iannuzzi, F. Schiffmann, J. VandeVondele.
 WIREs Comput Mol Sci. 4, 15-25 (2014).
 CP2K: atomistic simulations of condensed matter systems.
 https://doi.org/10.1002/wcms.1159

 U. Borstnik, J. VandeVondele, V. Weber, J. Hutter.
 Parallel Comput. 40, 47-58 (2014).
 Sparse matrix multiplication: The distributed block-compressed sparse row 
 library.
 https://doi.org/10.1016/j.parco.2014.03.012

 A. Marek, V. Blum, R. Johanni, V. Havu, B. Lang, T. Auckenthaler, A. Heinecke, 
 H. Bungartz, H. Lederer.
 J. Phys. Condens. Matter 26, 213201 (2014).
 The ELPA library: scalable parallel eigenvalue solutions for electronic 
 structure theory and computational science.
 https://doi.org/10.1088/0953-8984/26/21/213201

 J. VandeVondele, U. Borstnik, J. Hutter.
 J. Chem. Theory Comput. 8, 3565-3573 (2012).
 Linear Scaling Self-Consistent Field Calculations with Millions of Atoms in the 
 Condensed Phase.
 https://doi.org/10.1021/ct200897x

 J. VandeVondele, J. Hutter.
 J. Chem. Phys. 127, 114105 (2007).
 Gaussian basis sets for accurate calculations on molecular systems in gas and 
 condensed phases.
 https://doi.org/10.1063/1.2770708

 J. VandeVondele, M. Krack, F. Mohamed, M. Parrinello, T. Chassaing, J. Hutter.
 Comput. Phys. Commun. 167, 103-128 (2005).
 QUICKSTEP: Fast and accurate density functional calculations using a mixed 
 Gaussian and plane waves approach.
 https://doi.org/10.1016/j.cpc.2004.12.014

 M. Krack.
 Theor. Chem. Acc. 114, 145-152 (2005).
 Pseudopotentials for H to Kr optimized for gradient-corrected 
 exchange-correlation functionals.
 https://doi.org/10.1007/s00214-005-0655-y

 M. Frigo, S. G. Johnson.
 Proc. IEEE 93, 216-231 (2005).
 The design and implementation of FFTW3.
 https://doi.org/10.1109/JPROC.2004.840301

 A. M. N. Niklasson, C. J. Tymczak, M. Challacombe.
 J. Chem. Phys. 118, 8611-8620 (2003).
 Trace resetting density matrix purification in O(N) self-consistent-field 
 theory.
 https://doi.org/10.1063/1.1559913

 C. Hartwigsen, S. Goedecker, J. Hutter.
 Phys. Rev. B 58, 3641-3662 (1998).
 Relativistic separable dual-space Gaussian pseudopotentials from H to Rn.
 https://doi.org/10.1103/PhysRevB.58.3641

 G. Lippert, J. Hutter, M. Parrinello.
 Mol. Phys. 92, 477-487 (1997).
 A hybrid Gaussian and plane wave density functional scheme.
 https://doi.org/10.1080/002689797170220

 S. Goedecker, M. Teter, J. Hutter.
 Phys. Rev. B 54, 1703-1710 (1996).
 Separable dual-space Gaussian pseudopotentials.
 https://doi.org/10.1103/PhysRevB.54.1703

 J. P. Perdew, K. Burke, M. Ernzerhof.
 Phys. Rev. Lett. 77, 3865-3868 (1996).
 Generalized gradient approximation made simple.
 https://doi.org/10.1103/PhysRevLett.77.3865


 -------------------------------------------------------------------------------
 -                                                                             -
 -                                T I M I N G                                  -
 -                                                                             -
 -------------------------------------------------------------------------------
 SUBROUTINE                       CALLS  ASD         SELF TIME        TOTAL TIME
                                MAXIMUM       AVERAGE  MAXIMUM  AVERAGE  MAXIMUM
 CP2K                                 1  1.0    0.013    0.016   20.383   20.383
 qs_energies                          1  2.0    0.000    0.000   20.219   20.220
 ls_scf                               1  3.0    0.000    0.000   19.022   19.023
 ls_scf_main                          1  4.0    0.000    0.000   16.479   16.479
 ls_scf_dm_to_ks                      8  5.0    0.000    0.000   12.304   12.308
 qs_ks_update_qs_env                  9  6.1    0.000    0.000    7.750    7.751
 rebuild_ks_matrix                    9  7.1    0.000    0.000    7.744    7.745
 qs_ks_build_kohn_sham_matrix         9  8.1    0.002    0.002    7.743    7.745
 qs_rho_update_rho_low                9  6.1    0.000    0.000    6.105    6.109
 calculate_rho_elec                   9  7.1    0.003    0.003    6.105    6.109
 sum_up_and_integrate                 9  9.1    0.000    0.000    5.850    5.852
 integrate_v_rspace                   9 10.1    0.000    0.000    5.842    5.843
 grid_collocate_task_list             9  8.1    5.410    5.499    5.410    5.499
 grid_integrate_task_list             9 11.1    5.179    5.238    5.179    5.238
 dbcsr_multiply_generic             246  6.2    0.012    0.013    4.649    4.657
 density_matrix_trs4                  8  5.0    0.004    0.006    4.170    4.173
 multiply_cannon                    246  7.2    0.018    0.023    3.774    3.885
 multiply_cannon_loop               246  8.2    0.019    0.021    3.701    3.762
 ls_scf_init_scf                      1  4.0    0.000    0.000    2.481    2.481
 multiply_cannon_multrec           1968  9.2    2.090    2.141    2.097    2.147
 mp_waitall_1                     16729 10.5    1.749    1.879    1.749    1.879
 fft_wrap_pw1pw2                    172 11.3    0.003    0.003    1.763    1.801
 fft_wrap_pw1pw2_200                100 12.8    0.101    0.108    1.691    1.727
 qs_vxc_create                        9  9.1    0.000    0.000    1.551    1.575
 xc_vxc_pw_create                     9 10.1    0.013    0.020    1.551    1.574
 ls_scf_initial_guess                 1  5.0    0.000    0.000    1.555    1.556
 ls_scf_qs_atomic_guess               1  6.0    0.000    0.000    1.555    1.556
 multiply_cannon_metrocomm3        1968  9.2    0.005    0.006    1.370    1.497
 fft3d_ps                           172 13.3    0.712    0.787    1.326    1.393
 qs_energies_init_hamiltonians        1  3.0    0.000    0.000    1.197    1.197
 xc_pw_derive                        54 12.1    0.001    0.001    1.101    1.173
 build_core_hamiltonian_matrix        1  4.0    0.000    0.000    0.740    1.007
 ls_scf_init_matrix_S                 1  5.0    0.000    0.000    0.926    0.926
 matrix_sqrt_Newton_Schulz            1  6.0    0.001    0.001    0.902    0.903
 mp_waitany                        1406 12.5    0.633    0.804    0.633    0.804
 xc_rho_set_and_dset_create           9 11.1    0.020    0.023    0.776    0.798
 xc_pw_divergence                     9 11.1    0.000    0.000    0.742    0.783
 density_rs2pw                        9  8.1    0.000    0.000    0.662    0.779
 transfer_rs2pw                      46  9.0    0.001    0.001    0.566    0.735
 build_core_ppl                       1  5.0    0.509    0.717    0.509    0.717
 make_m2s                           492  7.2    0.005    0.007    0.682    0.691
 make_images                        492  8.2    0.039    0.040    0.671    0.682
 transfer_rs2pw_200                  10  9.8    0.032    0.045    0.462    0.632
 mp_alltoall_z22v                   172 15.3    0.437    0.617    0.437    0.617
 potential_pw2rs                      9 11.1    0.001    0.001    0.598    0.599
 qs_env_update_s_mstruct              1  4.0    0.000    0.000    0.437    0.538
 make_images_data                   492  9.2    0.005    0.007    0.376    0.412
 yz_to_x                             64 14.2    0.061    0.082    0.289    0.411
 -------------------------------------------------------------------------------

 The number of warnings for this run is : 1
 
 -------------------------------------------------------------------------------
  **** **** ******  **  PROGRAM ENDED AT                 2024-09-23 17:30:52.216
 ***** ** ***  *** **   PROGRAM RAN ON                                    moritz
 **    ****   ******    PROGRAM RAN BY                                       ole
 ***** **    ** ** **   PROGRAM PROCESS ID                                155046
  **** **  *******  **  PROGRAM STOPPED IN /home/ole/git/pao_ml_equivar/64H2O_MD
                                           /Frame0400
