     192
 i =      400, time =      600.000, E =     -1100.0505094393
  O         5.3398131584       -4.6545330153        4.3671202665
  H         6.2078845310       -5.1151286563        4.6547598054
  H         5.0975717071       -4.0411113592        5.0557324940
  O        -3.0308029825        2.4532173050        4.6593336166
  H        -2.6859394766        1.8586621450        5.2985999813
  H        -3.5377026587        3.1329229583        5.1771630886
  O         5.4286787001        2.9277560095        4.9085734020
  H         4.4945424061        2.8950037619        4.8509031359
  H         5.7365452900        2.3254314545        4.2095992282
  O        -2.5810887781       -0.0962207687       -3.9509882510
  H        -2.1627384271        0.0897774478       -3.0497329789
  H        -1.8142461129       -0.3653065785       -4.4875483490
  O        -4.6657594957        4.4510792175        5.5492920293
  H        -5.5147784423        4.0893752490        5.3947561187
  H        -4.5232692910        5.3210734941        5.1938802184
  O         6.7420080102        1.2973262281        3.1500749394
  H         7.0102871196        0.3289663525        3.2512852332
  H         7.3149908781        1.6231642057        2.4388200544
  O         3.6875144517       -5.0441957192       -0.8610286551
  H         3.8449541545       -4.6419501892        0.0319849227
  H         4.3211852165       -4.6491530772       -1.5042951241
  O        -2.5588636518       -3.5116659752       -1.7881321817
  H        -3.2080145978       -2.8984995426       -2.2154009807
  H        -1.8692986836       -2.8331241619       -1.4942273987
  O         5.9999146497       -3.3449727904        2.0379916387
  H         5.8395158820       -3.6842704573        2.9808288384
  H         5.0948502837       -3.4796555498        1.6764617247
  O         2.8777422005        3.6210774683        5.0791141062
  H         2.1307896330        2.9702654399        4.9875292503
  H         2.5768431477        3.9863838589        5.8696964697
  O         4.3174921853       -3.0257328667       -2.6879277785
  H         4.6049253590       -3.3443960835       -3.5996604965
  H         4.6592129204       -2.1774909535       -2.5026735715
  O         3.3107966966       -3.0315154095        1.0384134553
  H         2.7892175478       -2.6810427992        1.7790182113
  H         2.8054291037       -2.7531122870        0.2540977146
  O         2.0107287980       -4.6189167402       -5.6612829696
  H         2.1188079653       -5.5215830958       -5.4087735256
  H         1.3204420593       -4.6515199462       -6.3564637663
  O         3.5608709104        4.0321531908       -3.2231601779
  H         3.7150688978        3.0635885930       -3.1377073437
  H         3.4096115706        4.2087885897       -2.2935231602
  O         3.5731679616       -1.1102410412        4.5971890672
  H         4.3948394366       -1.2353968230        5.1503842954
  H         3.8107818698       -0.4030720527        3.9474273267
  O         0.4625675660        2.0359142882        5.5005807908
  H         0.6739311239        1.2827004844        6.0318559116
  H         0.2852848145        1.6350002884        4.6343041957
  O         1.7427503767       -2.4148924161        3.0338018587
  H         2.3872039233       -2.0867098877        3.7470824854
  H         1.2029186790       -3.0477681875        3.5674953254
  O        -1.6204245279        3.5347031872        2.6377565175
  H        -1.0513315669        2.7536105310        2.4769997769
  H        -2.1205014720        3.1592233470        3.4842249959
  O         1.4284267141       -0.5873748812       -6.1925557416
  H         2.2351207389       -0.8677915395       -6.6586964222
  H         1.7331361241       -0.4804398911       -5.2830052437
  O        -0.3433023453       -1.8879845585       -0.6887892831
  H        -0.7504678467       -1.1122871077       -0.3012559063
  H        -0.2466295743       -2.5392193689        0.0031176071
  O        -3.8836566602        3.9608676530       -2.2960572714
  H        -3.9610397712        4.9565641101       -2.2058522018
  H        -2.9162469864        3.7665275101       -2.1875038347
  O         5.1360847500        5.4799281106        1.5990032176
  H         5.0904042067        4.5566893651        1.2657338361
  H         4.5364036478        5.5454371321        2.3654733810
  O         4.1043700666        1.0410462054       -3.6829207315
  H         4.6302012439        1.2525869196       -4.5089381908
  H         4.8423425425        0.6716821748       -3.1799388097
  O        -4.6317460173        6.5499231632       -2.2892380961
  H        -5.1797951175        6.9744206507       -1.6300324043
  H        -5.2046424699        6.5650436546       -3.0753301031
  O         5.0929303661       -0.6663487996        0.3770962618
  H         5.6685647869       -0.4271516442        1.0689728601
  H         4.7752412517       -1.5876085580        0.6354292528
  O         2.3934813277        1.1681945124        0.9367409606
  H         3.1379207004        1.6729915584        0.5067404349
  H         2.2568495911        0.4597862560        0.3179421393
  O        -5.8234243395       -4.9978868884       -0.0509377565
  H        -6.5818032930       -5.5155587735        0.2764163834
  H        -5.9162451059       -4.1758277357        0.4604801712
  O        -4.6846752350        5.4589761503        2.2798903115
  H        -5.6750257370        5.4122405154        2.2805485995
  H        -4.4346663961        4.5235977880        2.1339826430
  O         6.1436587040        1.0329535486       -5.4472301909
  H         7.0260106711        1.5040737591       -5.4001654116
  H         5.8466911084        1.4503003287       -6.2833289939
  O         2.3627587290       -1.9382362852       -1.2996895975
  H         2.7468598088       -2.5701044396       -1.9470047380
  H         1.4372428568       -2.1269045307       -1.3335319259
  O         4.4034266296        2.7870388322        0.3054057912
  H         5.1325939357        2.6900277956       -0.3398739602
  H         3.8461654519        3.4650248716       -0.0582430253
  O        -1.0105849366       -1.1610484893        1.9043756050
  H        -0.2016695009       -1.5798310473        2.2138486185
  H        -1.7171805293       -1.6665147820        2.2386662076
  O         1.6131658177       -6.2778691596        1.7393509982
  H         1.9093094922       -6.8880439198        1.0637059779
  H         2.3145353357       -6.4220771920        2.4475622257
  O         0.1961498525       -4.0015905748       -3.2597433779
  H        -0.5683404831       -4.5883341792       -3.4060879476
  H         0.7270288647       -4.2043873486       -4.0667912823
  O        -4.3812599808        2.9743402798        1.3936261972
  H        -3.4548907062        2.7306159253        1.3218493109
  H        -4.7253077409        3.0727658944        0.4843684538
  O         4.4821510549       -3.6569410032       -5.4523554756
  H         3.5667826384       -3.7415948994       -5.7148160199
  H         4.7677500897       -2.7065384284       -5.4916724121
  O        -0.9735619168        3.2681379799       -2.3524937554
  H        -0.7470836450        3.1277602320       -3.2517344141
  H        -0.5501369583        4.0166877476       -1.9866784347
  O        -4.5994275660       -5.6079471089        4.4010689238
  H        -4.0938356215       -4.8047171744        4.5028464606
  H        -4.3654859849       -6.1361181820        3.5539081510
  O         3.4269450451        5.8878685370        3.6831451832
  H         4.0712467461        6.4682737336        4.0083526427
  H         3.2539792966        5.1272409110        4.2664205623
  O        -3.9312255689        2.1739771423       -4.7122262797
  H        -3.4719519613        1.4132026466       -4.3457351350
  H        -3.9452997114        2.7775418476       -3.9520698156
  O         4.1420508565        0.8698797674        3.0496698755
  H         3.5685293480        0.8988186358        2.2411288569
  H         5.0709409058        1.1093138058        2.8384773804
  O        -5.1682959239       -1.4016574076        3.2909047636
  H        -5.6234171208       -1.9387139155        2.5614701674
  H        -4.3047336399       -1.7695346239        3.3516256248
  O        -0.0980342835        1.0456864927        2.9337757807
  H         0.6075831943        1.1086900772        2.2635422515
  H        -0.6639014968        0.2493910857        2.6585343509
  O        -1.5625112794        5.0013060705        0.2615999402
  H        -1.2975588954        4.5731652052        1.0654797970
  H        -2.1770028790        5.6958691413        0.5997530420
  O        -0.7885684169       -1.6171467277       -5.3168142661
  H        -0.4078906273       -1.8331317707       -4.4650772519
  H        -0.0141814967       -1.2269944857       -5.7936037663
  O        -5.7664915313        2.3680101892       -1.0922069938
  H        -5.0431670904        2.8132933375       -1.6176624665
  H        -6.1232062660        1.8136036714       -1.8090235979
  O         5.6951924665       -0.5335203454       -2.2914334508
  H         6.6069846060       -0.8602896852       -2.5725519193
  H         5.6279335839       -0.5962029078       -1.3252474560
  O        -0.9449751985        0.5466546843       -1.8893899702
  H        -0.8799514452        1.4699562474       -1.6584550294
  H        -0.0603496331        0.2588121495       -2.2841675055
  O         0.2523593252        5.8942383476       -1.4643280051
  H         0.2796680293        6.8068394021       -1.8470945062
  H        -0.4021620243        5.6777313316       -0.7696707219
  O         5.4810284058       -1.4579288653        6.3671562043
  H         6.1644502227       -2.0241818393        5.9378071114
  H         5.8855914833       -0.6562419573        6.7145764360
  O        -2.0160508972       -5.8200547350       -3.8265195930
  H        -1.9806697951       -6.7250783428       -4.1420427579
  H        -2.7840818959       -5.8131198902       -3.2070887228
  O        -4.4295263592       -1.9575431558       -3.2080606524
  H        -4.6987165549       -2.3709786508       -4.0231044509
  H        -3.9088572041       -1.1628647739       -3.4387540672
  O         2.7429383958        4.9410263592       -0.7475574119
  H         1.8447380893        5.1910411128       -0.9154019163
  H         3.3018724602        5.7633160790       -0.7848558317
  O        -4.8780013156       -3.5306944039       -5.7396087153
  H        -3.9488878314       -3.5432201013       -5.9982561849
  H        -5.1527298573       -4.4944391143       -5.6807775031
  O        -0.7861065624        6.2718913356        2.9585138578
  H        -1.1412118840        5.3714023133        3.1189719820
  H         0.0369280529        5.9399911361        2.4491594362
  O        -2.1996562217       -3.9657623753       -5.9707742274
  H        -2.2570236980       -4.6422207107       -5.2828164184
  H        -1.7116208784       -3.2080415801       -5.7249874300
  O        -2.6529838199       -3.3110538008        2.7995318525
  H        -1.8201201605       -3.6354077077        3.1099893028
  H        -2.8163420646       -3.9758883638        2.0633003744
  O         1.6263770038        4.7487010089       -5.2428134727
  H         2.2638958206        4.7014950164       -4.5389903321
  H         0.7654640814        4.6141574359       -4.8426379852
  O         1.5428516584       -0.0502894850       -3.2526448204
  H         1.7381867333       -0.8261037797       -2.6594009889
  H         2.4786150950        0.3909861765       -3.3818267722
  O        -1.1465465573        3.3535267356        7.3746747309
  H        -0.6458138207        3.0249115657        6.6224791061
  H        -2.0898128597        3.2506450059        7.1350800616
  O        -0.0852379432       -3.9524257550        1.2644392844
  H         0.6534703696       -4.6007534214        1.3620589594
  H        -0.7130229693       -4.6325077253        0.9243143827
  O         6.2670039878        6.7466310383        7.6683487370
  H         5.7011480522        7.4425578119        7.2623390514
  H         6.1295333070        5.8991258806        7.2591369752
  O         0.3059787940       -4.5202116212        4.6169132029
  H        -0.1393295917       -5.3361755224        4.1794016298
  H        -0.4665114426       -4.2727202427        5.2012012424
  O        -3.2089693076       -5.0091863279        0.5875712361
  H        -4.0972870228       -5.3066534164        0.5401805254
  H        -2.9458652231       -4.4870638702       -0.1984390048
