       6
 i =      825, time =      165.000, E =       -34.4477029220
  O         2.4594903645        4.2291080948        3.5477759059
  H         1.8962819244        4.3321475926        4.3600788977
  H         1.9634358786        3.6124019229        2.9753920765
  O         5.4012687621        4.2262958345        4.4701075471
  H         4.8523826671        3.8136839651        5.1275084677
  H         4.7413031415        4.5382167333        3.8262191013
