 DBCSR| CPU Multiplication driver                                           XSMM
 DBCSR| Multrec recursion limit                                              512
 DBCSR| Multiplication stack size                                           1000
 DBCSR| Maximum elements for images                                    UNLIMITED
 DBCSR| Multiplicative factor virtual images                                   1
 DBCSR| Use multiplication densification                                       T
 DBCSR| Multiplication size stacks                                             3


  **** **** ******  **  PROGRAM STARTED AT               2019-02-14 10:40:58.615
 ***** ** ***  *** **   PROGRAM STARTED ON                                  otto
 **    ****   ******    PROGRAM STARTED BY                                   ole
 ***** **    ** ** **   PROGRAM PROCESS ID                                  7029
  **** **  *******  **  PROGRAM STARTED IN /home/ole/git/pao_ml_equivar/2H2O_MD/
                                           frame_1025

 CP2K| version string:                    CP2K version 7.0 (Development Version)
 CP2K| source code revision number:                                git:8bf305913
 CP2K| cp2kflags: libint fftw3 libxc xsmm libderiv_max_am1=5 libint_max_am=6    
 CP2K| is freely available from                            https://www.cp2k.org/
 CP2K| Program compiled at                           So Jan 13 00:02:37 CET 2019
 CP2K| Program compiled on                                                  otto
 CP2K| Program compiled for                                                local
 CP2K| Data directory path                               /home/ole/git/cp2k/data
 CP2K| Input file name                                            2H2O_pao44.inp

 GLOBAL| Force Environment number                                              1
 GLOBAL| Basis set file name                                        BASIS_MOLOPT
 GLOBAL| Potential file name                                      GTH_POTENTIALS
 GLOBAL| MM Potential file name                                     MM_POTENTIAL
 GLOBAL| Coordinate file name                                         coords.xyz
 GLOBAL| Method name                                                        CP2K
 GLOBAL| Project name                                                 2H2O_pao44
 GLOBAL| Preferred FFT library                                             FFTW3
 GLOBAL| Preferred diagonalization lib.                                       SL
 GLOBAL| Run type                                                         ENERGY
 GLOBAL| All-to-all communication in single precision                          F
 GLOBAL| FFTs using library dependent lengths                                  F
 GLOBAL| Global print level                                                  LOW
 GLOBAL| MPI I/O enabled                                                       T
 GLOBAL| Total number of message passing processes                             1
 GLOBAL| Number of threads for this process                                    1
 GLOBAL| This output is from process                                           0
 GLOBAL| CPU model name :  Intel(R) Core(TM) i5-3320M CPU @ 2.60GHz

 MEMORY| system memory details [Kb]
 MEMORY|                        rank 0           min           max       average
 MEMORY| MemTotal              7860772       7860772       7860772       7860772
 MEMORY| MemFree               1950000       1950000       1950000       1950000
 MEMORY| Buffers                285776        285776        285776        285776
 MEMORY| Cached                1997280       1997280       1997280       1997280
 MEMORY| Slab                   260228        260228        260228        260228
 MEMORY| SReclaimable           137360        137360        137360        137360
 MEMORY| MemLikelyFree         4370416       4370416       4370416       4370416


 GENERATE|  Preliminary Number of Bonds generated:                             0
 GENERATE|  Achieved consistency in connectivity generation.

 *******************************************************************************
 *******************************************************************************
 **                                                                           **
 **     #####                         ##              ##                      **
 **    ##   ##            ##          ##              ##                      **
 **   ##     ##                       ##            ######                    **
 **   ##     ##  ##   ##  ##   #####  ##  ##   ####   ##    #####    #####    **
 **   ##     ##  ##   ##  ##  ##      ## ##   ##      ##   ##   ##  ##   ##   **
 **   ##  ## ##  ##   ##  ##  ##      ####     ###    ##   ######   ######    **
 **    ##  ###   ##   ##  ##  ##      ## ##      ##   ##   ##       ##        **
 **     #######   #####   ##   #####  ##  ##  ####    ##    #####   ##        **
 **           ##                                                    ##        **
 **                                                                           **
 **                                                ... make the atoms dance   **
 **                                                                           **
 **            Copyright (C) by CP2K developers group (2000 - 2018)           **
 **                                                                           **
 *******************************************************************************


 TOTAL NUMBERS AND MAXIMUM NUMBERS

  Total number of            - Atomic kinds:                                   2
                             - Atoms:                                          6
                             - Shell sets:                                     6
                             - Shells:                                        22
                             - Primitive Cartesian functions:                 42
                             - Cartesian basis functions:                     48
                             - Spherical basis functions:                     46

  Maximum angular momentum of- Orbital basis functions:                        2
                             - Local part of the GTH pseudopotential:          2
                             - Non-local part of the GTH pseudopotential:      0

 ------------------------------ Linear scaling SCF -----------------------------
 eps_scf:                                       0.100E-07
 eps_filter:                                    0.100E-07
 mixing_fraction:                               0.450E+00
 max_scf:                                              25
 fixed chemical potential (mu)                          F
 has unit metric:                                       F
 Computing inv(S):                                      T
 Computing sqrt(S):                                     T
 Computing s preconditioner                             F
 sign sqrt order:                                       3
 Extrapolation order:                                   1
 Use single precision matrices                          F
 S preconditioner type                               NONE
 Polarized Atomic Orbitals (PAO)                        T
 Purification method                      Trace resetting 4th order
 Cluster type                                      ATOMIC
 Computing Chebyshev                                FALSE
 Using PAO                                              T
 -------------------------------------------------------------------------------

 
 PAO|                                  EPS_PAO                           0.5E-06
 PAO|                                  MIXING                            0.5E+00
 PAO|                                  MAX_PAO                              1000
 PAO|                                  MAX_CYCLES                           1000
 PAO|                                  PARAMETERIZATION                   DIRECT
 PAO|                                  PRECONDITION                            F
 PAO|                                  REGULARIZATION                    0.0E+00
 PAO|                                  EPS_PGF                           0.1E-09
 PAO|                                  PENALTY_DISTANCE                  0.1E+00
 PAO|                                  PENALTY_STRENGTH                  0.5E-02
 PAO|                                  LINPOT_PRECONDITION_DELTA         0.0E+00
 PAO|                                  LINPOT_INITGUESS_DELT             0.0E+00
 PAO|                                  LINPOT_REGULARIZATION_DELTA       0.0E+00
 PAO|                                  LINPOT_REGULARIZATION_STRENGTH    0.0E+00
 PAO|                                  OPTIMIZER                              CG
 PAO|                                  CG_INIT_STEPS                           2
 PAO|                                  CG_RESET_LIMIT                    0.1E+00
 PAO|                                  CHECK_UNITARY_TOL                -0.1E+01
 PAO|                                  CHECK_GRADIENT_TOL               -0.1E+01
 PAO|                                  NUM_GRADIENT_ORDER                      2
 PAO|                                  NUM_GRADIENT_EPS                  0.1E-07
 PAO|                                  PRINT%RESTART%WRITE_CYCLES            100
 PAO|                                  RESTART_FILE 
 PAO|                                  PREOPT_DM_FILE 2H2O_ref_LS_DM_SPIN_1_RESTART.dm
 PAO|                                  MACHINE_LEARNING%METHOD        GAUSSIAN_P
 PAO|                                  MACHINE_LEARNING%PRIOR               ZERO
 PAO|                                  MACHINE_LEARNING%DESCRIPTOR     POTENTIAL
 PAO|                                  MACHINE_LEARNING%TOLERANCE        0.1E-01
 PAO|                                  MACHINE_LEARNING%GP_NOISE_VAR     0.1E+00
 PAO|                                  MACHINE_LEARNING%GP_SCALE         0.5E-01
 

 Calculating atomic Fock matrix for atomic kind: O

 Electronic structure
    Total number of core electrons                                          2.00
    Total number of valence electrons                                       6.00
    Total number of electrons                                               8.00
    Multiplicity                                                   not specified
    S   [  2.00] 2.00
    P      4.00


 *******************************************************************************
                  Iteration          Convergence                     Energy [au]
 *******************************************************************************
                          1        0.708315                     -15.576645311500
                          2        0.608879                     -15.587933561584
                          3        0.102828E-01                 -15.656849565404
                          4        0.113889E-02                 -15.656866888140
                          5        0.434197E-03                 -15.656867072159
                          6        0.263771E-03                 -15.656867091904
                          7        0.478536E-06                 -15.656867103452

 Energy components [Hartree]           Total Energy ::          -15.656867103452
                                        Band Energy ::           -3.000198112285
                                     Kinetic Energy ::           11.759971203220
                                   Potential Energy ::          -27.416838306672
                                      Virial (-V/T) ::            2.331369510426
                                        Core Energy ::          -26.140716385623
                                          XC Energy ::           -3.154051012914
                                     Coulomb Energy ::           13.637900295084
                       Total Pseudopotential Energy ::          -37.935781716540
                       Local Pseudopotential Energy ::          -39.218907440693
                    Nonlocal Pseudopotential Energy ::            1.283125724153
                                        Confinement ::            0.350941276976

 Orbital energies  State     L     Occupation   Energy[a.u.]          Energy[eV]

                       1     0          2.000      -0.864471          -23.523463

                       1     1          4.000      -0.317814           -8.648154


 Total Electron Density at R=0:                                         0.000068

 Calculating atomic Fock matrix for atomic kind: H

 Electronic structure
    Total number of core electrons                                          0.00
    Total number of valence electrons                                       1.00
    Total number of electrons                                               1.00
    Multiplicity                                                   not specified
    S      1.00


 *******************************************************************************
                  Iteration          Convergence                     Energy [au]
 *******************************************************************************
                          1        0.437545E-02                  -0.424159432110
                          2        0.531356E-03                  -0.424178438213
                          3        0.259176E-06                  -0.424178722480

 Energy components [Hartree]           Total Energy ::           -0.424178722480
                                        Band Energy ::           -0.199015229016
                                     Kinetic Energy ::            0.464007633961
                                   Potential Energy ::           -0.888186356441
                                      Virial (-V/T) ::            1.914163240935
                                        Core Energy ::           -0.479160803564
                                          XC Energy ::           -0.244352904054
                                     Coulomb Energy ::            0.299334985138
                       Total Pseudopotential Energy ::           -0.962295316385
                       Local Pseudopotential Energy ::           -0.962295316385
                    Nonlocal Pseudopotential Energy ::            0.000000000000
                                        Confinement ::            0.191268788606

 Orbital energies  State     L     Occupation   Energy[a.u.]          Energy[eV]

                       1     0          1.000      -0.199015           -5.415480


 Total Electron Density at R=0:                                         0.242907
 PAO| Made initial guess for matrix_X with norm:   4.8989794855663558     

     Lanczos converged:  T threshold:   0.100E-02
     Est. extremal eigenvalues:    0.321E+01   0.118E+00
     Est. condition number :    0.272E+02
     NS sqrt iter    1 1.00000000   0.783E+00       0.001       47.537
     NS sqrt iter    2 1.00000000   0.415E+00       0.001       83.565
     NS sqrt iter    3 1.00000000   0.156E+00       0.001       84.977
     NS sqrt iter    4 1.00000000   0.167E-01       0.001       85.428
     NS sqrt iter    5 1.00000000   0.302E-04       0.001       66.578
     Final NS sqrt iter    5 1.00000000   0.141E-08

 PAO| Read restart DM 2H2O_ref_LS_DM_SPIN_1_RESTART.dm with checksum:    58.753158010180307     
 PAO| Quickstep energy from restart density:  -34.447964881170329     
 PAO| ======================= Iteration:         1 =============================

     Lanczos converged:  T threshold:   0.100E-02
     Est. extremal eigenvalues:    0.321E+01   0.118E+00
     Est. condition number :    0.272E+02
     NS sqrt iter    1 1.00000000   0.783E+00       0.001       64.512
     NS sqrt iter    2 1.00000000   0.415E+00       0.001      110.592
     NS sqrt iter    3 1.00000000   0.156E+00       0.001      110.592
     NS sqrt iter    4 1.00000000   0.167E-01       0.001      110.592
     NS sqrt iter    5 1.00000000   0.302E-04       0.001       83.968
     Final NS sqrt iter    5 1.00000000   0.141E-08

     Est. extremal eigenvalues     -0.91128     1.84256  converged:  T
     TRS4 it   1 1.00000000   0.891E+00       0.000       16.128   0.100E-07
     TRS4 it   2 1.00000000   0.693E+00       0.001       32.256   0.100E-07
     TRS4 it   3 1.00000000   0.502E+00       0.001       32.256   0.100E-07
     TRS4 it   4 1.00000000   0.319E+00       0.001       32.256   0.100E-07
     TRS4 it   5 1.00000000   0.161E+00       0.001       32.256   0.100E-07
     TRS4 it   6 1.00000000   0.500E-01       0.001       32.256   0.100E-07
     TRS4 it   7 1.00000000   0.628E-02       0.001       32.256   0.100E-07
     TRS4 it   8 1.00000000   0.134E-03       0.001       32.256   0.100E-07
     TRS4 it   9 1.00000000   0.752E-07       0.001       32.256   0.100E-07
     Final TRS4 iteration    9 1.00000000   0.752E-07
     Chemical potential (mu):      -0.06733
 
 PAO| energy:  -7.5512109576133541      penalty:   6.6560138878022889E-033
 PAO|CG| warming up with steepest descent
 PAO|CG| beta:    0.0000000000000000     
 PAO| norm of gradient:  0.78169194669263964     
 PAO|LS| adapt:  T F F
 PAO|LS| adapt: scan_steps:    0.0000000000000000        0.0000000000000000        0.0000000000000000     
 PAO|LS| adapt: energies:   -7.5512109576133541        0.0000000000000000        0.0000000000000000     
 PAO| ======================= Iteration:         2 =============================

     Lanczos converged:  T threshold:   0.100E-02
     Est. extremal eigenvalues:    0.314E+01   0.131E+00
     Est. condition number :    0.239E+02
     NS sqrt iter    1 1.00000000   0.770E+00       0.001       64.512
     NS sqrt iter    2 1.00000000   0.401E+00       0.001      110.592
     NS sqrt iter    3 1.00000000   0.139E+00       0.001      110.592
     NS sqrt iter    4 1.00000000   0.115E-01       0.001      110.592
     NS sqrt iter    5 1.00000000   0.948E-05       0.001       82.944
     Final NS sqrt iter    5 1.00000000   0.131E-09

     Est. extremal eigenvalues     -0.91499     1.80134  converged:  T
     TRS4 it   1 1.00000000   0.891E+00       0.000       16.128   0.100E-07
     TRS4 it   2 1.00000000   0.677E+00       0.001       32.256   0.100E-07
     TRS4 it   3 1.00000000   0.488E+00       0.001       32.256   0.100E-07
     TRS4 it   4 1.00000000   0.300E+00       0.001       32.256   0.100E-07
     TRS4 it   5 1.00000000   0.142E+00       0.001       32.256   0.100E-07
     TRS4 it   6 1.00000000   0.388E-01       0.001       32.256   0.100E-07
     TRS4 it   7 1.00000000   0.379E-02       0.001       32.256   0.100E-07
     TRS4 it   8 1.00000000   0.489E-04       0.001       32.256   0.100E-07
     TRS4 it   9 1.00000000   0.101E-07       0.001       32.256   0.100E-07
     Final TRS4 iteration    9 1.00000000   0.101E-07
     Chemical potential (mu):      -0.05548
 
 PAO| energy:  -7.6063417053315874      penalty:   2.2335948077997410E-008
 PAO|LS| adapt:  T T F
 PAO|LS| adapt: scan_steps:    0.0000000000000000       0.10000000000000001        0.0000000000000000     
 PAO|LS| adapt: energies:   -7.5512109576133541       -7.6063417053315874        0.0000000000000000     
 PAO| ======================= Iteration:         3 =============================

     Lanczos converged:  T threshold:   0.100E-02
     Est. extremal eigenvalues:    0.306E+01   0.141E+00
     Est. condition number :    0.217E+02
     NS sqrt iter    1 1.00000000   0.756E+00       0.001       64.512
     NS sqrt iter    2 1.00000000   0.386E+00       0.001      110.592
     NS sqrt iter    3 1.00000000   0.124E+00       0.001      110.592
     NS sqrt iter    4 1.00000000   0.791E-02       0.001      110.592
     NS sqrt iter    5 1.00000000   0.333E-05       0.001       82.944
     Final NS sqrt iter    5 1.00000000   0.172E-10

     Est. extremal eigenvalues     -0.91840     1.76932  converged:  T
     TRS4 it   1 1.00000000   0.892E+00       0.000       16.128   0.100E-07
     TRS4 it   2 1.00000000   0.664E+00       0.001       32.256   0.100E-07
     TRS4 it   3 1.00000000   0.473E+00       0.001       32.256   0.100E-07
     TRS4 it   4 1.00000000   0.281E+00       0.001       32.256   0.100E-07
     TRS4 it   5 1.00000000   0.124E+00       0.001       32.256   0.100E-07
     TRS4 it   6 1.00000000   0.293E-01       0.001       32.256   0.100E-07
     TRS4 it   7 1.00000000   0.213E-02       0.001       32.256   0.100E-07
     TRS4 it   8 1.00000000   0.154E-04       0.001       32.256   0.100E-07
     TRS4 it   9 1.00000000   0.100E-08       0.001       32.256   0.100E-07
     Final TRS4 iteration    9 1.00000000   0.100E-08
     Chemical potential (mu):      -0.04240
 
 PAO| energy:  -7.6488895757261472      penalty:   3.5737343696441382E-007
 PAO|LS| adapt:  T T F
 PAO|LS| adapt: scan_steps:    0.0000000000000000       0.20000000000000001        0.0000000000000000     
 PAO|LS| adapt: energies:   -7.5512109576133541       -7.6488895757261472        0.0000000000000000     
 PAO| ======================= Iteration:         4 =============================

     Lanczos converged:  T threshold:   0.100E-02
     Est. extremal eigenvalues:    0.290E+01   0.157E+00
     Est. condition number :    0.185E+02
     NS sqrt iter    1 1.00000000   0.725E+00       0.001       64.512
     NS sqrt iter    2 1.00000000   0.354E+00       0.001      110.592
     NS sqrt iter    3 1.00000000   0.964E-01       0.001      110.592
     NS sqrt iter    4 1.00000000   0.396E-02       0.001      110.592
     NS sqrt iter    5 1.00000000   0.570E-06       0.001       82.432
     Final NS sqrt iter    5 1.00000000   0.154E-09

     Est. extremal eigenvalues     -0.92356     1.72461  converged:  T
     TRS4 it   1 1.00000000   0.894E+00       0.000       16.128   0.100E-07
     TRS4 it   2 1.00000000   0.641E+00       0.001       32.256   0.100E-07
     TRS4 it   3 1.00000000   0.447E+00       0.001       32.256   0.100E-07
     TRS4 it   4 1.00000000   0.247E+00       0.001       32.256   0.100E-07
     TRS4 it   5 1.00000000   0.927E-01       0.001       32.256   0.100E-07
     TRS4 it   6 1.00000000   0.157E-01       0.001       32.256   0.100E-07
     TRS4 it   7 1.00000000   0.567E-03       0.001       32.256   0.100E-07
     TRS4 it   8 1.00000000   0.103E-05       0.001       32.256   0.100E-07
     TRS4 it   9 1.00000000   0.449E-11       0.001       32.256   0.100E-07
     Final TRS4 iteration    9 1.00000000   0.449E-11
     Chemical potential (mu):      -0.01334
 
 PAO| energy:  -7.6947195255777823      penalty:   5.7179611458616554E-006
 PAO|LS| Need extra step
 PAO|LS| adapt:  T T F
 PAO|LS| adapt: scan_steps:    0.0000000000000000       0.40000000000000002        0.0000000000000000     
 PAO|LS| adapt: energies:   -7.5512109576133541       -7.6947195255777823        0.0000000000000000     
 PAO| ======================= Iteration:         5 =============================

     Lanczos converged:  T threshold:   0.100E-02
     Est. extremal eigenvalues:    0.258E+01   0.183E+00
     Est. condition number :    0.142E+02
     NS sqrt iter    1 1.00000000   0.669E+00       0.001       64.512
     NS sqrt iter    2 1.00000000   0.296E+00       0.001      110.592
     NS sqrt iter    3 1.00000000   0.596E-01       0.001      110.592
     NS sqrt iter    4 1.00000000   0.116E-02       0.001      110.592
     NS sqrt iter    5 1.00000000   0.192E-07       0.001       53.504
     Final NS sqrt iter    5 1.00000000   0.717E-09

     Est. extremal eigenvalues     -0.92403     1.67601  converged:  T
     TRS4 it   1 1.00000000   0.899E+00       0.000       16.128   0.100E-07
     TRS4 it   2 1.00000000   0.611E+00       0.001       32.256   0.100E-07
     TRS4 it   3 1.00000000   0.406E+00       0.001       32.256   0.100E-07
     TRS4 it   4 1.00000000   0.193E+00       0.001       32.256   0.100E-07
     TRS4 it   5 1.00000000   0.527E-01       0.001       32.256   0.100E-07
     TRS4 it   6 1.00000000   0.451E-02       0.001       32.256   0.100E-07
     TRS4 it   7 1.00000000   0.383E-04       0.001       32.256   0.100E-07
     TRS4 it   8 1.00000000   0.336E-08       0.001       32.256   0.100E-07
     Final TRS4 iteration    8 1.00000000   0.336E-08
     Chemical potential (mu):       0.03493
 
 PAO| energy:  -7.6359933669412534      penalty:   9.1487267620027579E-005
 PAO|LS| Need extra step
 PAO|LS| adapt:  T T T
 PAO|LS| adapt: scan_steps:    0.0000000000000000       0.40000000000000002       0.80000000000000004     
 PAO|LS| adapt: energies:   -7.5512109576133541       -7.6947195255777823       -7.6359933669412534     
 PAO|LS| adapt: suggested step_size:   0.48384554992396461     
 PAO|LS| adapt: predicted energy  -7.6991624179115172     
 PAO| ======================= Iteration:         6 =============================

     Lanczos converged:  T threshold:   0.100E-02
     Est. extremal eigenvalues:    0.283E+01   0.163E+00
     Est. condition number :    0.174E+02
     NS sqrt iter    1 1.00000000   0.712E+00       0.001       64.512
     NS sqrt iter    2 1.00000000   0.341E+00       0.001      110.592
     NS sqrt iter    3 1.00000000   0.869E-01       0.001      110.592
     NS sqrt iter    4 1.00000000   0.303E-02       0.001      110.592
     NS sqrt iter    5 1.00000000   0.282E-06       0.001       80.512
     Final NS sqrt iter    5 1.00000000   0.593E-09

     Est. extremal eigenvalues     -0.92484     1.71110  converged:  T
     TRS4 it   1 1.00000000   0.895E+00       0.000       16.128   0.100E-07
     TRS4 it   2 1.00000000   0.634E+00       0.001       32.256   0.100E-07
     TRS4 it   3 1.00000000   0.438E+00       0.001       32.256   0.100E-07
     TRS4 it   4 1.00000000   0.234E+00       0.001       32.256   0.100E-07
     TRS4 it   5 1.00000000   0.819E-01       0.001       32.256   0.100E-07
     TRS4 it   6 1.00000000   0.119E-01       0.001       32.256   0.100E-07
     TRS4 it   7 1.00000000   0.311E-03       0.001       32.256   0.100E-07
     TRS4 it   8 1.00000000   0.292E-06       0.001       32.256   0.100E-07
     TRS4 it   9 1.00000000   0.351E-12       0.001       32.256   0.100E-07
     Final TRS4 iteration    9 1.00000000   0.351E-12
     Chemical potential (mu):      -0.00031
 
 PAO| energy:  -7.6984713964581593      penalty:   1.2241314525356979E-005
 PAO|CG| warming up with steepest descent
 PAO|CG| beta:    0.0000000000000000     
 PAO| norm of gradient:  0.40966036040846504     
 PAO| energy improvement: -0.14726043884480511     
 PAO| step      6                   -7.698471396  0.256E-01  0.484E+00     0.077
 PAO|LS| adapt:  T F F
 PAO|LS| adapt: scan_steps:    0.0000000000000000        0.0000000000000000        0.0000000000000000     
 PAO|LS| adapt: energies:   -7.6984713964581593        0.0000000000000000        0.0000000000000000     
 PAO| ======================= Iteration:         7 =============================

     Lanczos converged:  T threshold:   0.100E-02
     Est. extremal eigenvalues:    0.275E+01   0.176E+00
     Est. condition number :    0.156E+02
     NS sqrt iter    1 1.00000000   0.696E+00       0.001       64.512
     NS sqrt iter    2 1.00000000   0.321E+00       0.001      110.592
     NS sqrt iter    3 1.00000000   0.726E-01       0.001      110.592
     NS sqrt iter    4 1.00000000   0.187E-02       0.001      110.592
     NS sqrt iter    5 1.00000000   0.717E-07       0.001       71.808
     Final NS sqrt iter    5 1.00000000   0.672E-09

     Est. extremal eigenvalues     -0.92674     1.71160  converged:  T
     TRS4 it   1 1.00000000   0.899E+00       0.000       16.128   0.100E-07
     TRS4 it   2 1.00000000   0.636E+00       0.001       32.256   0.100E-07
     TRS4 it   3 1.00000000   0.440E+00       0.001       32.256   0.100E-07
     TRS4 it   4 1.00000000   0.237E+00       0.001       32.256   0.100E-07
     TRS4 it   5 1.00000000   0.842E-01       0.001       32.256   0.100E-07
     TRS4 it   6 1.00000000   0.124E-01       0.001       32.256   0.100E-07
     TRS4 it   7 1.00000000   0.322E-03       0.001       32.256   0.100E-07
     TRS4 it   8 1.00000000   0.287E-06       0.001       32.256   0.100E-07
     TRS4 it   9 1.00000000   0.310E-12       0.001       32.256   0.100E-07
     Final TRS4 iteration    9 1.00000000   0.310E-12
     Chemical potential (mu):       0.00116
 
 PAO| energy:  -7.6952803728358878      penalty:   1.8121482669246613E-005
 PAO|LS| adapt:  T F T
 PAO|LS| adapt: scan_steps:    0.0000000000000000        0.0000000000000000       0.48384554992396461     
 PAO|LS| adapt: energies:   -7.6984713964581593        0.0000000000000000       -7.6952803728358878     
 PAO| ======================= Iteration:         8 =============================

     Lanczos converged:  T threshold:   0.100E-02
     Est. extremal eigenvalues:    0.279E+01   0.170E+00
     Est. condition number :    0.165E+02
     NS sqrt iter    1 1.00000000   0.704E+00       0.001       64.512
     NS sqrt iter    2 1.00000000   0.331E+00       0.001      110.592
     NS sqrt iter    3 1.00000000   0.796E-01       0.001      110.592
     NS sqrt iter    4 1.00000000   0.240E-02       0.001      110.592
     NS sqrt iter    5 1.00000000   0.146E-06       0.001       77.440
     Final NS sqrt iter    5 1.00000000   0.102E-08

     Est. extremal eigenvalues     -0.92689     1.71108  converged:  T
     TRS4 it   1 1.00000000   0.897E+00       0.000       16.128   0.100E-07
     TRS4 it   2 1.00000000   0.634E+00       0.001       32.256   0.100E-07
     TRS4 it   3 1.00000000   0.438E+00       0.001       32.256   0.100E-07
     TRS4 it   4 1.00000000   0.235E+00       0.001       32.256   0.100E-07
     TRS4 it   5 1.00000000   0.830E-01       0.001       32.256   0.100E-07
     TRS4 it   6 1.00000000   0.123E-01       0.001       32.256   0.100E-07
     TRS4 it   7 1.00000000   0.328E-03       0.001       32.256   0.100E-07
     TRS4 it   8 1.00000000   0.312E-06       0.001       32.256   0.100E-07
     TRS4 it   9 1.00000000   0.386E-12       0.001       32.256   0.100E-07
     Final TRS4 iteration    9 1.00000000   0.386E-12
     Chemical potential (mu):      -0.00007
 
 PAO| energy:  -7.7177484381349792      penalty:   1.3214272334532229E-005
 PAO|LS| adapt:  T T T
 PAO|LS| adapt: scan_steps:    0.0000000000000000       0.24192277496198231       0.48384554992396461     
 PAO|LS| adapt: energies:   -7.6984713964581593       -7.7177484381349792       -7.6952803728358878     
 PAO|LS| adapt: suggested step_size:   0.23267640639818149     
 PAO|LS| adapt: predicted energy  -7.7177789286298406     
 PAO| ======================= Iteration:         9 =============================

     Lanczos converged:  T threshold:   0.100E-02
     Est. extremal eigenvalues:    0.279E+01   0.169E+00
     Est. condition number :    0.165E+02
     NS sqrt iter    1 1.00000000   0.704E+00       0.001       64.512
     NS sqrt iter    2 1.00000000   0.331E+00       0.001      110.592
     NS sqrt iter    3 1.00000000   0.799E-01       0.001      110.592
     NS sqrt iter    4 1.00000000   0.242E-02       0.001      110.592
     NS sqrt iter    5 1.00000000   0.150E-06       0.001       77.440
     Final NS sqrt iter    5 1.00000000   0.104E-08

     Est. extremal eigenvalues     -0.92686     1.71107  converged:  T
     TRS4 it   1 1.00000000   0.897E+00       0.000       16.128   0.100E-07
     TRS4 it   2 1.00000000   0.634E+00       0.001       32.256   0.100E-07
     TRS4 it   3 1.00000000   0.438E+00       0.001       32.256   0.100E-07
     TRS4 it   4 1.00000000   0.235E+00       0.001       32.256   0.100E-07
     TRS4 it   5 1.00000000   0.830E-01       0.001       32.256   0.100E-07
     TRS4 it   6 1.00000000   0.123E-01       0.001       32.256   0.100E-07
     TRS4 it   7 1.00000000   0.327E-03       0.001       32.256   0.100E-07
     TRS4 it   8 1.00000000   0.312E-06       0.001       32.256   0.100E-07
     TRS4 it   9 1.00000000   0.388E-12       0.001       32.256   0.100E-07
     Final TRS4 iteration    9 1.00000000   0.388E-12
     Chemical potential (mu):      -0.00010
 
 PAO| energy:  -7.7177919229884475      penalty:   1.3123870941580938E-005
 PAO|CG| trace_G_new    3.7405599410452510E-002
 PAO|CG| trace_G_prev   0.16782161088999339     
 PAO|CG| trace_G_mix   -1.3832857746529309E-003
 PAO|CG| trace_D   0.16782161088999339     
 PAO|CG| trace_D_Gnew   1.3832857746529309E-003
 PAO|CG| beta:   0.23113164615331602     
 PAO| norm of gradient:  0.19340527244739869     
 PAO| energy improvement:  -1.9320526530288262E-002
 PAO| step      9                   -7.717791923  0.121E-01  0.233E+00     0.048
 PAO|LS| adapt:  T F F
 PAO|LS| adapt: scan_steps:    0.0000000000000000        0.0000000000000000        0.0000000000000000     
 PAO|LS| adapt: energies:   -7.7177919229884475        0.0000000000000000        0.0000000000000000     
 PAO| ======================= Iteration:        10 =============================

     Lanczos converged:  T threshold:   0.100E-02
     Est. extremal eigenvalues:    0.276E+01   0.175E+00
     Est. condition number :    0.158E+02
     NS sqrt iter    1 1.00000000   0.697E+00       0.001       64.512
     NS sqrt iter    2 1.00000000   0.323E+00       0.001      110.592
     NS sqrt iter    3 1.00000000   0.744E-01       0.001      110.592
     NS sqrt iter    4 1.00000000   0.197E-02       0.001      110.592
     NS sqrt iter    5 1.00000000   0.826E-07       0.001       72.704
     Final NS sqrt iter    5 1.00000000   0.700E-09

     Est. extremal eigenvalues     -0.92784     1.71119  converged:  T
     TRS4 it   1 1.00000000   0.897E+00       0.000       16.128   0.100E-07
     TRS4 it   2 1.00000000   0.634E+00       0.001       32.256   0.100E-07
     TRS4 it   3 1.00000000   0.437E+00       0.001       32.256   0.100E-07
     TRS4 it   4 1.00000000   0.233E+00       0.001       32.256   0.100E-07
     TRS4 it   5 1.00000000   0.812E-01       0.001       32.256   0.100E-07
     TRS4 it   6 1.00000000   0.117E-01       0.001       32.256   0.100E-07
     TRS4 it   7 1.00000000   0.291E-03       0.001       32.256   0.100E-07
     TRS4 it   8 1.00000000   0.236E-06       0.001       32.256   0.100E-07
     TRS4 it   9 1.00000000   0.211E-12       0.001       32.256   0.100E-07
     Final TRS4 iteration    9 1.00000000   0.211E-12
     Chemical potential (mu):       0.00350
 
 PAO| energy:  -7.7228144274634491      penalty:   1.3682390066407113E-005
 PAO|LS| adapt:  T T F
 PAO|LS| adapt: scan_steps:    0.0000000000000000       0.23267640639818149        0.0000000000000000     
 PAO|LS| adapt: energies:   -7.7177919229884475       -7.7228144274634491        0.0000000000000000     
 PAO| ======================= Iteration:        11 =============================

     Lanczos converged:  T threshold:   0.100E-02
     Est. extremal eigenvalues:    0.272E+01   0.181E+00
     Est. condition number :    0.150E+02
     NS sqrt iter    1 1.00000000   0.689E+00       0.001       64.512
     NS sqrt iter    2 1.00000000   0.315E+00       0.001      110.592
     NS sqrt iter    3 1.00000000   0.692E-01       0.001      110.592
     NS sqrt iter    4 1.00000000   0.160E-02       0.001      110.592
     NS sqrt iter    5 1.00000000   0.445E-07       0.001       67.584
     Final NS sqrt iter    5 1.00000000   0.651E-09

     Est. extremal eigenvalues     -0.92765     1.71198  converged:  T
     TRS4 it   1 1.00000000   0.897E+00       0.000       16.128   0.100E-07
     TRS4 it   2 1.00000000   0.634E+00       0.001       32.256   0.100E-07
     TRS4 it   3 1.00000000   0.437E+00       0.001       32.256   0.100E-07
     TRS4 it   4 1.00000000   0.231E+00       0.001       32.256   0.100E-07
     TRS4 it   5 1.00000000   0.795E-01       0.001       32.256   0.100E-07
     TRS4 it   6 1.00000000   0.111E-01       0.001       32.256   0.100E-07
     TRS4 it   7 1.00000000   0.257E-03       0.001       32.256   0.100E-07
     TRS4 it   8 1.00000000   0.176E-06       0.001       32.256   0.100E-07
     TRS4 it   9 1.00000000   0.110E-12       0.001       32.256   0.100E-07
     Final TRS4 iteration    9 1.00000000   0.110E-12
     Chemical potential (mu):       0.00716
 
 PAO| energy:  -7.7208939009684014      penalty:   1.4938906362725505E-005
 PAO|LS| adapt:  T T T
 PAO|LS| adapt: scan_steps:    0.0000000000000000       0.23267640639818149       0.46535281279636298     
 PAO|LS| adapt: energies:   -7.7177919229884475       -7.7228144274634491       -7.7208939009684014     
 PAO|LS| adapt: suggested step_size:   0.28465349624665448     
 PAO|LS| adapt: predicted energy  -7.7229876635369603     
 PAO| ======================= Iteration:        12 =============================

     Lanczos converged:  T threshold:   0.100E-02
     Est. extremal eigenvalues:    0.275E+01   0.176E+00
     Est. condition number :    0.156E+02
     NS sqrt iter    1 1.00000000   0.695E+00       0.001       64.512
     NS sqrt iter    2 1.00000000   0.321E+00       0.001      110.592
     NS sqrt iter    3 1.00000000   0.732E-01       0.001      110.592
     NS sqrt iter    4 1.00000000   0.188E-02       0.001      110.592
     NS sqrt iter    5 1.00000000   0.721E-07       0.001       71.040
     Final NS sqrt iter    5 1.00000000   0.506E-09

     Est. extremal eigenvalues     -0.92790     1.71131  converged:  T
     TRS4 it   1 1.00000000   0.897E+00       0.000       16.128   0.100E-07
     TRS4 it   2 1.00000000   0.634E+00       0.001       32.256   0.100E-07
     TRS4 it   3 1.00000000   0.437E+00       0.001       32.256   0.100E-07
     TRS4 it   4 1.00000000   0.232E+00       0.001       32.256   0.100E-07
     TRS4 it   5 1.00000000   0.809E-01       0.001       32.256   0.100E-07
     TRS4 it   6 1.00000000   0.116E-01       0.001       32.256   0.100E-07
     TRS4 it   7 1.00000000   0.283E-03       0.001       32.256   0.100E-07
     TRS4 it   8 1.00000000   0.221E-06       0.001       32.256   0.100E-07
     TRS4 it   9 1.00000000   0.184E-12       0.001       32.256   0.100E-07
     Final TRS4 iteration    9 1.00000000   0.184E-12
     Chemical potential (mu):       0.00431
 
 PAO| energy:  -7.7229730424048739      penalty:   1.3895578293983646E-005
 PAO|CG| trace_G_new    1.2563657351587300E-002
 PAO|CG| trace_G_prev    3.7405599410452510E-002
 PAO|CG| trace_G_mix   -5.1255236664697070E-004
 PAO|CG| trace_D    4.5731496059345927E-002
 PAO|CG| trace_D_Gnew   2.5249251659060774E-004
 PAO|CG| beta:   0.34957893802873519     
 PAO| norm of gradient:  0.11208772168077689     
 PAO| energy improvement:  -5.1811194164264052E-003
 PAO| step     12                   -7.722973042  0.701E-02  0.285E+00     0.050
 PAO|LS| adapt:  T F F
 PAO|LS| adapt: scan_steps:    0.0000000000000000        0.0000000000000000        0.0000000000000000     
 PAO|LS| adapt: energies:   -7.7229730424048739        0.0000000000000000        0.0000000000000000     
 PAO| ======================= Iteration:        13 =============================

     Lanczos converged:  T threshold:   0.100E-02
     Est. extremal eigenvalues:    0.272E+01   0.181E+00
     Est. condition number :    0.150E+02
     NS sqrt iter    1 1.00000000   0.688E+00       0.001       64.512
     NS sqrt iter    2 1.00000000   0.314E+00       0.001      110.592
     NS sqrt iter    3 1.00000000   0.690E-01       0.001      110.592
     NS sqrt iter    4 1.00000000   0.159E-02       0.001      110.592
     NS sqrt iter    5 1.00000000   0.437E-07       0.001       67.584
     Final NS sqrt iter    5 1.00000000   0.643E-09

     Est. extremal eigenvalues     -0.92848     1.70501  converged:  T
     TRS4 it   1 1.00000000   0.896E+00       0.000       16.128   0.100E-07
     TRS4 it   2 1.00000000   0.631E+00       0.001       32.256   0.100E-07
     TRS4 it   3 1.00000000   0.433E+00       0.001       32.256   0.100E-07
     TRS4 it   4 1.00000000   0.227E+00       0.001       32.256   0.100E-07
     TRS4 it   5 1.00000000   0.770E-01       0.001       32.256   0.100E-07
     TRS4 it   6 1.00000000   0.104E-01       0.001       32.256   0.100E-07
     TRS4 it   7 1.00000000   0.224E-03       0.001       32.256   0.100E-07
     TRS4 it   8 1.00000000   0.132E-06       0.001       32.256   0.100E-07
     TRS4 it   9 1.00000000   0.616E-13       0.001       32.256   0.100E-07
     Final TRS4 iteration    9 1.00000000   0.616E-13
     Chemical potential (mu):       0.00959
 
 PAO| energy:  -7.7251501395368321      penalty:   1.4232775874905498E-005
 PAO|LS| adapt:  T T F
 PAO|LS| adapt: scan_steps:    0.0000000000000000       0.28465349624665448        0.0000000000000000     
 PAO|LS| adapt: energies:   -7.7229730424048739       -7.7251501395368321        0.0000000000000000     
 PAO| ======================= Iteration:        14 =============================

     Lanczos converged:  T threshold:   0.100E-02
     Est. extremal eigenvalues:    0.268E+01   0.185E+00
     Est. condition number :    0.145E+02
     NS sqrt iter    1 1.00000000   0.682E+00       0.001       64.512
     NS sqrt iter    2 1.00000000   0.307E+00       0.001      110.592
     NS sqrt iter    3 1.00000000   0.651E-01       0.001      110.592
     NS sqrt iter    4 1.00000000   0.134E-02       0.001      110.592
     NS sqrt iter    5 1.00000000   0.261E-07       0.001       56.960
     Final NS sqrt iter    5 1.00000000   0.352E-08

     Est. extremal eigenvalues     -0.92850     1.69887  converged:  T
     TRS4 it   1 1.00000000   0.896E+00       0.000       16.128   0.100E-07
     TRS4 it   2 1.00000000   0.628E+00       0.001       32.256   0.100E-07
     TRS4 it   3 1.00000000   0.429E+00       0.001       32.256   0.100E-07
     TRS4 it   4 1.00000000   0.222E+00       0.001       32.256   0.100E-07
     TRS4 it   5 1.00000000   0.733E-01       0.001       32.256   0.100E-07
     TRS4 it   6 1.00000000   0.935E-02       0.001       32.256   0.100E-07
     TRS4 it   7 1.00000000   0.177E-03       0.001       32.256   0.100E-07
     TRS4 it   8 1.00000000   0.787E-07       0.001       32.256   0.100E-07
     Final TRS4 iteration    8 1.00000000   0.787E-07
     Chemical potential (mu):       0.00959
 
 PAO| energy:  -7.7246279386122527      penalty:   1.5049007833927896E-005
 PAO|LS| adapt:  T T T
 PAO|LS| adapt: scan_steps:    0.0000000000000000       0.28465349624665448       0.56930699249330896     
 PAO|LS| adapt: energies:   -7.7229730424048739       -7.7251501395368321       -7.7246279386122527     
 PAO|LS| adapt: suggested step_size:   0.37191173551645440     
 PAO|LS| adapt: predicted energy  -7.7252769633165643     
 PAO| ======================= Iteration:        15 =============================

     Lanczos converged:  T threshold:   0.100E-02
     Est. extremal eigenvalues:    0.271E+01   0.182E+00
     Est. condition number :    0.149E+02
     NS sqrt iter    1 1.00000000   0.686E+00       0.001       64.512
     NS sqrt iter    2 1.00000000   0.312E+00       0.001      110.592
     NS sqrt iter    3 1.00000000   0.678E-01       0.001      110.592
     NS sqrt iter    4 1.00000000   0.151E-02       0.001      110.592
     NS sqrt iter    5 1.00000000   0.373E-07       0.001       62.848
     Final NS sqrt iter    5 1.00000000   0.336E-08

     Est. extremal eigenvalues     -0.92854     1.70311  converged:  T
     TRS4 it   1 1.00000000   0.896E+00       0.000       16.128   0.100E-07
     TRS4 it   2 1.00000000   0.630E+00       0.001       32.256   0.100E-07
     TRS4 it   3 1.00000000   0.432E+00       0.001       32.256   0.100E-07
     TRS4 it   4 1.00000000   0.226E+00       0.001       32.256   0.100E-07
     TRS4 it   5 1.00000000   0.759E-01       0.001       32.256   0.100E-07
     TRS4 it   6 1.00000000   0.101E-01       0.001       32.256   0.100E-07
     TRS4 it   7 1.00000000   0.208E-03       0.001       32.256   0.100E-07
     TRS4 it   8 1.00000000   0.113E-06       0.001       32.256   0.100E-07
     TRS4 it   9 1.00000000   0.435E-13       0.001       32.256   0.100E-07
     Final TRS4 iteration    9 1.00000000   0.435E-13
     Chemical potential (mu):       0.01118
 
 PAO| energy:  -7.7252735614857011      penalty:   1.4428391332774604E-005
 PAO|CG| trace_G_new    2.5945184517391275E-003
 PAO|CG| trace_G_prev    1.2563657351587300E-002
 PAO|CG| trace_G_mix    1.0440694289824051E-004
 PAO|CG| trace_D    1.7975762539404066E-002
 PAO|CG| trace_D_Gnew   3.0862588279400708E-005
 PAO|CG| beta:   0.19819957192053514     
 PAO| norm of gradient:   5.0936415772403230E-002
 PAO| energy improvement:  -2.3005190808271792E-003
 PAO| step     15                   -7.725273561  0.318E-02  0.372E+00     0.048
 PAO|LS| adapt:  T F F
 PAO|LS| adapt: scan_steps:    0.0000000000000000        0.0000000000000000        0.0000000000000000     
 PAO|LS| adapt: energies:   -7.7252735614857011        0.0000000000000000        0.0000000000000000     
 PAO| ======================= Iteration:        16 =============================

     Lanczos converged:  T threshold:   0.100E-02
     Est. extremal eigenvalues:    0.270E+01   0.183E+00
     Est. condition number :    0.147E+02
     NS sqrt iter    1 1.00000000   0.684E+00       0.001       64.512
     NS sqrt iter    2 1.00000000   0.311E+00       0.001      110.592
     NS sqrt iter    3 1.00000000   0.672E-01       0.001      110.592
     NS sqrt iter    4 1.00000000   0.146E-02       0.001      110.592
     NS sqrt iter    5 1.00000000   0.334E-07       0.001       61.824
     Final NS sqrt iter    5 1.00000000   0.312E-08

     Est. extremal eigenvalues     -0.92858     1.70257  converged:  T
     TRS4 it   1 1.00000000   0.896E+00       0.000       16.128   0.100E-07
     TRS4 it   2 1.00000000   0.629E+00       0.001       32.256   0.100E-07
     TRS4 it   3 1.00000000   0.431E+00       0.001       32.256   0.100E-07
     TRS4 it   4 1.00000000   0.224E+00       0.001       32.256   0.100E-07
     TRS4 it   5 1.00000000   0.747E-01       0.001       32.256   0.100E-07
     TRS4 it   6 1.00000000   0.976E-02       0.001       32.256   0.100E-07
     TRS4 it   7 1.00000000   0.197E-03       0.001       32.256   0.100E-07
     TRS4 it   8 1.00000000   0.101E-06       0.001       32.256   0.100E-07
     TRS4 it   9 1.00000000   0.352E-13       0.001       32.256   0.100E-07
     Final TRS4 iteration    9 1.00000000   0.352E-13
     Chemical potential (mu):       0.01217
 
 PAO| energy:  -7.7254051221137097      penalty:   1.4232231858324270E-005
 PAO|LS| adapt:  T T F
 PAO|LS| adapt: scan_steps:    0.0000000000000000       0.37191173551645440        0.0000000000000000     
 PAO|LS| adapt: energies:   -7.7252735614857011       -7.7254051221137097        0.0000000000000000     
 PAO| ======================= Iteration:        17 =============================

     Lanczos converged:  T threshold:   0.100E-02
     Est. extremal eigenvalues:    0.269E+01   0.184E+00
     Est. condition number :    0.146E+02
     NS sqrt iter    1 1.00000000   0.683E+00       0.001       64.512
     NS sqrt iter    2 1.00000000   0.310E+00       0.001      110.592
     NS sqrt iter    3 1.00000000   0.667E-01       0.001      110.592
     NS sqrt iter    4 1.00000000   0.141E-02       0.001      110.592
     NS sqrt iter    5 1.00000000   0.299E-07       0.001       59.264
     Final NS sqrt iter    5 1.00000000   0.407E-08

     Est. extremal eigenvalues     -0.92847     1.70208  converged:  T
     TRS4 it   1 1.00000000   0.897E+00       0.000       16.128   0.100E-07
     TRS4 it   2 1.00000000   0.628E+00       0.001       32.256   0.100E-07
     TRS4 it   3 1.00000000   0.430E+00       0.001       32.256   0.100E-07
     TRS4 it   4 1.00000000   0.223E+00       0.001       32.256   0.100E-07
     TRS4 it   5 1.00000000   0.735E-01       0.001       32.256   0.100E-07
     TRS4 it   6 1.00000000   0.947E-02       0.001       32.256   0.100E-07
     TRS4 it   7 1.00000000   0.185E-03       0.001       32.256   0.100E-07
     TRS4 it   8 1.00000000   0.897E-07       0.001       32.256   0.100E-07
     TRS4 it   9 1.00000000   0.280E-13       0.001       32.256   0.100E-07
     Final TRS4 iteration    9 1.00000000   0.280E-13
     Chemical potential (mu):       0.01312
 
 PAO| energy:  -7.7238675430101331      penalty:   1.4152162184632009E-005
 PAO|LS| adapt:  T T T
 PAO|LS| adapt: scan_steps:    0.0000000000000000       0.37191173551645440       0.74382347103290880     
 PAO|LS| adapt: energies:   -7.7252735614857011       -7.7254051221137097       -7.7238675430101331     
 PAO|LS| adapt: suggested step_size:   0.21526973559230855     
 PAO|LS| adapt: predicted energy  -7.7255531690324482     
 PAO| ======================= Iteration:        18 =============================

     Lanczos converged:  T threshold:   0.100E-02
     Est. extremal eigenvalues:    0.270E+01   0.183E+00
     Est. condition number :    0.148E+02
     NS sqrt iter    1 1.00000000   0.685E+00       0.001       64.512
     NS sqrt iter    2 1.00000000   0.312E+00       0.001      110.592
     NS sqrt iter    3 1.00000000   0.675E-01       0.001      110.592
     NS sqrt iter    4 1.00000000   0.148E-02       0.001      110.592
     NS sqrt iter    5 1.00000000   0.350E-07       0.001       62.336
     Final NS sqrt iter    5 1.00000000   0.324E-08

     Est. extremal eigenvalues     -0.92858     1.70279  converged:  T
     TRS4 it   1 1.00000000   0.896E+00       0.000       16.128   0.100E-07
     TRS4 it   2 1.00000000   0.630E+00       0.001       32.256   0.100E-07
     TRS4 it   3 1.00000000   0.431E+00       0.001       32.256   0.100E-07
     TRS4 it   4 1.00000000   0.225E+00       0.001       32.256   0.100E-07
     TRS4 it   5 1.00000000   0.752E-01       0.001       32.256   0.100E-07
     TRS4 it   6 1.00000000   0.989E-02       0.001       32.256   0.100E-07
     TRS4 it   7 1.00000000   0.201E-03       0.001       32.256   0.100E-07
     TRS4 it   8 1.00000000   0.105E-06       0.001       32.256   0.100E-07
     TRS4 it   9 1.00000000   0.384E-13       0.001       32.256   0.100E-07
     Final TRS4 iteration    9 1.00000000   0.384E-13
     Chemical potential (mu):       0.01175
 
 PAO| energy:  -7.7255525912170082      penalty:   1.4300964505312893E-005
 PAO|CG| trace_G_new    7.7620389293094495E-004
 PAO|CG| trace_G_prev    2.5945184517391275E-003
 PAO|CG| trace_G_mix    1.6406697640557176E-006
 PAO|CG| trace_D    3.2884276918704420E-003
 PAO|CG| trace_D_Gnew  -2.1818974422516264E-006
 PAO|CG| beta:   0.29853833671820407     
 PAO| norm of gradient:   2.7860435978838253E-002
 PAO| energy improvement:  -2.7902973130711217E-004
 PAO| step     18                   -7.725552591  0.174E-02  0.215E+00     0.048
 PAO|LS| adapt:  T F F
 PAO|LS| adapt: scan_steps:    0.0000000000000000        0.0000000000000000        0.0000000000000000     
 PAO|LS| adapt: energies:   -7.7255525912170082        0.0000000000000000        0.0000000000000000     
 PAO| ======================= Iteration:        19 =============================

     Lanczos converged:  T threshold:   0.100E-02
     Est. extremal eigenvalues:    0.270E+01   0.183E+00
     Est. condition number :    0.148E+02
     NS sqrt iter    1 1.00000000   0.685E+00       0.001       64.512
     NS sqrt iter    2 1.00000000   0.312E+00       0.001      110.592
     NS sqrt iter    3 1.00000000   0.676E-01       0.001      110.592
     NS sqrt iter    4 1.00000000   0.148E-02       0.001      110.592
     NS sqrt iter    5 1.00000000   0.350E-07       0.001       62.336
     Final NS sqrt iter    5 1.00000000   0.329E-08

     Est. extremal eigenvalues     -0.92858     1.70284  converged:  T
     TRS4 it   1 1.00000000   0.896E+00       0.000       16.128   0.100E-07
     TRS4 it   2 1.00000000   0.629E+00       0.001       32.256   0.100E-07
     TRS4 it   3 1.00000000   0.431E+00       0.001       32.256   0.100E-07
     TRS4 it   4 1.00000000   0.225E+00       0.001       32.256   0.100E-07
     TRS4 it   5 1.00000000   0.750E-01       0.001       32.256   0.100E-07
     TRS4 it   6 1.00000000   0.987E-02       0.001       32.256   0.100E-07
     TRS4 it   7 1.00000000   0.202E-03       0.001       32.256   0.100E-07
     TRS4 it   8 1.00000000   0.107E-06       0.001       32.256   0.100E-07
     TRS4 it   9 1.00000000   0.392E-13       0.001       32.256   0.100E-07
     Final TRS4 iteration    9 1.00000000   0.392E-13
     Chemical potential (mu):       0.01154
 
 PAO| energy:  -7.7256789147154361      penalty:   1.4023844277706387E-005
 PAO|LS| adapt:  T T F
 PAO|LS| adapt: scan_steps:    0.0000000000000000       0.21526973559230855        0.0000000000000000     
 PAO|LS| adapt: energies:   -7.7255525912170082       -7.7256789147154361        0.0000000000000000     
 PAO| ======================= Iteration:        20 =============================

     Lanczos converged:  T threshold:   0.100E-02
     Est. extremal eigenvalues:    0.270E+01   0.183E+00
     Est. condition number :    0.148E+02
     NS sqrt iter    1 1.00000000   0.685E+00       0.001       64.512
     NS sqrt iter    2 1.00000000   0.312E+00       0.001      110.592
     NS sqrt iter    3 1.00000000   0.678E-01       0.001      110.592
     NS sqrt iter    4 1.00000000   0.149E-02       0.001      110.592
     NS sqrt iter    5 1.00000000   0.349E-07       0.001       62.208
     Final NS sqrt iter    5 1.00000000   0.334E-08

     Est. extremal eigenvalues     -0.92858     1.70290  converged:  T
     TRS4 it   1 1.00000000   0.896E+00       0.000       16.128   0.100E-07
     TRS4 it   2 1.00000000   0.629E+00       0.001       32.256   0.100E-07
     TRS4 it   3 1.00000000   0.431E+00       0.001       32.256   0.100E-07
     TRS4 it   4 1.00000000   0.225E+00       0.001       32.256   0.100E-07
     TRS4 it   5 1.00000000   0.749E-01       0.001       32.256   0.100E-07
     TRS4 it   6 1.00000000   0.986E-02       0.001       32.256   0.100E-07
     TRS4 it   7 1.00000000   0.202E-03       0.001       32.256   0.100E-07
     TRS4 it   8 1.00000000   0.108E-06       0.001       32.256   0.100E-07
     TRS4 it   9 1.00000000   0.413E-13       0.001       32.256   0.100E-07
     Final TRS4 iteration    9 1.00000000   0.413E-13
     Chemical potential (mu):       0.01133
 
 PAO| energy:  -7.7257229103649712      penalty:   1.3759579107893402E-005
 PAO|LS| adapt:  T T F
 PAO|LS| adapt: scan_steps:    0.0000000000000000       0.43053947118461711        0.0000000000000000     
 PAO|LS| adapt: energies:   -7.7255525912170082       -7.7257229103649712        0.0000000000000000     
 PAO| ======================= Iteration:        21 =============================

     Lanczos converged:  T threshold:   0.100E-02
     Est. extremal eigenvalues:    0.270E+01   0.183E+00
     Est. condition number :    0.148E+02
     NS sqrt iter    1 1.00000000   0.685E+00       0.001       64.512
     NS sqrt iter    2 1.00000000   0.312E+00       0.001      110.592
     NS sqrt iter    3 1.00000000   0.682E-01       0.001      110.592
     NS sqrt iter    4 1.00000000   0.150E-02       0.001      110.592
     NS sqrt iter    5 1.00000000   0.349E-07       0.001       62.080
     Final NS sqrt iter    5 1.00000000   0.406E-08

     Est. extremal eigenvalues     -0.92857     1.70302  converged:  T
     TRS4 it   1 1.00000000   0.896E+00       0.000       16.128   0.100E-07
     TRS4 it   2 1.00000000   0.629E+00       0.001       32.256   0.100E-07
     TRS4 it   3 1.00000000   0.431E+00       0.001       32.256   0.100E-07
     TRS4 it   4 1.00000000   0.224E+00       0.001       32.256   0.100E-07
     TRS4 it   5 1.00000000   0.746E-01       0.001       32.256   0.100E-07
     TRS4 it   6 1.00000000   0.982E-02       0.001       32.256   0.100E-07
     TRS4 it   7 1.00000000   0.202E-03       0.001       32.256   0.100E-07
     TRS4 it   8 1.00000000   0.110E-06       0.001       32.256   0.100E-07
     TRS4 it   9 1.00000000   0.424E-13       0.001       32.256   0.100E-07
     Final TRS4 iteration    9 1.00000000   0.424E-13
     Chemical potential (mu):       0.01089
 
 PAO| energy:  -7.7255609063755939      penalty:   1.3269139906422584E-005
 PAO|LS| Need extra step
 PAO|LS| adapt:  T T T
 PAO|LS| adapt: scan_steps:    0.0000000000000000       0.43053947118461711       0.86107894236923421     
 PAO|LS| adapt: energies:   -7.7255525912170082       -7.7257229103649712       -7.7255609063755939     
 PAO|LS| adapt: suggested step_size:   0.43592580090115191     
 PAO|LS| adapt: predicted energy  -7.7257229363719864     
 PAO| ======================= Iteration:        22 =============================

     Lanczos converged:  T threshold:   0.100E-02
     Est. extremal eigenvalues:    0.270E+01   0.183E+00
     Est. condition number :    0.148E+02
     NS sqrt iter    1 1.00000000   0.685E+00       0.001       64.512
     NS sqrt iter    2 1.00000000   0.312E+00       0.001      110.592
     NS sqrt iter    3 1.00000000   0.678E-01       0.001      110.592
     NS sqrt iter    4 1.00000000   0.149E-02       0.001      110.592
     NS sqrt iter    5 1.00000000   0.349E-07       0.001       62.208
     Final NS sqrt iter    5 1.00000000   0.334E-08

     Est. extremal eigenvalues     -0.92858     1.70290  converged:  T
     TRS4 it   1 1.00000000   0.896E+00       0.000       16.128   0.100E-07
     TRS4 it   2 1.00000000   0.629E+00       0.001       32.256   0.100E-07
     TRS4 it   3 1.00000000   0.431E+00       0.001       32.256   0.100E-07
     TRS4 it   4 1.00000000   0.225E+00       0.001       32.256   0.100E-07
     TRS4 it   5 1.00000000   0.749E-01       0.001       32.256   0.100E-07
     TRS4 it   6 1.00000000   0.986E-02       0.001       32.256   0.100E-07
     TRS4 it   7 1.00000000   0.202E-03       0.001       32.256   0.100E-07
     TRS4 it   8 1.00000000   0.108E-06       0.001       32.256   0.100E-07
     TRS4 it   9 1.00000000   0.400E-13       0.001       32.256   0.100E-07
     Final TRS4 iteration    9 1.00000000   0.400E-13
     Chemical potential (mu):       0.01132
 
 PAO| energy:  -7.7257229489726491      penalty:   1.3753130292285460E-005
 PAO|CG| trace_G_new    2.2274601968061511E-004
 PAO|CG| trace_G_prev    7.7620389293094495E-004
 PAO|CG| trace_G_mix    4.0624767309760468E-006
 PAO|CG| trace_D    1.0705882264513992E-003
 PAO|CG| trace_D_Gnew  -2.3278038070734368E-006
 PAO|CG| beta:   0.28173466397326385     
 PAO| norm of gradient:   1.4924678210286984E-002
 PAO| energy improvement:  -1.7035775564089306E-004
 PAO| step     22                   -7.725722949  0.933E-03  0.436E+00     0.062
 PAO|LS| adapt:  T F F
 PAO|LS| adapt: scan_steps:    0.0000000000000000        0.0000000000000000        0.0000000000000000     
 PAO|LS| adapt: energies:   -7.7257229489726491        0.0000000000000000        0.0000000000000000     
 PAO| ======================= Iteration:        23 =============================

     Lanczos converged:  T threshold:   0.100E-02
     Est. extremal eigenvalues:    0.270E+01   0.183E+00
     Est. condition number :    0.148E+02
     NS sqrt iter    1 1.00000000   0.685E+00       0.001       64.512
     NS sqrt iter    2 1.00000000   0.312E+00       0.001      110.592
     NS sqrt iter    3 1.00000000   0.678E-01       0.001      110.592
     NS sqrt iter    4 1.00000000   0.148E-02       0.001      110.592
     NS sqrt iter    5 1.00000000   0.345E-07       0.001       62.080
     Final NS sqrt iter    5 1.00000000   0.332E-08

     Est. extremal eigenvalues     -0.92858     1.70288  converged:  T
     TRS4 it   1 1.00000000   0.896E+00       0.000       16.128   0.100E-07
     TRS4 it   2 1.00000000   0.629E+00       0.001       32.256   0.100E-07
     TRS4 it   3 1.00000000   0.431E+00       0.001       32.256   0.100E-07
     TRS4 it   4 1.00000000   0.225E+00       0.001       32.256   0.100E-07
     TRS4 it   5 1.00000000   0.750E-01       0.001       32.256   0.100E-07
     TRS4 it   6 1.00000000   0.990E-02       0.001       32.256   0.100E-07
     TRS4 it   7 1.00000000   0.204E-03       0.001       32.256   0.100E-07
     TRS4 it   8 1.00000000   0.110E-06       0.001       32.256   0.100E-07
     TRS4 it   9 1.00000000   0.427E-13       0.001       32.256   0.100E-07
     Final TRS4 iteration    9 1.00000000   0.427E-13
     Chemical potential (mu):       0.01108
 
 PAO| energy:  -7.7257665859413667      penalty:   1.3129903521922660E-005
 PAO|LS| adapt:  T T F
 PAO|LS| adapt: scan_steps:    0.0000000000000000       0.43592580090115191        0.0000000000000000     
 PAO|LS| adapt: energies:   -7.7257229489726491       -7.7257665859413667        0.0000000000000000     
 PAO| ======================= Iteration:        24 =============================

     Lanczos converged:  T threshold:   0.100E-02
     Est. extremal eigenvalues:    0.270E+01   0.183E+00
     Est. condition number :    0.148E+02
     NS sqrt iter    1 1.00000000   0.685E+00       0.001       64.512
     NS sqrt iter    2 1.00000000   0.312E+00       0.001      110.592
     NS sqrt iter    3 1.00000000   0.678E-01       0.001      110.592
     NS sqrt iter    4 1.00000000   0.148E-02       0.001      110.592
     NS sqrt iter    5 1.00000000   0.341E-07       0.001       61.952
     Final NS sqrt iter    5 1.00000000   0.330E-08

     Est. extremal eigenvalues     -0.92858     1.70285  converged:  T
     TRS4 it   1 1.00000000   0.896E+00       0.000       16.128   0.100E-07
     TRS4 it   2 1.00000000   0.630E+00       0.001       32.256   0.100E-07
     TRS4 it   3 1.00000000   0.431E+00       0.001       32.256   0.100E-07
     TRS4 it   4 1.00000000   0.225E+00       0.001       32.256   0.100E-07
     TRS4 it   5 1.00000000   0.752E-01       0.001       32.256   0.100E-07
     TRS4 it   6 1.00000000   0.995E-02       0.001       32.256   0.100E-07
     TRS4 it   7 1.00000000   0.206E-03       0.001       32.256   0.100E-07
     TRS4 it   8 1.00000000   0.113E-06       0.001       32.256   0.100E-07
     TRS4 it   9 1.00000000   0.443E-13       0.001       32.256   0.100E-07
     Final TRS4 iteration    9 1.00000000   0.443E-13
     Chemical potential (mu):       0.01083
 
 PAO| energy:  -7.7257021362884268      penalty:   1.2531769101443941E-005
 PAO|LS| adapt:  T T T
 PAO|LS| adapt: scan_steps:    0.0000000000000000       0.43592580090115191       0.87185160180230381     
 PAO|LS| adapt: energies:   -7.7257229489726491       -7.7257665859413667       -7.7257021362884268     
 PAO|LS| adapt: suggested step_size:   0.39395582395407797     
 PAO|LS| adapt: predicted energy  -7.7257670868912269     
 PAO| ======================= Iteration:        25 =============================

     Lanczos converged:  T threshold:   0.100E-02
     Est. extremal eigenvalues:    0.270E+01   0.183E+00
     Est. condition number :    0.148E+02
     NS sqrt iter    1 1.00000000   0.685E+00       0.001       64.512
     NS sqrt iter    2 1.00000000   0.312E+00       0.001      110.592
     NS sqrt iter    3 1.00000000   0.678E-01       0.001      110.592
     NS sqrt iter    4 1.00000000   0.148E-02       0.001      110.592
     NS sqrt iter    5 1.00000000   0.346E-07       0.001       62.080
     Final NS sqrt iter    5 1.00000000   0.332E-08

     Est. extremal eigenvalues     -0.92858     1.70288  converged:  T
     TRS4 it   1 1.00000000   0.896E+00       0.000       16.128   0.100E-07
     TRS4 it   2 1.00000000   0.629E+00       0.001       32.256   0.100E-07
     TRS4 it   3 1.00000000   0.431E+00       0.001       32.256   0.100E-07
     TRS4 it   4 1.00000000   0.225E+00       0.001       32.256   0.100E-07
     TRS4 it   5 1.00000000   0.750E-01       0.001       32.256   0.100E-07
     TRS4 it   6 1.00000000   0.990E-02       0.001       32.256   0.100E-07
     TRS4 it   7 1.00000000   0.204E-03       0.001       32.256   0.100E-07
     TRS4 it   8 1.00000000   0.110E-06       0.001       32.256   0.100E-07
     TRS4 it   9 1.00000000   0.421E-13       0.001       32.256   0.100E-07
     Final TRS4 iteration    9 1.00000000   0.421E-13
     Chemical potential (mu):       0.01110
 
 PAO| energy:  -7.7257670730332872      penalty:   1.3188806701516871E-005
 PAO|CG| trace_G_new    7.2884017503578179E-005
 PAO|CG| trace_G_prev    2.2274601968061511E-004
 PAO|CG| trace_G_mix    3.4276582497863480E-007
 PAO|CG| trace_D    3.0903498620732362E-004
 PAO|CG| trace_D_Gnew  -3.1992640185446275E-007
 PAO|CG| beta:   0.32566800422567815     
 PAO| norm of gradient:   8.5372136850132892E-003
 PAO| energy improvement:  -4.4124060638139895E-005
 PAO| step     25                   -7.725767073  0.534E-03  0.394E+00     0.048
 PAO|LS| adapt:  T F F
 PAO|LS| adapt: scan_steps:    0.0000000000000000        0.0000000000000000        0.0000000000000000     
 PAO|LS| adapt: energies:   -7.7257670730332872        0.0000000000000000        0.0000000000000000     
 PAO| ======================= Iteration:        26 =============================

     Lanczos converged:  T threshold:   0.100E-02
     Est. extremal eigenvalues:    0.270E+01   0.183E+00
     Est. condition number :    0.148E+02
     NS sqrt iter    1 1.00000000   0.685E+00       0.001       64.512
     NS sqrt iter    2 1.00000000   0.312E+00       0.001      110.592
     NS sqrt iter    3 1.00000000   0.677E-01       0.001      110.592
     NS sqrt iter    4 1.00000000   0.148E-02       0.001      110.592
     NS sqrt iter    5 1.00000000   0.342E-07       0.001       61.952
     Final NS sqrt iter    5 1.00000000   0.325E-08

     Est. extremal eigenvalues     -0.92858     1.70259  converged:  T
     TRS4 it   1 1.00000000   0.896E+00       0.000       16.128   0.100E-07
     TRS4 it   2 1.00000000   0.629E+00       0.001       32.256   0.100E-07
     TRS4 it   3 1.00000000   0.431E+00       0.001       32.256   0.100E-07
     TRS4 it   4 1.00000000   0.225E+00       0.001       32.256   0.100E-07
     TRS4 it   5 1.00000000   0.750E-01       0.001       32.256   0.100E-07
     TRS4 it   6 1.00000000   0.988E-02       0.001       32.256   0.100E-07
     TRS4 it   7 1.00000000   0.203E-03       0.001       32.256   0.100E-07
     TRS4 it   8 1.00000000   0.109E-06       0.001       32.256   0.100E-07
     TRS4 it   9 1.00000000   0.410E-13       0.001       32.256   0.100E-07
     Final TRS4 iteration    9 1.00000000   0.410E-13
     Chemical potential (mu):       0.01121
 
 PAO| energy:  -7.7257724519450983      penalty:   1.2593174549778939E-005
 PAO|LS| adapt:  T T F
 PAO|LS| adapt: scan_steps:    0.0000000000000000       0.39395582395407797        0.0000000000000000     
 PAO|LS| adapt: energies:   -7.7257670730332872       -7.7257724519450983        0.0000000000000000     
 PAO| ======================= Iteration:        27 =============================

     Lanczos converged:  T threshold:   0.100E-02
     Est. extremal eigenvalues:    0.270E+01   0.183E+00
     Est. condition number :    0.147E+02
     NS sqrt iter    1 1.00000000   0.685E+00       0.001       64.512
     NS sqrt iter    2 1.00000000   0.312E+00       0.001      110.592
     NS sqrt iter    3 1.00000000   0.677E-01       0.001      110.592
     NS sqrt iter    4 1.00000000   0.147E-02       0.001      110.592
     NS sqrt iter    5 1.00000000   0.339E-07       0.001       61.824
     Final NS sqrt iter    5 1.00000000   0.318E-08

     Est. extremal eigenvalues     -0.92858     1.70229  converged:  T
     TRS4 it   1 1.00000000   0.896E+00       0.000       16.128   0.100E-07
     TRS4 it   2 1.00000000   0.629E+00       0.001       32.256   0.100E-07
     TRS4 it   3 1.00000000   0.431E+00       0.001       32.256   0.100E-07
     TRS4 it   4 1.00000000   0.224E+00       0.001       32.256   0.100E-07
     TRS4 it   5 1.00000000   0.749E-01       0.001       32.256   0.100E-07
     TRS4 it   6 1.00000000   0.987E-02       0.001       32.256   0.100E-07
     TRS4 it   7 1.00000000   0.202E-03       0.001       32.256   0.100E-07
     TRS4 it   8 1.00000000   0.108E-06       0.001       32.256   0.100E-07
     TRS4 it   9 1.00000000   0.404E-13       0.001       32.256   0.100E-07
     Final TRS4 iteration    9 1.00000000   0.404E-13
     Chemical potential (mu):       0.01133
 
 PAO| energy:  -7.7257310116657614      penalty:   1.2013980624107275E-005
 PAO|LS| adapt:  T T T
 PAO|LS| adapt: scan_steps:    0.0000000000000000       0.39395582395407797       0.78791164790815593     
 PAO|LS| adapt: energies:   -7.7257670730332872       -7.7257724519450983       -7.7257310116657614     
 PAO|LS| adapt: suggested step_size:   0.24223827599758846     
 PAO|LS| adapt: predicted energy  -7.7257759238713426     
 PAO| ======================= Iteration:        28 =============================

     Lanczos converged:  T threshold:   0.100E-02
     Est. extremal eigenvalues:    0.270E+01   0.183E+00
     Est. condition number :    0.148E+02
     NS sqrt iter    1 1.00000000   0.685E+00       0.001       64.512
     NS sqrt iter    2 1.00000000   0.312E+00       0.001      110.592
     NS sqrt iter    3 1.00000000   0.678E-01       0.001      110.592
     NS sqrt iter    4 1.00000000   0.148E-02       0.001      110.592
     NS sqrt iter    5 1.00000000   0.343E-07       0.001       62.080
     Final NS sqrt iter    5 1.00000000   0.328E-08

     Est. extremal eigenvalues     -0.92858     1.70270  converged:  T
     TRS4 it   1 1.00000000   0.896E+00       0.000       16.128   0.100E-07
     TRS4 it   2 1.00000000   0.629E+00       0.001       32.256   0.100E-07
     TRS4 it   3 1.00000000   0.431E+00       0.001       32.256   0.100E-07
     TRS4 it   4 1.00000000   0.225E+00       0.001       32.256   0.100E-07
     TRS4 it   5 1.00000000   0.750E-01       0.001       32.256   0.100E-07
     TRS4 it   6 1.00000000   0.989E-02       0.001       32.256   0.100E-07
     TRS4 it   7 1.00000000   0.203E-03       0.001       32.256   0.100E-07
     TRS4 it   8 1.00000000   0.109E-06       0.001       32.256   0.100E-07
     TRS4 it   9 1.00000000   0.424E-13       0.001       32.256   0.100E-07
     Final TRS4 iteration    9 1.00000000   0.424E-13
     Chemical potential (mu):       0.01117
 
 PAO| energy:  -7.7257759184281944      penalty:   1.2820604549655314E-005
 PAO|CG| trace_G_new    2.4541854546211761E-005
 PAO|CG| trace_G_prev    7.2884017503578179E-005
 PAO|CG| trace_G_mix    4.7714736726275347E-008
 PAO|CG| trace_D    1.0586853924771596E-004
 PAO|CG| trace_D_Gnew  -2.2739680944833655E-008
 PAO|CG| beta:   0.33607011040908891     
 PAO| norm of gradient:   4.9539736117799171E-003
 PAO| energy improvement:  -8.8453949071976012E-006
 PAO| step     28                   -7.725775918  0.310E-03  0.242E+00     0.049
 PAO|LS| adapt:  T F F
 PAO|LS| adapt: scan_steps:    0.0000000000000000        0.0000000000000000        0.0000000000000000     
 PAO|LS| adapt: energies:   -7.7257759184281944        0.0000000000000000        0.0000000000000000     
 PAO| ======================= Iteration:        29 =============================

     Lanczos converged:  T threshold:   0.100E-02
     Est. extremal eigenvalues:    0.270E+01   0.183E+00
     Est. condition number :    0.148E+02
     NS sqrt iter    1 1.00000000   0.685E+00       0.001       64.512
     NS sqrt iter    2 1.00000000   0.312E+00       0.001      110.592
     NS sqrt iter    3 1.00000000   0.677E-01       0.001      110.592
     NS sqrt iter    4 1.00000000   0.148E-02       0.001      110.592
     NS sqrt iter    5 1.00000000   0.343E-07       0.001       61.952
     Final NS sqrt iter    5 1.00000000   0.324E-08

     Est. extremal eigenvalues     -0.92858     1.70268  converged:  T
     TRS4 it   1 1.00000000   0.896E+00       0.000       16.128   0.100E-07
     TRS4 it   2 1.00000000   0.629E+00       0.001       32.256   0.100E-07
     TRS4 it   3 1.00000000   0.431E+00       0.001       32.256   0.100E-07
     TRS4 it   4 1.00000000   0.225E+00       0.001       32.256   0.100E-07
     TRS4 it   5 1.00000000   0.749E-01       0.001       32.256   0.100E-07
     TRS4 it   6 1.00000000   0.987E-02       0.001       32.256   0.100E-07
     TRS4 it   7 1.00000000   0.202E-03       0.001       32.256   0.100E-07
     TRS4 it   8 1.00000000   0.108E-06       0.001       32.256   0.100E-07
     TRS4 it   9 1.00000000   0.416E-13       0.001       32.256   0.100E-07
     Final TRS4 iteration    9 1.00000000   0.416E-13
     Chemical potential (mu):       0.01129
 
 PAO| energy:  -7.7257811819502376      penalty:   1.2447872827765040E-005
 PAO|LS| adapt:  T T F
 PAO|LS| adapt: scan_steps:    0.0000000000000000       0.24223827599758846        0.0000000000000000     
 PAO|LS| adapt: energies:   -7.7257759184281944       -7.7257811819502376        0.0000000000000000     
 PAO| ======================= Iteration:        30 =============================

     Lanczos converged:  T threshold:   0.100E-02
     Est. extremal eigenvalues:    0.270E+01   0.183E+00
     Est. condition number :    0.148E+02
     NS sqrt iter    1 1.00000000   0.685E+00       0.001       64.512
     NS sqrt iter    2 1.00000000   0.312E+00       0.001      110.592
     NS sqrt iter    3 1.00000000   0.677E-01       0.001      110.592
     NS sqrt iter    4 1.00000000   0.148E-02       0.001      110.592
     NS sqrt iter    5 1.00000000   0.342E-07       0.001       61.952
     Final NS sqrt iter    5 1.00000000   0.320E-08

     Est. extremal eigenvalues     -0.92858     1.70266  converged:  T
     TRS4 it   1 1.00000000   0.896E+00       0.000       16.128   0.100E-07
     TRS4 it   2 1.00000000   0.629E+00       0.001       32.256   0.100E-07
     TRS4 it   3 1.00000000   0.431E+00       0.001       32.256   0.100E-07
     TRS4 it   4 1.00000000   0.224E+00       0.001       32.256   0.100E-07
     TRS4 it   5 1.00000000   0.749E-01       0.001       32.256   0.100E-07
     TRS4 it   6 1.00000000   0.985E-02       0.001       32.256   0.100E-07
     TRS4 it   7 1.00000000   0.202E-03       0.001       32.256   0.100E-07
     TRS4 it   8 1.00000000   0.107E-06       0.001       32.256   0.100E-07
     TRS4 it   9 1.00000000   0.397E-13       0.001       32.256   0.100E-07
     Final TRS4 iteration    9 1.00000000   0.397E-13
     Chemical potential (mu):       0.01141
 
 PAO| energy:  -7.7257850792027787      penalty:   1.2081110497552787E-005
 PAO|LS| adapt:  T T F
 PAO|LS| adapt: scan_steps:    0.0000000000000000       0.48447655199517692        0.0000000000000000     
 PAO|LS| adapt: energies:   -7.7257759184281944       -7.7257850792027787        0.0000000000000000     
 PAO| ======================= Iteration:        31 =============================

     Lanczos converged:  T threshold:   0.100E-02
     Est. extremal eigenvalues:    0.270E+01   0.183E+00
     Est. condition number :    0.148E+02
     NS sqrt iter    1 1.00000000   0.684E+00       0.001       64.512
     NS sqrt iter    2 1.00000000   0.312E+00       0.001      110.592
     NS sqrt iter    3 1.00000000   0.676E-01       0.001      110.592
     NS sqrt iter    4 1.00000000   0.148E-02       0.001      110.592
     NS sqrt iter    5 1.00000000   0.341E-07       0.001       61.952
     Final NS sqrt iter    5 1.00000000   0.238E-08

     Est. extremal eigenvalues     -0.92859     1.70262  converged:  T
     TRS4 it   1 1.00000000   0.897E+00       0.000       16.128   0.100E-07
     TRS4 it   2 1.00000000   0.629E+00       0.001       32.256   0.100E-07
     TRS4 it   3 1.00000000   0.431E+00       0.001       32.256   0.100E-07
     TRS4 it   4 1.00000000   0.224E+00       0.001       32.256   0.100E-07
     TRS4 it   5 1.00000000   0.747E-01       0.001       32.256   0.100E-07
     TRS4 it   6 1.00000000   0.981E-02       0.001       32.256   0.100E-07
     TRS4 it   7 1.00000000   0.200E-03       0.001       32.256   0.100E-07
     TRS4 it   8 1.00000000   0.105E-06       0.001       32.256   0.100E-07
     TRS4 it   9 1.00000000   0.379E-13       0.001       32.256   0.100E-07
     Final TRS4 iteration    9 1.00000000   0.379E-13
     Chemical potential (mu):       0.01164
 
 PAO| energy:  -7.7257887769643947      penalty:   1.1365409935980327E-005
 PAO|LS| Need extra step
 PAO|LS| adapt:  T T F
 PAO|LS| adapt: scan_steps:    0.0000000000000000       0.96895310399035384        0.0000000000000000     
 PAO|LS| adapt: energies:   -7.7257759184281944       -7.7257887769643947        0.0000000000000000     
 PAO| ======================= Iteration:        32 =============================

     Lanczos converged:  T threshold:   0.100E-02
     Est. extremal eigenvalues:    0.270E+01   0.183E+00
     Est. condition number :    0.148E+02
     NS sqrt iter    1 1.00000000   0.684E+00       0.001       64.512
     NS sqrt iter    2 1.00000000   0.311E+00       0.001      110.592
     NS sqrt iter    3 1.00000000   0.674E-01       0.001      110.592
     NS sqrt iter    4 1.00000000   0.147E-02       0.001      110.592
     NS sqrt iter    5 1.00000000   0.338E-07       0.001       60.032
     Final NS sqrt iter    5 1.00000000   0.415E-08

     Est. extremal eigenvalues     -0.92859     1.70252  converged:  T
     TRS4 it   1 1.00000000   0.897E+00       0.000       16.128   0.100E-07
     TRS4 it   2 1.00000000   0.629E+00       0.001       32.256   0.100E-07
     TRS4 it   3 1.00000000   0.431E+00       0.001       32.256   0.100E-07
     TRS4 it   4 1.00000000   0.224E+00       0.001       32.256   0.100E-07
     TRS4 it   5 1.00000000   0.745E-01       0.001       32.256   0.100E-07
     TRS4 it   6 1.00000000   0.974E-02       0.001       32.256   0.100E-07
     TRS4 it   7 1.00000000   0.197E-03       0.001       32.256   0.100E-07
     TRS4 it   8 1.00000000   0.101E-06       0.001       32.256   0.100E-07
     TRS4 it   9 1.00000000   0.335E-13       0.001       32.256   0.100E-07
     Final TRS4 iteration    9 1.00000000   0.335E-13
     Chemical potential (mu):       0.01209
 
 PAO| energy:  -7.7257797960090651      penalty:   1.0004720331644977E-005
 PAO|LS| Need extra step
 PAO|LS| adapt:  T T T
 PAO|LS| adapt: scan_steps:    0.0000000000000000       0.96895310399035384        1.9379062079807077     
 PAO|LS| adapt: energies:   -7.7257759184281944       -7.7257887769643947       -7.7257797960090651     
 PAO|LS| adapt: suggested step_size:    1.0549714532594447     
 PAO|LS| adapt: predicted energy  -7.7257888630219922     
 PAO| ======================= Iteration:        33 =============================

     Lanczos converged:  T threshold:   0.100E-02
     Est. extremal eigenvalues:    0.270E+01   0.183E+00
     Est. condition number :    0.148E+02
     NS sqrt iter    1 1.00000000   0.684E+00       0.001       64.512
     NS sqrt iter    2 1.00000000   0.311E+00       0.001      110.592
     NS sqrt iter    3 1.00000000   0.676E-01       0.001      110.592
     NS sqrt iter    4 1.00000000   0.147E-02       0.001      110.592
     NS sqrt iter    5 1.00000000   0.341E-07       0.001       61.952
     Final NS sqrt iter    5 1.00000000   0.237E-08

     Est. extremal eigenvalues     -0.92859     1.70261  converged:  T
     TRS4 it   1 1.00000000   0.897E+00       0.000       16.128   0.100E-07
     TRS4 it   2 1.00000000   0.629E+00       0.001       32.256   0.100E-07
     TRS4 it   3 1.00000000   0.431E+00       0.001       32.256   0.100E-07
     TRS4 it   4 1.00000000   0.224E+00       0.001       32.256   0.100E-07
     TRS4 it   5 1.00000000   0.747E-01       0.001       32.256   0.100E-07
     TRS4 it   6 1.00000000   0.980E-02       0.001       32.256   0.100E-07
     TRS4 it   7 1.00000000   0.200E-03       0.001       32.256   0.100E-07
     TRS4 it   8 1.00000000   0.105E-06       0.001       32.256   0.100E-07
     TRS4 it   9 1.00000000   0.372E-13       0.001       32.256   0.100E-07
     Final TRS4 iteration    9 1.00000000   0.372E-13
     Chemical potential (mu):       0.01168
 
 PAO| energy:  -7.7257888627090603      penalty:   1.1240812543557544E-005
 PAO|CG| trace_G_new    6.9694197767244056E-005
 PAO|CG| trace_G_prev    2.4541854546211761E-005
 PAO|CG| trace_G_mix    3.4832135310840198E-008
 PAO|CG| trace_D    3.6514261838679783E-005
 PAO|CG| trace_D_Gnew   3.6750408184351539E-009
[...]
 PAO|LS| adapt: energies:   -7.7258326437548872       -7.7258326437768350        0.0000000000000000     
 PAO| ======================= Iteration:       875 =============================

     Lanczos converged:  T threshold:   0.100E-02
     Est. extremal eigenvalues:    0.252E+01   0.232E+00
     Est. condition number :    0.109E+02
     NS sqrt iter    1 1.00000000   0.635E+00       0.001       64.512
     NS sqrt iter    2 1.00000000   0.266E+00       0.001      110.592
     NS sqrt iter    3 1.00000000   0.426E-01       0.001      110.592
     NS sqrt iter    4 1.00000000   0.333E-03       0.001      110.336
     NS sqrt iter    5 1.00000000   0.276E-09       0.001       36.864
     Final NS sqrt iter    5 1.00000000   0.991E-11

     Est. extremal eigenvalues     -0.92840     1.41464  converged:  T
     TRS4 it   1 1.00000000   0.821E+00       0.000       16.128   0.100E-07
     TRS4 it   2 1.00000000   0.584E+00       0.001       32.256   0.100E-07
     TRS4 it   3 1.00000000   0.415E+00       0.001       32.256   0.100E-07
     TRS4 it   4 1.00000000   0.248E+00       0.001       32.256   0.100E-07
     TRS4 it   5 1.00000000   0.110E+00       0.001       32.256   0.100E-07
     TRS4 it   6 1.00000000   0.269E-01       0.001       32.256   0.100E-07
     TRS4 it   7 1.00000000   0.211E-02       0.001       32.256   0.100E-07
     TRS4 it   8 1.00000000   0.166E-04       0.001       32.256   0.100E-07
     TRS4 it   9 1.00000000   0.119E-08       0.001       32.256   0.100E-07
     Final TRS4 iteration    9 1.00000000   0.119E-08
     Chemical potential (mu):      -0.07194
 
 PAO| energy:  -7.7258326437674656      penalty:   9.8876856451931801E-012
 PAO|LS| Need extra step
 PAO|LS| adapt:  T T T
 PAO|LS| adapt: scan_steps:    0.0000000000000000       0.20000000000000001       0.40000000000000002     
 PAO|LS| adapt: energies:   -7.7258326437548872       -7.7258326437768350       -7.7258326437674656     
 PAO|LS| adapt: suggested step_size:   0.24016449234259785     
 PAO|LS| adapt: predicted energy  -7.7258326437774656     
 PAO| ======================= Iteration:       876 =============================

     Lanczos converged:  T threshold:   0.100E-02
     Est. extremal eigenvalues:    0.252E+01   0.232E+00
     Est. condition number :    0.109E+02
     NS sqrt iter    1 1.00000000   0.635E+00       0.001       64.512
     NS sqrt iter    2 1.00000000   0.266E+00       0.001      110.592
     NS sqrt iter    3 1.00000000   0.426E-01       0.001      110.592
     NS sqrt iter    4 1.00000000   0.333E-03       0.001      110.336
     NS sqrt iter    5 1.00000000   0.276E-09       0.001       36.864
     Final NS sqrt iter    5 1.00000000   0.990E-11

     Est. extremal eigenvalues     -0.92840     1.41464  converged:  T
     TRS4 it   1 1.00000000   0.821E+00       0.000       16.128   0.100E-07
     TRS4 it   2 1.00000000   0.584E+00       0.001       32.256   0.100E-07
     TRS4 it   3 1.00000000   0.415E+00       0.001       32.256   0.100E-07
     TRS4 it   4 1.00000000   0.248E+00       0.001       32.256   0.100E-07
     TRS4 it   5 1.00000000   0.110E+00       0.001       32.256   0.100E-07
     TRS4 it   6 1.00000000   0.269E-01       0.001       32.256   0.100E-07
     TRS4 it   7 1.00000000   0.211E-02       0.001       32.256   0.100E-07
     TRS4 it   8 1.00000000   0.166E-04       0.001       32.256   0.100E-07
     TRS4 it   9 1.00000000   0.119E-08       0.001       32.256   0.100E-07
     Final TRS4 iteration    9 1.00000000   0.119E-08
     Chemical potential (mu):      -0.07194
 
 PAO| energy:  -7.7258326437774594      penalty:   1.0000157660258127E-011
 PAO|CG| warming up with steepest descent
 PAO|CG| beta:    0.0000000000000000     
 PAO| norm of gradient:   7.3667299821231347E-006
 PAO| energy improvement:  -2.2572166358258983E-011
 PAO| step    876                   -7.725832644  0.460E-06  0.240E+00     0.063
 PAO| converged after          876  steps :-)
 PAO| Recalculating energy after mixing.

     Lanczos converged:  T threshold:   0.100E-02
     Est. extremal eigenvalues:    0.252E+01   0.232E+00
     Est. condition number :    0.109E+02
     NS sqrt iter    1 1.00000000   0.635E+00       0.001       64.512
     NS sqrt iter    2 1.00000000   0.266E+00       0.001      110.592
     NS sqrt iter    3 1.00000000   0.426E-01       0.001      110.592
     NS sqrt iter    4 1.00000000   0.333E-03       0.001      110.336
     NS sqrt iter    5 1.00000000   0.276E-09       0.001       36.864
     Final NS sqrt iter    5 1.00000000   0.990E-11

     Est. extremal eigenvalues     -0.92840     1.41464  converged:  T
     TRS4 it   1 1.00000000   0.821E+00       0.000       16.128   0.100E-07
     TRS4 it   2 1.00000000   0.584E+00       0.001       32.256   0.100E-07
     TRS4 it   3 1.00000000   0.415E+00       0.001       32.256   0.100E-07
     TRS4 it   4 1.00000000   0.248E+00       0.001       32.256   0.100E-07
     TRS4 it   5 1.00000000   0.110E+00       0.001       32.256   0.100E-07
     TRS4 it   6 1.00000000   0.269E-01       0.001       32.256   0.100E-07
     TRS4 it   7 1.00000000   0.211E-02       0.001       32.256   0.100E-07
     TRS4 it   8 1.00000000   0.166E-04       0.001       32.256   0.100E-07
     TRS4 it   9 1.00000000   0.119E-08       0.001       32.256   0.100E-07
     Final TRS4 iteration    9 1.00000000   0.119E-08
     Chemical potential (mu):      -0.07194
 
 PAO| energy:  -7.7258326437718150      penalty:   1.0085136881094486E-011
 PAO| Writing restart file.
     Est. extremal eigenvalues     -0.92840     1.41464  converged:  T
     TRS4 it   1 1.00000000   0.821E+00       0.000       16.128   0.100E-07
     TRS4 it   2 1.00000000   0.584E+00       0.001       32.256   0.100E-07
     TRS4 it   3 1.00000000   0.415E+00       0.001       32.256   0.100E-07
     TRS4 it   4 1.00000000   0.248E+00       0.001       32.256   0.100E-07
     TRS4 it   5 1.00000000   0.110E+00       0.001       32.256   0.100E-07
     TRS4 it   6 1.00000000   0.269E-01       0.001       32.256   0.100E-07
     TRS4 it   7 1.00000000   0.211E-02       0.001       32.256   0.100E-07
     TRS4 it   8 1.00000000   0.166E-04       0.001       32.256   0.100E-07
     TRS4 it   9 1.00000000   0.119E-08       0.001       32.256   0.100E-07
     Final TRS4 iteration    9 1.00000000   0.119E-08
     Chemical potential (mu):      -0.07194

 SCF     1       -34.447703588       -34.447703588    1.894809

*********************************************************
 Using MIXING_FRACTION=0.450 to mix KS matrix:  iscf=  2
 KS_nw=0.450*KS + 0.550*KS_old
*********************************************************
     Est. extremal eigenvalues     -0.92840     1.41464  converged:  T
     TRS4 it   1 1.00000000   0.821E+00       0.000       16.128   0.100E-07
     TRS4 it   2 1.00000000   0.584E+00       0.001       32.256   0.100E-07
     TRS4 it   3 1.00000000   0.415E+00       0.001       32.256   0.100E-07
     TRS4 it   4 1.00000000   0.248E+00       0.001       32.256   0.100E-07
     TRS4 it   5 1.00000000   0.110E+00       0.001       32.256   0.100E-07
     TRS4 it   6 1.00000000   0.269E-01       0.001       32.256   0.100E-07
     TRS4 it   7 1.00000000   0.211E-02       0.001       32.256   0.100E-07
     TRS4 it   8 1.00000000   0.166E-04       0.001       32.256   0.100E-07
     TRS4 it   9 1.00000000   0.119E-08       0.001       32.256   0.100E-07
     Final TRS4 iteration    9 1.00000000   0.119E-08
     Chemical potential (mu):      -0.07194

 SCF     2       -34.447703588        -0.000000000    1.878286

 PAO| Storing density matrix for ASPC guess in slot:           1

 ENERGY| Total FORCE_EVAL ( QS ) energy (a.u.):              -34.447703587720440


 -------------------------------------------------------------------------------
 -                                                                             -
 -                                DBCSR STATISTICS                             -
 -                                                                             -
 -------------------------------------------------------------------------------
 COUNTER                                    TOTAL       BLAS       SMM       ACC
 flops     5 x     5 x     4                26000       0.0%    100.0%      0.0%
 flops    13 x     5 x     4                27040       0.0%    100.0%      0.0%
 flops     5 x    13 x     4                27040       0.0%    100.0%      0.0%
 flops    13 x    13 x     4                52728       0.0%    100.0%      0.0%
 flops     4 x     4 x     5              6835200       0.0%    100.0%      0.0%
 flops     5 x     4 x     5              8355200       0.0%    100.0%      0.0%
 flops     4 x     4 x    13              8885760       0.0%    100.0%      0.0%
 flops    13 x     4 x     5             10861760       0.0%    100.0%      0.0%
 flops     5 x     4 x    13             10861760       0.0%    100.0%      0.0%
 flops     5 x     4 x     4             12905440       0.0%    100.0%      0.0%
 flops    13 x     4 x    13             14120288       0.0%    100.0%      0.0%
 flops    13 x     4 x     4             16845088       0.0%    100.0%      0.0%
 flops     4 x     4 x     4            867677568       0.0%    100.0%      0.0%
 flops inhomo. stacks                           0       0.0%      0.0%      0.0%
 flops total                       957.480872E+06       0.0%    100.0%      0.0%
 flops max/rank                    957.480872E+06       0.0%    100.0%      0.0%
 matmuls inhomo. stacks                         0       0.0%      0.0%      0.0%
 matmuls total                            7058232       0.0%    100.0%      0.0%
 number of processed stacks                 56229       0.0%    100.0%      0.0%
 average stack size                                     0.0     125.5       0.0
 marketing flops                     1.563074E+09
 -------------------------------------------------------------------------------
 # multiplications                          47112
 max memory usage/rank             321.040384E+06
 # max total images/rank                        1
 # max 3D layers                                1
 # MPI messages exchanged                       0
 MPI messages size (bytes):
  total size                         0.000000E+00
  min size                           0.000000E+00
  max size                           0.000000E+00
  average size                       0.000000E+00
 MPI breakdown and total messages size (bytes):
             size <=      128                   0                        0
       128 < size <=     8192                   0                        0
      8192 < size <=    32768                   0                        0
     32768 < size <=   131072                   0                        0
    131072 < size <=  4194304                   0                        0
   4194304 < size <= 16777216                   0                        0
  16777216 < size                               0                        0
 -------------------------------------------------------------------------------

 MEMORY| Estimated peak process memory [MiB]                                 307

 -------------------------------------------------------------------------------
 -                                                                             -
 -                           R E F E R E N C E S                               -
 -                                                                             -
 -------------------------------------------------------------------------------
 
 CP2K version 7.0 (Development Version), the CP2K developers group (2018).
 CP2K is freely available from https://www.cp2k.org/ .

 Schuett, O; VandeVondele, J. 
 Journal of Chemical Theory and Computation, 14, (2018). 
 Machine Learning Adaptive Basis Sets for Efficient Large Scale Density Functional Theory Simulation.
 https://dx.doi.org/10.1021/acs.jctc.8b00378


 Schuett, Ole; Messmer, Peter; Hutter, Juerg; VandeVondele, Joost. 
 Electronic Structure Calculations on Graphics Processing Units, John Wiley & Sons, Ltd, 173-190 (2016). 
 GPU-Accelerated Sparse Matrix-Matrix Multiplication for Linear Scaling Density Functional Theory.
 https://dx.doi.org/10.1002/9781118670712.ch8


 Borstnik, U; VandeVondele, J; Weber, V; Hutter, J. 
 PARALLEL COMPUTING, 40 (5-6), 47-58 (2014). 
 Sparse matrix multiplication: The distributed block-compressed sparse
 row library.
 https://dx.doi.org/10.1016/j.parco.2014.03.012


 Hutter, J; Iannuzzi, M; Schiffmann, F; VandeVondele, J. 
 WILEY INTERDISCIPLINARY REVIEWS-COMPUTATIONAL MOLECULAR SCIENCE, 4 (1), 15-25 (2014). 
 CP2K: atomistic simulations of condensed matter systems.
 https://dx.doi.org/10.1002/wcms.1159


 VandeVondele, J; Borstnik, U; Hutter, J. 
 JOURNAL OF CHEMICAL THEORY AND COMPUTATION, 8 (10), 3565-3573 (2012). 
 Linear Scaling Self-Consistent Field Calculations with Millions of Atoms
 in the Condensed Phase.
 https://dx.doi.org/10.1021/ct200897x


 VandeVondele, J; Hutter, J. 
 JOURNAL OF CHEMICAL PHYSICS, 127 (11), 114105 (2007). 
 Gaussian basis sets for accurate calculations on molecular systems in
 gas and condensed phases.
 https://dx.doi.org/10.1063/1.2770708


 Krack, M. 
 THEORETICAL CHEMISTRY ACCOUNTS, 114 (1-3), 145-152 (2005). 
 Pseudopotentials for H to Kr optimized for gradient-corrected
 exchange-correlation functionals.
 https://dx.doi.org/10.1007/s00214-005-0655-y


 VandeVondele, J; Krack, M; Mohamed, F; Parrinello, M; Chassaing, T;
 Hutter, J. COMPUTER PHYSICS COMMUNICATIONS, 167 (2), 103-128 (2005). 
 QUICKSTEP: Fast and accurate density functional calculations using a
 mixed Gaussian and plane waves approach.
 https://dx.doi.org/10.1016/j.cpc.2004.12.014


 Frigo, M; Johnson, SG. 
 PROCEEDINGS OF THE IEEE, 93 (2), 216-231 (2005). 
 The design and implementation of FFTW3.
 https://dx.doi.org/10.1109/JPROC.2004.840301


 Niklasson, AMN; Tymczak, CJ; Challacombe, M. 
 JOURNAL OF CHEMICAL PHYSICS, 118 (19), 8611-8620 (2003). 
 Trace resetting density matrix purification in O(N)
 self-consistent-field theory.
 https://dx.doi.org/10.1063/1.1559913


 Hartwigsen, C; Goedecker, S; Hutter, J. 
 PHYSICAL REVIEW B, 58 (7), 3641-3662 (1998). 
 Relativistic separable dual-space Gaussian pseudopotentials from H to Rn.
 https://dx.doi.org/10.1103/PhysRevB.58.3641


 Lippert, G; Hutter, J; Parrinello, M. 
 MOLECULAR PHYSICS, 92 (3), 477-487 (1997). 
 A hybrid Gaussian and plane wave density functional scheme.
 https://dx.doi.org/10.1080/002689797170220


 Perdew, JP; Burke, K; Ernzerhof, M. 
 PHYSICAL REVIEW LETTERS, 77 (18), 3865-3868 (1996). 
 Generalized gradient approximation made simple.
 https://dx.doi.org/10.1103/PhysRevLett.77.3865


 Goedecker, S; Teter, M; Hutter, J. 
 PHYSICAL REVIEW B, 54 (3), 1703-1710 (1996). 
 Separable dual-space Gaussian pseudopotentials.
 https://dx.doi.org/10.1103/PhysRevB.54.1703


 -------------------------------------------------------------------------------
 -                                                                             -
 -                                T I M I N G                                  -
 -                                                                             -
 -------------------------------------------------------------------------------
 SUBROUTINE                       CALLS  ASD         SELF TIME        TOTAL TIME
                                MAXIMUM       AVERAGE  MAXIMUM  AVERAGE  MAXIMUM
 CP2K                                 1  1.0    0.030    0.030   39.584   39.584
 qs_energies                          1  2.0    0.000    0.000   39.213   39.213
 ls_scf                               1  3.0    0.000    0.000   39.109   39.109
 ls_scf_main                          6  4.0    0.001    0.001   22.662   22.662
 ls_scf_dm_to_ks                     12  5.0    0.000    0.000   22.568   22.568
 qs_ks_update_qs_env                 13  6.0    0.000    0.000   17.279   17.279
 rebuild_ks_matrix                   13  7.0    0.000    0.000   17.278   17.278
 qs_ks_build_kohn_sham_matrix        13  8.0    0.001    0.001   17.278   17.278
 pao_update                           6  4.0    0.019    0.019   14.425   14.425
 pao_calc_energy                    881  5.0    0.007    0.007   13.047   13.047
 dbcsr_multiply_generic           47112  8.4    0.813    0.813   10.584   10.584
 qs_vxc_create                       13  9.0    0.000    0.000    9.767    9.767
 xc_vxc_pw_create                    13 10.0    0.158    0.158    9.767    9.767
 qs_rho_update_rho                   13  6.0    0.000    0.000    7.238    7.238
 calculate_rho_elec                  13  7.0    5.908    5.908    7.238    7.238
 xc_rho_set_and_dset_create          13 11.0    0.059    0.059    7.156    7.156
 pao_dm_trs4                        881  6.0    0.004    0.004    6.766    6.766
 sum_up_and_integrate                13  9.0    0.027    0.027    6.477    6.477
 integrate_v_rspace                  13 10.0    5.745    5.745    6.449    6.449
 density_matrix_trs4                893  7.0    0.352    0.352    6.444    6.444
 ls_scf_init_matrix_S               887  7.0    0.005    0.005    6.250    6.250
 pao_rebuild_S                      881  6.0    0.004    0.004    6.209    6.209
 pw_transfer                        248 10.6    0.016    0.016    6.106    6.106
 fft_wrap_pw1pw2                    222 11.7    0.002    0.002    5.974    5.974
 fft_wrap_pw1pw2_200                144 12.8    0.494    0.494    5.717    5.717
 matrix_sqrt_Newton_Schulz          887  8.0    0.229    0.229    5.616    5.616
 xc_functional_eval                  13 12.0    0.000    0.000    4.949    4.949
 pbe_lda_eval                        13 13.0    4.948    4.948    4.948    4.948
 multiply_cannon                  47112  9.4    1.846    1.846    4.075    4.075
 make_m2s                         94224  9.4    0.277    0.277    3.908    3.908
 make_images                      94224 10.4    1.038    1.038    3.478    3.478
 fft3d_s                            223 13.6    3.346    3.346    3.357    3.357
 pao_guess_initial_P                  1  4.0    0.000    0.000    1.955    1.955
 pao_read_preopt_dm                   1  5.0    0.000    0.000    1.955    1.955
 arnoldi_extremal                  1780  8.5    0.006    0.006    1.730    1.730
 arnoldi_normal_ev                 1780  9.5    0.019    0.019    1.724    1.724
 pao_calc_AB                       1159  5.8    0.001    0.001    1.347    1.347
 pao_calc_AB_direct                1159  6.8    0.043    0.043    1.346    1.346
 density_rs2pw                       13  8.0    0.001    0.001    1.308    1.308
 build_subspace                    1780 10.5    0.106    0.106    1.293    1.293
 pao_calc_grad_lnv_wrt_AB           277  7.0    0.014    0.014    1.253    1.253
 dbcsr_matrix_vector_mult         42689 11.5    0.209    0.209    1.140    1.140
 dbcsr_create_new                360327 10.7    0.634    0.634    1.124    1.124
 dbcsr_finalize                  111266  9.7    0.210    0.210    1.104    1.104
 pw_scatter_s                       117 14.2    1.076    1.076    1.076    1.076
 pw_gather_s                        105 13.1    1.024    1.024    1.024    1.024
 matrix_qs_to_ls                   1780  7.5    0.011    0.011    0.817    0.817
 -------------------------------------------------------------------------------

 The number of warnings for this run is : 0
 
 -------------------------------------------------------------------------------
  **** **** ******  **  PROGRAM ENDED AT                 2019-02-14 10:41:38.254
 ***** ** ***  *** **   PROGRAM RAN ON                                      otto
 **    ****   ******    PROGRAM RAN BY                                       ole
 ***** **    ** ** **   PROGRAM PROCESS ID                                  7029
  **** **  *******  **  PROGRAM STOPPED IN /home/ole/git/pao_ml_equivar/2H2O_MD/
                                           frame_1025
