 DBCSR| CPU Multiplication driver                                           XSMM (U)
 DBCSR| Multrec recursion limit                                              512 (U)
 DBCSR| Multiplication stack size                                           1000 (D)
 DBCSR| Maximum elements for images                                    UNLIMITED (U)
 DBCSR| Multiplicative factor virtual images                                   1 (U)
 DBCSR| Use multiplication densification                                       T (D)
 DBCSR| Multiplication size stacks                                             3 (U)
 DBCSR| Use memory pool for CPU allocation                                     F (U)
 DBCSR| OMP: Current number of threads                                         1
 DBCSR| OMP: Max number of threads                                             1
 DBCSR| Split modifier for TAS multiplication algorithm                  1.0E+00 (U)


  **** **** ******  **  PROGRAM STARTED AT               2023-02-01 10:47:55.385
 ***** ** ***  *** **   PROGRAM STARTED ON                                moritz
 **    ****   ******    PROGRAM STARTED BY                                   ole
 ***** **    ** ** **   PROGRAM PROCESS ID                                148752
  **** **  *******  **  PROGRAM STARTED IN /home/ole/git/pao_ml_equivar/2H2O_MD/
                                           frame_1025

 CP2K| version string:                 CP2K version 2023.1 (Development Version)
 CP2K| source code revision number:                                  git:03b4147
 CP2K| cp2kflags: omp libint fftw3 libxc quip xsmm spglib libvori libbqb libtorc
 CP2K|            h
 CP2K| is freely available from                            https://www.cp2k.org/
 CP2K| Program compiled at                           Mi 01 Feb 2023 10:36:52 CET
 CP2K| Program compiled on                                                moritz
 CP2K| Program compiled for                                                local
 CP2K| Data directory path                               /home/ole/git/cp2k/data
 CP2K| Input file name                                            2H2O_pao44.inp

 GLOBAL| Force Environment number                                              1
 GLOBAL| Basis set file name                                        BASIS_MOLOPT
 GLOBAL| Potential file name                                      GTH_POTENTIALS
 GLOBAL| MM Potential file name                                     MM_POTENTIAL
 GLOBAL| Coordinate file name                                         coords.xyz
 GLOBAL| Method name                                                        CP2K
 GLOBAL| Project name                                                 2H2O_pao44
 GLOBAL| Run type                                                         ENERGY
 GLOBAL| FFT library                                                       FFTW3
 GLOBAL| Diagonalization library                                       ScaLAPACK
 GLOBAL| DGEMM library                                                      BLAS
 GLOBAL| Orthonormality check for eigenvectors                          DISABLED
 GLOBAL| Matrix multiplication library                                 ScaLAPACK
 GLOBAL| All-to-all communication in single precision                          F
 GLOBAL| FFTs using library dependent lengths                                  F
 GLOBAL| Grid backend                                                       AUTO
 GLOBAL| Global print level                                                  LOW
 GLOBAL| MPI I/O enabled                                                       T
 GLOBAL| Total number of message passing processes                             1
 GLOBAL| Number of threads for this process                                    1
 GLOBAL| This output is from process                                           0
 GLOBAL| Stack size for threads created by OpenMP (OMP_STACKSIZE)        default
 GLOBAL| CPU model name           AMD Ryzen Threadripper 3970X 32-Core Processor
 GLOBAL| CPUID                                                              1002
 GLOBAL| Compiled for CPUID                                                    0

 *** HINT in environment.F:884 :: The compiler target flags (generic) used ***
 *** to build this binary cannot exploit all extensions of this CPU model  ***
 *** (x86_avx2). Consider compiler target flags as part of FCFLAGS and     ***
 *** CFLAGS (ARCH file).                                                   ***


 MEMORY| system memory details [Kb]
 MEMORY|                        rank 0           min           max       average
 MEMORY| MemTotal            131773860     131773860     131773860     131773860
 MEMORY| MemFree             115309536     115309536     115309536     115309536
 MEMORY| Buffers                302624        302624        302624        302624
 MEMORY| Cached                7056636       7056636       7056636       7056636
 MEMORY| Slab                   780228        780228        780228        780228
 MEMORY| SReclaimable           332704        332704        332704        332704
 MEMORY| MemLikelyFree       123001500     123001500     123001500     123001500


 GENERATE|  Preliminary Number of Bonds generated:                             0
 GENERATE|  Achieved consistency in connectivity generation.

 *******************************************************************************
 *******************************************************************************
 **                                                                           **
 **     #####                         ##              ##                      **
 **    ##   ##            ##          ##              ##                      **
 **   ##     ##                       ##            ######                    **
 **   ##     ##  ##   ##  ##   #####  ##  ##   ####   ##    #####    #####    **
 **   ##     ##  ##   ##  ##  ##      ## ##   ##      ##   ##   ##  ##   ##   **
 **   ##  ## ##  ##   ##  ##  ##      ####     ###    ##   ######   ######    **
 **    ##  ###   ##   ##  ##  ##      ## ##      ##   ##   ##       ##        **
 **     #######   #####   ##   #####  ##  ##  ####    ##    #####   ##        **
 **           ##                                                    ##        **
 **                                                                           **
 **                                                ... make the atoms dance   **
 **                                                                           **
 **            Copyright (C) by CP2K developers group (2000-2023)             **
 **                      J. Chem. Phys. 152, 194103 (2020)                    **
 **                                                                           **
 *******************************************************************************


 TOTAL NUMBERS AND MAXIMUM NUMBERS

  Total number of            - Atomic kinds:                                   2
                             - Atoms:                                          6
                             - Shell sets:                                     6
                             - Shells:                                        22
                             - Primitive Cartesian functions:                 42
                             - Cartesian basis functions:                     48
                             - Spherical basis functions:                     46

  Maximum angular momentum of- Orbital basis functions:                        2
                             - Local part of the GTH pseudopotential:          2
                             - Non-local part of the GTH pseudopotential:      0

 ------------------------------ Linear scaling SCF -----------------------------
 eps_scf:                                                              0.100E-07
 eps_filter:                                                           0.100E-07
 mixing_fraction:                                                      0.450E+00
 max_scf:                                                                     25
 fixed chemical potential (mu)                                                 F
 has unit metric:                                                              F
 Computing inv(S):                                                             T
 Computing sqrt(S):                                                            T
 Computing S preconditioner                                                    F
 S sqrt method:                                                     NEWTONSCHULZ
 S sqrt order:                                                                 3
 Extrapolation order:                                                          1
 Use single precision matrices                                                 F
 S preconditioner type                                                      NONE
 Polarized Atomic Orbitals (PAO)                                               T
 Purification method                                   Trace resetting 4th order
 Cluster type                                                             ATOMIC
 Computing Chebyshev                                                       FALSE
 Using PAO                                                                     T
 -------------------------------------------------------------------------------

 
 PAO|                                  EPS_PAO                           0.5E-06
 PAO|                                  MIXING                            0.5E+00
 PAO|                                  MAX_PAO                              1500
 PAO|                                  MAX_CYCLES                           1000
 PAO|                                  PARAMETERIZATION              EQUIVARIANT
 PAO|                                  PRECONDITION                            F
 PAO|                                  REGULARIZATION                    0.0E+00
 PAO|                                  EPS_PGF                           0.1E-09
 PAO|                                  PENALTY_DISTANCE                  0.1E+00
 PAO|                                  PENALTY_STRENGTH                  0.5E-02
 PAO|                                  LINPOT_PRECONDITION_DELTA         0.0E+00
 PAO|                                  LINPOT_INITGUESS_DELT             0.0E+00
 PAO|                                  LINPOT_REGULARIZATION_DELTA       0.0E+00
 PAO|                                  LINPOT_REGULARIZATION_STRENGTH    0.0E+00
 PAO|                                  OPTIMIZER                              CG
 PAO|                                  CG_INIT_STEPS                           2
 PAO|                                  CG_RESET_LIMIT                    0.1E+00
 PAO|                                  CHECK_UNITARY_TOL                -0.1E+01
 PAO|                                  CHECK_GRADIENT_TOL               -0.1E+01
 PAO|                                  NUM_GRADIENT_ORDER                      2
 PAO|                                  NUM_GRADIENT_EPS                  0.1E-07
 PAO|                                  PRINT%RESTART%WRITE_CYCLES            100
 PAO|                                  RESTART_FILE 
 PAO|                                  PREOPT_DM_FILE 2H2O_ref_LS_DM_SPIN_1_RESTART.dm
 PAO|                                  MACHINE_LEARNING%METHOD       GAUSSIAN_PR
 PAO|                                  MACHINE_LEARNING%PRIOR               ZERO
 PAO|                                  MACHINE_LEARNING%DESCRIPTOR     POTENTIAL
 PAO|                                  MACHINE_LEARNING%TOLERANCE        0.1E-01
 PAO|                                  MACHINE_LEARNING%GP_NOISE_VAR     0.1E+00
 PAO|                                  MACHINE_LEARNING%GP_SCALE         0.5E-01
 

 Calculating atomic Fock matrix for atomic kind: O

 Electronic structure
    Total number of core electrons                                          2.00
    Total number of valence electrons                                       6.00
    Total number of electrons                                               8.00
    Multiplicity                                                   not specified
    S   [  2.00] 2.00
    P      4.00


 *******************************************************************************
                  Iteration          Convergence                     Energy [au]
 *******************************************************************************
                          1        0.708315                     -15.576645311500
                          2        0.608879                     -15.587933561584
                          3        0.102828E-01                 -15.656849565404
                          4        0.113889E-02                 -15.656866888140
                          5        0.434197E-03                 -15.656867072159
                          6        0.263771E-03                 -15.656867091904
                          7        0.478536E-06                 -15.656867103452

 Energy components [Hartree]           Total Energy ::          -15.656867103452
                                        Band Energy ::           -3.000198112285
                                     Kinetic Energy ::           11.759971203220
                                   Potential Energy ::          -27.416838306672
                                      Virial (-V/T) ::            2.331369510426
                                        Core Energy ::          -26.140716385623
                                          XC Energy ::           -3.154051012914
                                     Coulomb Energy ::           13.637900295084
                       Total Pseudopotential Energy ::          -37.935781716540
                       Local Pseudopotential Energy ::          -39.218907440693
                    Nonlocal Pseudopotential Energy ::            1.283125724153
                                        Confinement ::            0.350941276976

 Orbital energies  State     L     Occupation   Energy[a.u.]          Energy[eV]

                       1     0          2.000      -0.864471          -23.523463

                       1     1          4.000      -0.317814           -8.648154


 Total Electron Density at R=0:                                         0.000068

 Calculating atomic Fock matrix for atomic kind: H

 Electronic structure
    Total number of core electrons                                          0.00
    Total number of valence electrons                                       1.00
    Total number of electrons                                               1.00
    Multiplicity                                                   not specified
    S      1.00


 *******************************************************************************
                  Iteration          Convergence                     Energy [au]
 *******************************************************************************
                          1        0.437545E-02                  -0.424159432110
                          2        0.531356E-03                  -0.424178438213
                          3        0.259176E-06                  -0.424178722480

 Energy components [Hartree]           Total Energy ::           -0.424178722480
                                        Band Energy ::           -0.199015229016
                                     Kinetic Energy ::            0.464007633961
                                   Potential Energy ::           -0.888186356441
                                      Virial (-V/T) ::            1.914163240935
                                        Core Energy ::           -0.479160803564
                                          XC Energy ::           -0.244352904054
                                     Coulomb Energy ::            0.299334985138
                       Total Pseudopotential Energy ::           -0.962295316385
                       Local Pseudopotential Energy ::           -0.962295316385
                    Nonlocal Pseudopotential Energy ::            0.000000000000
                                        Confinement ::            0.191268788606

 Orbital energies  State     L     Occupation   Energy[a.u.]          Energy[eV]

                       1     0          1.000      -0.199015           -5.415480


 Total Electron Density at R=0:                                         0.242907
 PAO| Made initial guess for matrix_X with norm:   4.8989794855663558     

     Lanczos converged:  T threshold:   0.100E-02
     Est. extremal eigenvalues:    0.321E+01   0.118E+00
     Est. condition number :    0.272E+02

 Order=           3
     NS sqrt iter    1 1.00000000   0.783E+00       0.001       60.865
     NS sqrt iter    2 1.00000000   0.415E+00       0.001      109.257
     NS sqrt iter    3 1.00000000   0.156E+00       0.001      106.742
     NS sqrt iter    4 1.00000000   0.167E-01       0.001      109.680
     NS sqrt iter    5 1.00000000   0.302E-04       0.001       83.968
     Symmetrizing Results
     Final NS sqrt iter    5 1.00000000   0.141E-08

 PAO| Read restart DM 2H2O_ref_LS_DM_SPIN_1_RESTART.dm with checksum:    58.753158010257110     
 PAO| Quickstep energy from restart density:  -34.447964881105094     
 PAO| ======================= Iteration:         1 =============================

     Lanczos converged:  T threshold:   0.100E-02
     Est. extremal eigenvalues:    0.321E+01   0.118E+00
     Est. condition number :    0.272E+02

 Order=           3
     NS sqrt iter    1 1.00000000   0.783E+00       0.001       64.512
     NS sqrt iter    2 1.00000000   0.415E+00       0.001      110.592
     NS sqrt iter    3 1.00000000   0.156E+00       0.001      110.592
     NS sqrt iter    4 1.00000000   0.167E-01       0.001      110.592
     NS sqrt iter    5 1.00000000   0.302E-04       0.017        4.945
     Symmetrizing Results
     Final NS sqrt iter    5 1.00000000   0.141E-08

     Est. extremal eigenvalues     -0.91128     1.84256  converged:  T
     TRS4 it   1 1.00000000   0.891E+00       0.000       16.128   0.100E-07
     TRS4 it   2 1.00000000   0.693E+00       0.001       32.256   0.100E-07
     TRS4 it   3 1.00000000   0.502E+00       0.001       32.256   0.100E-07
     TRS4 it   4 1.00000000   0.319E+00       0.001       32.256   0.100E-07
     TRS4 it   5 1.00000000   0.161E+00       0.001       32.256   0.100E-07
     TRS4 it   6 1.00000000   0.500E-01       0.001       32.256   0.100E-07
     TRS4 it   7 1.00000000   0.628E-02       0.001       32.256   0.100E-07
     TRS4 it   8 1.00000000   0.134E-03       0.001       32.256   0.100E-07
     TRS4 it   9 1.00000000   0.752E-07       0.001       32.256   0.100E-07
     Final TRS4 iteration    9 1.00000000   0.752E-07
     Chemical potential (mu):      -0.06733
 
 PAO| energy:  -7.5512109575900181      penalty:   4.2524533172070178E-033
 PAO|CG| warming up with steepest descent
 PAO|CG| beta:    0.0000000000000000     
 PAO| norm of gradient:  0.78169198009388718     
 PAO|LS| adapt:  T F F
 PAO|LS| adapt: scan_steps:    0.0000000000000000        0.0000000000000000        0.0000000000000000     
 PAO|LS| adapt: energies:   -7.5512109575900181        0.0000000000000000        0.0000000000000000     
 PAO| ======================= Iteration:         2 =============================

     Lanczos converged:  T threshold:   0.100E-02
     Est. extremal eigenvalues:    0.314E+01   0.131E+00
     Est. condition number :    0.239E+02

 Order=           3
     NS sqrt iter    1 1.00000000   0.770E+00       0.001       64.026
     NS sqrt iter    2 1.00000000   0.401E+00       0.001      110.592
     NS sqrt iter    3 1.00000000   0.139E+00       0.001      110.209
     NS sqrt iter    4 1.00000000   0.115E-01       0.001      109.587
     NS sqrt iter    5 1.00000000   0.948E-05       0.001       82.944
     Symmetrizing Results
     Final NS sqrt iter    5 1.00000000   0.131E-09

     Est. extremal eigenvalues     -0.91499     1.80134  converged:  T
     TRS4 it   1 1.00000000   0.891E+00       0.000       16.128   0.100E-07
     TRS4 it   2 1.00000000   0.677E+00       0.001       32.256   0.100E-07
     TRS4 it   3 1.00000000   0.488E+00       0.001       32.256   0.100E-07
     TRS4 it   4 1.00000000   0.300E+00       0.001       32.256   0.100E-07
     TRS4 it   5 1.00000000   0.142E+00       0.001       32.256   0.100E-07
     TRS4 it   6 1.00000000   0.388E-01       0.001       32.256   0.100E-07
     TRS4 it   7 1.00000000   0.379E-02       0.001       32.256   0.100E-07
     TRS4 it   8 1.00000000   0.489E-04       0.001       32.256   0.100E-07
     TRS4 it   9 1.00000000   0.101E-07       0.001       32.256   0.100E-07
     Final TRS4 iteration    9 1.00000000   0.101E-07
     Chemical potential (mu):      -0.05548
 
 PAO| energy:  -7.6063417075185686      penalty:   2.2335732962741125E-008
 PAO|LS| adapt:  T T F
 PAO|LS| adapt: scan_steps:    0.0000000000000000       0.10000000000000001        0.0000000000000000     
 PAO|LS| adapt: energies:   -7.5512109575900181       -7.6063417075185686        0.0000000000000000     
 PAO| ======================= Iteration:         3 =============================

     Lanczos converged:  T threshold:   0.100E-02
     Est. extremal eigenvalues:    0.306E+01   0.141E+00
     Est. condition number :    0.217E+02

 Order=           3
     NS sqrt iter    1 1.00000000   0.756E+00       0.001       57.772
     NS sqrt iter    2 1.00000000   0.386E+00       0.001       96.592
     NS sqrt iter    3 1.00000000   0.124E+00       0.001       95.781
     NS sqrt iter    4 1.00000000   0.791E-02       0.001       97.495
     NS sqrt iter    5 1.00000000   0.333E-05       0.001       77.271
     Symmetrizing Results
     Final NS sqrt iter    5 1.00000000   0.172E-10

     Est. extremal eigenvalues     -0.91840     1.76932  converged:  T
     TRS4 it   1 1.00000000   0.892E+00       0.000       16.128   0.100E-07
     TRS4 it   2 1.00000000   0.664E+00       0.001       32.256   0.100E-07
     TRS4 it   3 1.00000000   0.473E+00       0.001       32.256   0.100E-07
     TRS4 it   4 1.00000000   0.281E+00       0.001       32.256   0.100E-07
     TRS4 it   5 1.00000000   0.124E+00       0.001       32.256   0.100E-07
     TRS4 it   6 1.00000000   0.293E-01       0.001       32.256   0.100E-07
     TRS4 it   7 1.00000000   0.213E-02       0.001       32.256   0.100E-07
     TRS4 it   8 1.00000000   0.154E-04       0.001       32.256   0.100E-07
     TRS4 it   9 1.00000000   0.100E-08       0.001       32.256   0.100E-07
     Final TRS4 iteration    9 1.00000000   0.100E-08
     Chemical potential (mu):      -0.04240
 
 PAO| energy:  -7.6488895789356679      penalty:   3.5737172439917315E-007
 PAO|LS| adapt:  T T F
 PAO|LS| adapt: scan_steps:    0.0000000000000000       0.20000000000000001        0.0000000000000000     
 PAO|LS| adapt: energies:   -7.5512109575900181       -7.6488895789356679        0.0000000000000000     
 PAO| ======================= Iteration:         4 =============================

     Lanczos converged:  T threshold:   0.100E-02
     Est. extremal eigenvalues:    0.290E+01   0.157E+00
     Est. condition number :    0.185E+02

 Order=           3
     NS sqrt iter    1 1.00000000   0.725E+00       0.001       64.512
     NS sqrt iter    2 1.00000000   0.354E+00       0.001      109.805
     NS sqrt iter    3 1.00000000   0.964E-01       0.001      109.685
     NS sqrt iter    4 1.00000000   0.396E-02       0.001      110.592
     NS sqrt iter    5 1.00000000   0.570E-06       0.001       82.432
     Symmetrizing Results
     Final NS sqrt iter    5 1.00000000   0.154E-09

     Est. extremal eigenvalues     -0.92356     1.72461  converged:  T
     TRS4 it   1 1.00000000   0.894E+00       0.000       16.128   0.100E-07
     TRS4 it   2 1.00000000   0.641E+00       0.001       32.256   0.100E-07
     TRS4 it   3 1.00000000   0.447E+00       0.001       32.256   0.100E-07
     TRS4 it   4 1.00000000   0.247E+00       0.001       32.256   0.100E-07
     TRS4 it   5 1.00000000   0.927E-01       0.001       32.256   0.100E-07
     TRS4 it   6 1.00000000   0.157E-01       0.001       32.256   0.100E-07
     TRS4 it   7 1.00000000   0.567E-03       0.001       32.256   0.100E-07
     TRS4 it   8 1.00000000   0.103E-05       0.001       32.256   0.100E-07
     TRS4 it   9 1.00000000   0.449E-11       0.001       32.256   0.100E-07
     Final TRS4 iteration    9 1.00000000   0.449E-11
     Chemical potential (mu):      -0.01334
 
 PAO| energy:  -7.6947195256666534      penalty:   5.7179475663553658E-006
 PAO|LS| Need extra step
 PAO|LS| adapt:  T T F
 PAO|LS| adapt: scan_steps:    0.0000000000000000       0.40000000000000002        0.0000000000000000     
 PAO|LS| adapt: energies:   -7.5512109575900181       -7.6947195256666534        0.0000000000000000     
 PAO| ======================= Iteration:         5 =============================

     Lanczos converged:  T threshold:   0.100E-02
     Est. extremal eigenvalues:    0.258E+01   0.183E+00
     Est. condition number :    0.142E+02

 Order=           3
     NS sqrt iter    1 1.00000000   0.669E+00       0.001       57.934
     NS sqrt iter    2 1.00000000   0.296E+00       0.001       96.202
     NS sqrt iter    3 1.00000000   0.596E-01       0.001       97.366
     NS sqrt iter    4 1.00000000   0.116E-02       0.001       97.147
     NS sqrt iter    5 1.00000000   0.192E-07       0.001       50.707
     Symmetrizing Results
     Final NS sqrt iter    5 1.00000000   0.717E-09

     Est. extremal eigenvalues     -0.92403     1.67601  converged:  T
     TRS4 it   1 1.00000000   0.899E+00       0.000       16.128   0.100E-07
     TRS4 it   2 1.00000000   0.611E+00       0.001       32.256   0.100E-07
     TRS4 it   3 1.00000000   0.406E+00       0.001       32.256   0.100E-07
     TRS4 it   4 1.00000000   0.193E+00       0.001       32.256   0.100E-07
     TRS4 it   5 1.00000000   0.527E-01       0.001       32.256   0.100E-07
     TRS4 it   6 1.00000000   0.451E-02       0.001       32.256   0.100E-07
     TRS4 it   7 1.00000000   0.383E-04       0.001       32.256   0.100E-07
     TRS4 it   8 1.00000000   0.336E-08       0.001       32.256   0.100E-07
     Final TRS4 iteration    8 1.00000000   0.336E-08
     Chemical potential (mu):       0.03493
 
 PAO| energy:  -7.6359933257025769      penalty:   9.1487160869465657E-005
 PAO|LS| Need extra step
 PAO|LS| adapt:  T T T
 PAO|LS| adapt: scan_steps:    0.0000000000000000       0.40000000000000002       0.80000000000000004     
 PAO|LS| adapt: energies:   -7.5512109575900181       -7.6947195256666534       -7.6359933257025769     
 PAO|LS| adapt: suggested step_size:   0.48384549198334809     
 PAO|LS| adapt: predicted energy  -7.6991624127703480     
 PAO| ======================= Iteration:         6 =============================

     Lanczos converged:  T threshold:   0.100E-02
     Est. extremal eigenvalues:    0.283E+01   0.163E+00
     Est. condition number :    0.174E+02

 Order=           3
     NS sqrt iter    1 1.00000000   0.712E+00       0.001       64.512
     NS sqrt iter    2 1.00000000   0.341E+00       0.001      108.591
     NS sqrt iter    3 1.00000000   0.869E-01       0.001      110.592
     NS sqrt iter    4 1.00000000   0.303E-02       0.001      109.690
     NS sqrt iter    5 1.00000000   0.282E-06       0.001       80.512
     Symmetrizing Results
     Final NS sqrt iter    5 1.00000000   0.593E-09

     Est. extremal eigenvalues     -0.92484     1.71110  converged:  T
     TRS4 it   1 1.00000000   0.895E+00       0.000       16.128   0.100E-07
     TRS4 it   2 1.00000000   0.634E+00       0.001       32.256   0.100E-07
     TRS4 it   3 1.00000000   0.438E+00       0.001       32.256   0.100E-07
     TRS4 it   4 1.00000000   0.234E+00       0.001       32.256   0.100E-07
     TRS4 it   5 1.00000000   0.819E-01       0.001       32.256   0.100E-07
     TRS4 it   6 1.00000000   0.119E-01       0.001       32.256   0.100E-07
     TRS4 it   7 1.00000000   0.311E-03       0.001       32.256   0.100E-07
     TRS4 it   8 1.00000000   0.292E-06       0.001       32.256   0.100E-07
     TRS4 it   9 1.00000000   0.352E-12       0.001       32.256   0.100E-07
     Final TRS4 iteration    9 1.00000000   0.352E-12
     Chemical potential (mu):      -0.00031
 
 PAO| energy:  -7.6984713929398607      penalty:   1.2241284715817971E-005
 PAO|CG| warming up with steepest descent
 PAO|CG| beta:    0.0000000000000000     
 PAO| norm of gradient:  0.40966034947856694     
 PAO| energy improvement: -0.14726043534984257     
 PAO| step      6                   -7.698471393  0.256E-01  0.484E+00     0.105
 PAO|LS| adapt:  T F F
 PAO|LS| adapt: scan_steps:    0.0000000000000000        0.0000000000000000        0.0000000000000000     
 PAO|LS| adapt: energies:   -7.6984713929398607        0.0000000000000000        0.0000000000000000     
 PAO| ======================= Iteration:         7 =============================

     Lanczos converged:  T threshold:   0.100E-02
     Est. extremal eigenvalues:    0.275E+01   0.176E+00
     Est. condition number :    0.156E+02

 Order=           3
     NS sqrt iter    1 1.00000000   0.696E+00       0.001       58.390
     NS sqrt iter    2 1.00000000   0.321E+00       0.001       97.354
     NS sqrt iter    3 1.00000000   0.726E-01       0.001       98.633
     NS sqrt iter    4 1.00000000   0.187E-02       0.001       97.336
     NS sqrt iter    5 1.00000000   0.717E-07       0.001       66.813
     Symmetrizing Results
     Final NS sqrt iter    5 1.00000000   0.672E-09

     Est. extremal eigenvalues     -0.92674     1.71160  converged:  T
     TRS4 it   1 1.00000000   0.899E+00       0.000       16.128   0.100E-07
     TRS4 it   2 1.00000000   0.636E+00       0.001       32.256   0.100E-07
     TRS4 it   3 1.00000000   0.440E+00       0.001       32.256   0.100E-07
     TRS4 it   4 1.00000000   0.237E+00       0.001       32.256   0.100E-07
     TRS4 it   5 1.00000000   0.842E-01       0.001       32.256   0.100E-07
     TRS4 it   6 1.00000000   0.124E-01       0.001       32.256   0.100E-07
     TRS4 it   7 1.00000000   0.322E-03       0.001       32.256   0.100E-07
     TRS4 it   8 1.00000000   0.287E-06       0.001       32.256   0.100E-07
     TRS4 it   9 1.00000000   0.310E-12       0.001       32.256   0.100E-07
     Final TRS4 iteration    9 1.00000000   0.310E-12
     Chemical potential (mu):       0.00116
 
 PAO| energy:  -7.6952803914088017      penalty:   1.8121448987071380E-005
 PAO|LS| adapt:  T F T
 PAO|LS| adapt: scan_steps:    0.0000000000000000        0.0000000000000000       0.48384549198334809     
 PAO|LS| adapt: energies:   -7.6984713929398607        0.0000000000000000       -7.6952803914088017     
 PAO| ======================= Iteration:         8 =============================

     Lanczos converged:  T threshold:   0.100E-02
     Est. extremal eigenvalues:    0.279E+01   0.170E+00
     Est. condition number :    0.165E+02

 Order=           3
     NS sqrt iter    1 1.00000000   0.704E+00       0.001       58.041
     NS sqrt iter    2 1.00000000   0.331E+00       0.001       98.021
     NS sqrt iter    3 1.00000000   0.796E-01       0.001       98.545
     NS sqrt iter    4 1.00000000   0.240E-02       0.001       99.557
     NS sqrt iter    5 1.00000000   0.146E-06       0.001       71.384
     Symmetrizing Results
     Final NS sqrt iter    5 1.00000000   0.102E-08

     Est. extremal eigenvalues     -0.92689     1.71108  converged:  T
     TRS4 it   1 1.00000000   0.897E+00       0.000       16.128   0.100E-07
     TRS4 it   2 1.00000000   0.634E+00       0.001       32.256   0.100E-07
     TRS4 it   3 1.00000000   0.438E+00       0.001       32.256   0.100E-07
     TRS4 it   4 1.00000000   0.235E+00       0.001       32.256   0.100E-07
     TRS4 it   5 1.00000000   0.830E-01       0.001       32.256   0.100E-07
     TRS4 it   6 1.00000000   0.123E-01       0.001       32.256   0.100E-07
     TRS4 it   7 1.00000000   0.328E-03       0.001       32.256   0.100E-07
     TRS4 it   8 1.00000000   0.312E-06       0.001       32.256   0.100E-07
     TRS4 it   9 1.00000000   0.386E-12       0.001       32.256   0.100E-07
     Final TRS4 iteration    9 1.00000000   0.386E-12
     Chemical potential (mu):      -0.00007
 
 PAO| energy:  -7.7177484366895950      penalty:   1.3214242243985021E-005
 PAO|LS| adapt:  T T T
 PAO|LS| adapt: scan_steps:    0.0000000000000000       0.24192274599167404       0.48384549198334809     
 PAO|LS| adapt: energies:   -7.6984713929398607       -7.7177484366895950       -7.6952803914088017     
 PAO|LS| adapt: suggested step_size:   0.23267643857222053     
 PAO|LS| adapt: predicted energy  -7.7177789267753978     
 PAO| ======================= Iteration:         9 =============================

     Lanczos converged:  T threshold:   0.100E-02
     Est. extremal eigenvalues:    0.279E+01   0.169E+00
     Est. condition number :    0.165E+02

 Order=           3
     NS sqrt iter    1 1.00000000   0.704E+00       0.001       57.895
     NS sqrt iter    2 1.00000000   0.331E+00       0.001       97.066
     NS sqrt iter    3 1.00000000   0.799E-01       0.001       95.875
     NS sqrt iter    4 1.00000000   0.242E-02       0.001      100.200
     NS sqrt iter    5 1.00000000   0.150E-06       0.001       72.722
     Symmetrizing Results
     Final NS sqrt iter    5 1.00000000   0.104E-08

     Est. extremal eigenvalues     -0.92686     1.71107  converged:  T
     TRS4 it   1 1.00000000   0.897E+00       0.000       16.128   0.100E-07
     TRS4 it   2 1.00000000   0.634E+00       0.001       32.256   0.100E-07
     TRS4 it   3 1.00000000   0.438E+00       0.001       32.256   0.100E-07
     TRS4 it   4 1.00000000   0.235E+00       0.005        6.802   0.100E-07
     TRS4 it   5 1.00000000   0.830E-01       0.001       32.256   0.100E-07
     TRS4 it   6 1.00000000   0.123E-01       0.001       32.256   0.100E-07
     TRS4 it   7 1.00000000   0.327E-03       0.001       32.256   0.100E-07
     TRS4 it   8 1.00000000   0.312E-06       0.001       32.256   0.100E-07
     TRS4 it   9 1.00000000   0.387E-12       0.001       32.256   0.100E-07
     Final TRS4 iteration    9 1.00000000   0.387E-12
     Chemical potential (mu):      -0.00010
 
 PAO| energy:  -7.7177919210430623      penalty:   1.3123841473178554E-005
 PAO|CG| trace_G_new    3.7405610259761884E-002
 PAO|CG| trace_G_prev   0.16782160193490159     
 PAO|CG| trace_G_mix   -1.3832967443698839E-003
 PAO|CG| trace_D   0.16782160193490159     
 PAO|CG| trace_D_Gnew   1.3832967443698839E-003
 PAO|CG| beta:   0.23113178849989813     
 PAO| norm of gradient:  0.19340530049551868     
 PAO| energy improvement:  -1.9320528103201617E-002
 PAO| step      9                   -7.717791921  0.121E-01  0.233E+00     0.063
 PAO|LS| adapt:  T F F
 PAO|LS| adapt: scan_steps:    0.0000000000000000        0.0000000000000000        0.0000000000000000     
 PAO|LS| adapt: energies:   -7.7177919210430623        0.0000000000000000        0.0000000000000000     
 PAO| ======================= Iteration:        10 =============================

     Lanczos converged:  T threshold:   0.100E-02
     Est. extremal eigenvalues:    0.276E+01   0.175E+00
     Est. condition number :    0.158E+02

 Order=           3
     NS sqrt iter    1 1.00000000   0.697E+00       0.001       58.105
     NS sqrt iter    2 1.00000000   0.323E+00       0.001       98.204
     NS sqrt iter    3 1.00000000   0.744E-01       0.001       97.500
     NS sqrt iter    4 1.00000000   0.197E-02       0.017        6.430
     NS sqrt iter    5 1.00000000   0.826E-07       0.001       67.351
     Symmetrizing Results
     Final NS sqrt iter    5 1.00000000   0.700E-09

     Est. extremal eigenvalues     -0.92784     1.71119  converged:  T
     TRS4 it   1 1.00000000   0.897E+00       0.000       16.128   0.100E-07
     TRS4 it   2 1.00000000   0.634E+00       0.001       32.256   0.100E-07
     TRS4 it   3 1.00000000   0.437E+00       0.001       32.256   0.100E-07
     TRS4 it   4 1.00000000   0.233E+00       0.001       32.256   0.100E-07
     TRS4 it   5 1.00000000   0.812E-01       0.001       32.256   0.100E-07
     TRS4 it   6 1.00000000   0.117E-01       0.001       32.256   0.100E-07
     TRS4 it   7 1.00000000   0.291E-03       0.001       32.256   0.100E-07
     TRS4 it   8 1.00000000   0.236E-06       0.001       32.256   0.100E-07
     TRS4 it   9 1.00000000   0.212E-12       0.001       32.256   0.100E-07
     Final TRS4 iteration    9 1.00000000   0.212E-12
     Chemical potential (mu):       0.00350
 
 PAO| energy:  -7.7228144276083537      penalty:   1.3682347052306405E-005
 PAO|LS| adapt:  T T F
 PAO|LS| adapt: scan_steps:    0.0000000000000000       0.23267643857222053        0.0000000000000000     
 PAO|LS| adapt: energies:   -7.7177919210430623       -7.7228144276083537        0.0000000000000000     
 PAO| ======================= Iteration:        11 =============================

     Lanczos converged:  T threshold:   0.100E-02
     Est. extremal eigenvalues:    0.272E+01   0.181E+00
     Est. condition number :    0.150E+02

 Order=           3
     NS sqrt iter    1 1.00000000   0.689E+00       0.001       57.329
     NS sqrt iter    2 1.00000000   0.315E+00       0.017        6.433
     NS sqrt iter    3 1.00000000   0.692E-01       0.001       96.060
     NS sqrt iter    4 1.00000000   0.160E-02       0.001       97.543
     NS sqrt iter    5 1.00000000   0.445E-07       0.001       61.528
     Symmetrizing Results
     Final NS sqrt iter    5 1.00000000   0.651E-09

     Est. extremal eigenvalues     -0.92765     1.71198  converged:  T
     TRS4 it   1 1.00000000   0.897E+00       0.000       16.128   0.100E-07
     TRS4 it   2 1.00000000   0.634E+00       0.001       32.256   0.100E-07
     TRS4 it   3 1.00000000   0.437E+00       0.001       32.256   0.100E-07
     TRS4 it   4 1.00000000   0.231E+00       0.001       32.256   0.100E-07
     TRS4 it   5 1.00000000   0.795E-01       0.001       32.256   0.100E-07
     TRS4 it   6 1.00000000   0.111E-01       0.001       32.256   0.100E-07
     TRS4 it   7 1.00000000   0.257E-03       0.001       32.256   0.100E-07
     TRS4 it   8 1.00000000   0.176E-06       0.001       32.256   0.100E-07
     TRS4 it   9 1.00000000   0.111E-12       0.001       32.256   0.100E-07
     Final TRS4 iteration    9 1.00000000   0.111E-12
     Chemical potential (mu):       0.00716
 
 PAO| energy:  -7.7208938992920437      penalty:   1.4938850795900447E-005
 PAO|LS| adapt:  T T T
 PAO|LS| adapt: scan_steps:    0.0000000000000000       0.23267643857222053       0.46535287714444107     
 PAO|LS| adapt: energies:   -7.7177919210430623       -7.7228144276083537       -7.7208938992920437     
 PAO|LS| adapt: suggested step_size:   0.28465351083309198     
 PAO|LS| adapt: predicted energy  -7.7229876636143171     
 PAO| ======================= Iteration:        12 =============================

     Lanczos converged:  T threshold:   0.100E-02
     Est. extremal eigenvalues:    0.275E+01   0.176E+00
     Est. condition number :    0.156E+02

 Order=           3
     NS sqrt iter    1 1.00000000   0.695E+00       0.017        3.758
     NS sqrt iter    2 1.00000000   0.321E+00       0.001       96.777
     NS sqrt iter    3 1.00000000   0.732E-01       0.001       97.733
     NS sqrt iter    4 1.00000000   0.188E-02       0.001       98.265
     NS sqrt iter    5 1.00000000   0.721E-07       0.001       67.314
     Symmetrizing Results
     Final NS sqrt iter    5 1.00000000   0.506E-09

     Est. extremal eigenvalues     -0.92790     1.71131  converged:  T
     TRS4 it   1 1.00000000   0.897E+00       0.000       16.128   0.100E-07
     TRS4 it   2 1.00000000   0.634E+00       0.001       32.256   0.100E-07
     TRS4 it   3 1.00000000   0.437E+00       0.001       32.256   0.100E-07
     TRS4 it   4 1.00000000   0.232E+00       0.001       32.256   0.100E-07
     TRS4 it   5 1.00000000   0.809E-01       0.001       32.256   0.100E-07
     TRS4 it   6 1.00000000   0.116E-01       0.001       32.256   0.100E-07
     TRS4 it   7 1.00000000   0.283E-03       0.001       32.256   0.100E-07
     TRS4 it   8 1.00000000   0.221E-06       0.001       32.256   0.100E-07
     TRS4 it   9 1.00000000   0.183E-12       0.001       32.256   0.100E-07
     Final TRS4 iteration    9 1.00000000   0.183E-12
     Chemical potential (mu):       0.00431
 
 PAO| energy:  -7.7229730424475349      penalty:   1.3895532151730342E-005
 PAO|CG| trace_G_new    1.2563656423977812E-002
 PAO|CG| trace_G_prev    3.7405610259761884E-002
 PAO|CG| trace_G_mix   -5.1255508562726877E-004
 PAO|CG| trace_D    4.5731512008478491E-002
 PAO|CG| trace_D_Gnew   2.5249886408985293E-004
 PAO|CG| beta:   0.34957888452555141     
 PAO| norm of gradient:  0.11208771754290392     
 PAO| energy improvement:  -5.1811214044725773E-003
 PAO| step     12                   -7.722973042  0.701E-02  0.285E+00     0.107
 PAO|LS| adapt:  T F F
 PAO|LS| adapt: scan_steps:    0.0000000000000000        0.0000000000000000        0.0000000000000000     
 PAO|LS| adapt: energies:   -7.7229730424475349        0.0000000000000000        0.0000000000000000     
 PAO| ======================= Iteration:        13 =============================

     Lanczos converged:  T threshold:   0.100E-02
     Est. extremal eigenvalues:    0.272E+01   0.181E+00
     Est. condition number :    0.150E+02

 Order=           3
     NS sqrt iter    1 1.00000000   0.688E+00       0.001       57.507
     NS sqrt iter    2 1.00000000   0.314E+00       0.001       97.617
     NS sqrt iter    3 1.00000000   0.690E-01       0.001       99.271
     NS sqrt iter    4 1.00000000   0.159E-02       0.001       99.958
     NS sqrt iter    5 1.00000000   0.437E-07       0.001       60.998
     Symmetrizing Results
     Final NS sqrt iter    5 1.00000000   0.643E-09

     Est. extremal eigenvalues     -0.92848     1.70501  converged:  T
     TRS4 it   1 1.00000000   0.896E+00       0.000       16.128   0.100E-07
     TRS4 it   2 1.00000000   0.631E+00       0.001       32.256   0.100E-07
     TRS4 it   3 1.00000000   0.433E+00       0.001       32.256   0.100E-07
     TRS4 it   4 1.00000000   0.227E+00       0.001       32.256   0.100E-07
     TRS4 it   5 1.00000000   0.770E-01       0.001       32.256   0.100E-07
     TRS4 it   6 1.00000000   0.104E-01       0.001       32.256   0.100E-07
     TRS4 it   7 1.00000000   0.224E-03       0.001       32.256   0.100E-07
     TRS4 it   8 1.00000000   0.132E-06       0.001       32.256   0.100E-07
     TRS4 it   9 1.00000000   0.620E-13       0.001       32.256   0.100E-07
     Final TRS4 iteration    9 1.00000000   0.620E-13
     Chemical potential (mu):       0.00959
 
 PAO| energy:  -7.7251501400744642      penalty:   1.4232685184252501E-005
 PAO|LS| adapt:  T T F
 PAO|LS| adapt: scan_steps:    0.0000000000000000       0.28465351083309198        0.0000000000000000     
 PAO|LS| adapt: energies:   -7.7229730424475349       -7.7251501400744642        0.0000000000000000     
 PAO| ======================= Iteration:        14 =============================

     Lanczos converged:  T threshold:   0.100E-02
     Est. extremal eigenvalues:    0.268E+01   0.185E+00
     Est. condition number :    0.145E+02

 Order=           3
     NS sqrt iter    1 1.00000000   0.682E+00       0.001       58.403
     NS sqrt iter    2 1.00000000   0.307E+00       0.001       98.721
     NS sqrt iter    3 1.00000000   0.651E-01       0.001       98.294
     NS sqrt iter    4 1.00000000   0.134E-02       0.001       98.304
     NS sqrt iter    5 1.00000000   0.261E-07       0.001       52.691
     Symmetrizing Results
     Final NS sqrt iter    5 1.00000000   0.352E-08

     Est. extremal eigenvalues     -0.92850     1.69887  converged:  T
     TRS4 it   1 1.00000000   0.896E+00       0.000       16.128   0.100E-07
     TRS4 it   2 1.00000000   0.628E+00       0.001       32.256   0.100E-07
     TRS4 it   3 1.00000000   0.429E+00       0.001       32.256   0.100E-07
     TRS4 it   4 1.00000000   0.222E+00       0.001       32.256   0.100E-07
     TRS4 it   5 1.00000000   0.733E-01       0.001       32.256   0.100E-07
     TRS4 it   6 1.00000000   0.935E-02       0.001       32.256   0.100E-07
     TRS4 it   7 1.00000000   0.177E-03       0.001       32.256   0.100E-07
     TRS4 it   8 1.00000000   0.787E-07       0.001       32.256   0.100E-07
     Final TRS4 iteration    8 1.00000000   0.787E-07
     Chemical potential (mu):       0.00959
 
 PAO| energy:  -7.7246279405659459      penalty:   1.5048872798107399E-005
 PAO|LS| adapt:  T T T
 PAO|LS| adapt: scan_steps:    0.0000000000000000       0.28465351083309198       0.56930702166618397     
 PAO|LS| adapt: energies:   -7.7229730424475349       -7.7251501400744642       -7.7246279405659459     
 PAO|LS| adapt: suggested step_size:   0.37191188511330309     
 PAO|LS| adapt: predicted energy  -7.7252769641903773     
 PAO| ======================= Iteration:        15 =============================

     Lanczos converged:  T threshold:   0.100E-02
     Est. extremal eigenvalues:    0.271E+01   0.182E+00
     Est. condition number :    0.149E+02

 Order=           3
     NS sqrt iter    1 1.00000000   0.686E+00       0.001       58.411
     NS sqrt iter    2 1.00000000   0.312E+00       0.001       99.165
     NS sqrt iter    3 1.00000000   0.678E-01       0.001       98.012
     NS sqrt iter    4 1.00000000   0.151E-02       0.001       97.798
     NS sqrt iter    5 1.00000000   0.373E-07       0.001       58.615
     Symmetrizing Results
     Final NS sqrt iter    5 1.00000000   0.336E-08

     Est. extremal eigenvalues     -0.92854     1.70311  converged:  T
     TRS4 it   1 1.00000000   0.896E+00       0.000       16.128   0.100E-07
     TRS4 it   2 1.00000000   0.630E+00       0.001       32.256   0.100E-07
     TRS4 it   3 1.00000000   0.432E+00       0.001       32.256   0.100E-07
     TRS4 it   4 1.00000000   0.226E+00       0.001       32.256   0.100E-07
     TRS4 it   5 1.00000000   0.759E-01       0.001       32.256   0.100E-07
     TRS4 it   6 1.00000000   0.101E-01       0.001       32.256   0.100E-07
     TRS4 it   7 1.00000000   0.208E-03       0.001       32.256   0.100E-07
     TRS4 it   8 1.00000000   0.113E-06       0.001       32.256   0.100E-07
     TRS4 it   9 1.00000000   0.439E-13       0.001       32.256   0.100E-07
     Final TRS4 iteration    9 1.00000000   0.439E-13
     Chemical potential (mu):       0.01118
 
 PAO| energy:  -7.7252735623292335      penalty:   1.4428287333304176E-005
 PAO|CG| trace_G_new    2.5945111927725187E-003
 PAO|CG| trace_G_prev    1.2563656423977812E-002
 PAO|CG| trace_G_mix    1.0440896417664248E-004
 PAO|CG| trace_D    1.7975757439293721E-002
 PAO|CG| trace_D_Gnew   3.0864878848363158E-005
 PAO|CG| beta:   0.19819884789618264     
 PAO| norm of gradient:   5.0936344517176720E-002
 PAO| energy improvement:  -2.3005198816985484E-003
 PAO| step     15                   -7.725273562  0.318E-02  0.372E+00     0.058
 PAO|LS| adapt:  T F F
 PAO|LS| adapt: scan_steps:    0.0000000000000000        0.0000000000000000        0.0000000000000000     
 PAO|LS| adapt: energies:   -7.7252735623292335        0.0000000000000000        0.0000000000000000     
 PAO| ======================= Iteration:        16 =============================

     Lanczos converged:  T threshold:   0.100E-02
     Est. extremal eigenvalues:    0.270E+01   0.183E+00
     Est. condition number :    0.147E+02

 Order=           3
     NS sqrt iter    1 1.00000000   0.684E+00       0.001       57.258
     NS sqrt iter    2 1.00000000   0.311E+00       0.001       97.623
     NS sqrt iter    3 1.00000000   0.672E-01       0.001       96.380
     NS sqrt iter    4 1.00000000   0.146E-02       0.001       97.195
     NS sqrt iter    5 1.00000000   0.334E-07       0.001       56.762
     Symmetrizing Results
     Final NS sqrt iter    5 1.00000000   0.312E-08

     Est. extremal eigenvalues     -0.92858     1.70257  converged:  T
     TRS4 it   1 1.00000000   0.896E+00       0.000       16.128   0.100E-07
     TRS4 it   2 1.00000000   0.629E+00       0.001       32.256   0.100E-07
     TRS4 it   3 1.00000000   0.431E+00       0.001       32.256   0.100E-07
     TRS4 it   4 1.00000000   0.224E+00       0.001       32.256   0.100E-07
     TRS4 it   5 1.00000000   0.747E-01       0.001       32.256   0.100E-07
     TRS4 it   6 1.00000000   0.976E-02       0.001       32.256   0.100E-07
     TRS4 it   7 1.00000000   0.197E-03       0.001       32.256   0.100E-07
     TRS4 it   8 1.00000000   0.101E-06       0.001       32.256   0.100E-07
     TRS4 it   9 1.00000000   0.351E-13       0.001       32.256   0.100E-07
     Final TRS4 iteration    9 1.00000000   0.351E-13
     Chemical potential (mu):       0.01217
 
 PAO| energy:  -7.7254051235034868      penalty:   1.4232000250920741E-005
 PAO|LS| adapt:  T T F
 PAO|LS| adapt: scan_steps:    0.0000000000000000       0.37191188511330309        0.0000000000000000     
 PAO|LS| adapt: energies:   -7.7252735623292335       -7.7254051235034868        0.0000000000000000     
 PAO| ======================= Iteration:        17 =============================

     Lanczos converged:  T threshold:   0.100E-02
     Est. extremal eigenvalues:    0.269E+01   0.184E+00
     Est. condition number :    0.146E+02

 Order=           3
     NS sqrt iter    1 1.00000000   0.683E+00       0.001       58.210
     NS sqrt iter    2 1.00000000   0.310E+00       0.001       95.102
     NS sqrt iter    3 1.00000000   0.667E-01       0.001       98.305
     NS sqrt iter    4 1.00000000   0.141E-02       0.001      100.651
     NS sqrt iter    5 1.00000000   0.299E-07       0.001       55.341
     Symmetrizing Results
     Final NS sqrt iter    5 1.00000000   0.407E-08

     Est. extremal eigenvalues     -0.92847     1.70208  converged:  T
     TRS4 it   1 1.00000000   0.897E+00       0.000       16.128   0.100E-07
     TRS4 it   2 1.00000000   0.628E+00       0.001       32.256   0.100E-07
     TRS4 it   3 1.00000000   0.430E+00       0.001       32.256   0.100E-07
     TRS4 it   4 1.00000000   0.223E+00       0.001       32.256   0.100E-07
     TRS4 it   5 1.00000000   0.735E-01       0.001       32.256   0.100E-07
     TRS4 it   6 1.00000000   0.947E-02       0.001       32.256   0.100E-07
     TRS4 it   7 1.00000000   0.185E-03       0.001       32.256   0.100E-07
     TRS4 it   8 1.00000000   0.897E-07       0.001       32.256   0.100E-07
     TRS4 it   9 1.00000000   0.278E-13       0.001       32.256   0.100E-07
     Final TRS4 iteration    9 1.00000000   0.278E-13
     Chemical potential (mu):       0.01312
 
 PAO| energy:  -7.7238675508126740      penalty:   1.4151811409631917E-005
 PAO|LS| adapt:  T T T
 PAO|LS| adapt: scan_steps:    0.0000000000000000       0.37191188511330309       0.74382377022660617     
 PAO|LS| adapt: energies:   -7.7252735623292335       -7.7254051235034868       -7.7238675508126740     
 PAO|LS| adapt: suggested step_size:   0.21527004692440130     
 PAO|LS| adapt: predicted energy  -7.7255531694770667     
 PAO| ======================= Iteration:        18 =============================

     Lanczos converged:  T threshold:   0.100E-02
     Est. extremal eigenvalues:    0.270E+01   0.183E+00
     Est. condition number :    0.148E+02

 Order=           3
     NS sqrt iter    1 1.00000000   0.685E+00       0.001       57.489
     NS sqrt iter    2 1.00000000   0.312E+00       0.001       98.526
     NS sqrt iter    3 1.00000000   0.675E-01       0.001       98.510
     NS sqrt iter    4 1.00000000   0.148E-02       0.001       97.942
     NS sqrt iter    5 1.00000000   0.350E-07       0.001       58.095
     Symmetrizing Results
     Final NS sqrt iter    5 1.00000000   0.324E-08

     Est. extremal eigenvalues     -0.92858     1.70279  converged:  T
     TRS4 it   1 1.00000000   0.896E+00       0.000       16.128   0.100E-07
     TRS4 it   2 1.00000000   0.630E+00       0.001       32.256   0.100E-07
     TRS4 it   3 1.00000000   0.431E+00       0.001       32.256   0.100E-07
     TRS4 it   4 1.00000000   0.225E+00       0.001       32.256   0.100E-07
     TRS4 it   5 1.00000000   0.752E-01       0.001       32.256   0.100E-07
     TRS4 it   6 1.00000000   0.989E-02       0.001       32.256   0.100E-07
     TRS4 it   7 1.00000000   0.201E-03       0.001       32.256   0.100E-07
     TRS4 it   8 1.00000000   0.105E-06       0.001       32.256   0.100E-07
     TRS4 it   9 1.00000000   0.385E-13       0.001       32.256   0.100E-07
     Final TRS4 iteration    9 1.00000000   0.385E-13
     Chemical potential (mu):       0.01175
 
 PAO| energy:  -7.7255525916466077      penalty:   1.4300785561125891E-005
 PAO|CG| trace_G_new    7.7621392585609534E-004
 PAO|CG| trace_G_prev    2.5945111927725187E-003
 PAO|CG| trace_G_mix    1.6484333821280590E-006
 PAO|CG| trace_D    3.2884142101898104E-003
 PAO|CG| trace_D_Gnew  -2.1965090185881453E-006
 PAO|CG| beta:   0.29854004663061767     
 PAO| norm of gradient:   2.7860616035114791E-002
 PAO| energy improvement:  -2.7902931737422421E-004
 PAO| step     18                   -7.725552592  0.174E-02  0.215E+00     0.074
 PAO|LS| adapt:  T F F
 PAO|LS| adapt: scan_steps:    0.0000000000000000        0.0000000000000000        0.0000000000000000     
 PAO|LS| adapt: energies:   -7.7255525916466077        0.0000000000000000        0.0000000000000000     
 PAO| ======================= Iteration:        19 =============================

     Lanczos converged:  T threshold:   0.100E-02
     Est. extremal eigenvalues:    0.270E+01   0.183E+00
     Est. condition number :    0.148E+02

 Order=           3
     NS sqrt iter    1 1.00000000   0.685E+00       0.001       57.811
     NS sqrt iter    2 1.00000000   0.312E+00       0.001       98.450
     NS sqrt iter    3 1.00000000   0.676E-01       0.001       98.876
     NS sqrt iter    4 1.00000000   0.148E-02       0.001      101.193
     NS sqrt iter    5 1.00000000   0.350E-07       0.001       56.968
     Symmetrizing Results
     Final NS sqrt iter    5 1.00000000   0.329E-08

     Est. extremal eigenvalues     -0.92858     1.70284  converged:  T
     TRS4 it   1 1.00000000   0.896E+00       0.000       16.128   0.100E-07
     TRS4 it   2 1.00000000   0.629E+00       0.001       32.256   0.100E-07
     TRS4 it   3 1.00000000   0.431E+00       0.001       32.256   0.100E-07
     TRS4 it   4 1.00000000   0.225E+00       0.001       32.256   0.100E-07
     TRS4 it   5 1.00000000   0.750E-01       0.001       32.256   0.100E-07
     TRS4 it   6 1.00000000   0.987E-02       0.001       32.256   0.100E-07
     TRS4 it   7 1.00000000   0.202E-03       0.001       32.256   0.100E-07
     TRS4 it   8 1.00000000   0.107E-06       0.001       32.256   0.100E-07
     TRS4 it   9 1.00000000   0.393E-13       0.001       32.256   0.100E-07
     Final TRS4 iteration    9 1.00000000   0.393E-13
     Chemical potential (mu):       0.01154
 
 PAO| energy:  -7.7256789160463528      penalty:   1.4023788079527168E-005
 PAO|LS| adapt:  T T F
 PAO|LS| adapt: scan_steps:    0.0000000000000000       0.21527004692440130        0.0000000000000000     
 PAO|LS| adapt: energies:   -7.7255525916466077       -7.7256789160463528        0.0000000000000000     
 PAO| ======================= Iteration:        20 =============================

     Lanczos converged:  T threshold:   0.100E-02
     Est. extremal eigenvalues:    0.270E+01   0.183E+00
     Est. condition number :    0.148E+02

 Order=           3
     NS sqrt iter    1 1.00000000   0.685E+00       0.001       58.068
     NS sqrt iter    2 1.00000000   0.312E+00       0.001       98.137
     NS sqrt iter    3 1.00000000   0.678E-01       0.001       99.562
     NS sqrt iter    4 1.00000000   0.149E-02       0.001       98.456
     NS sqrt iter    5 1.00000000   0.349E-07       0.001       57.918
     Symmetrizing Results
     Final NS sqrt iter    5 1.00000000   0.334E-08

     Est. extremal eigenvalues     -0.92858     1.70290  converged:  T
     TRS4 it   1 1.00000000   0.896E+00       0.000       16.128   0.100E-07
     TRS4 it   2 1.00000000   0.629E+00       0.001       32.256   0.100E-07
     TRS4 it   3 1.00000000   0.431E+00       0.001       32.256   0.100E-07
     TRS4 it   4 1.00000000   0.225E+00       0.001       32.256   0.100E-07
     TRS4 it   5 1.00000000   0.749E-01       0.001       32.256   0.100E-07
     TRS4 it   6 1.00000000   0.986E-02       0.001       32.256   0.100E-07
     TRS4 it   7 1.00000000   0.202E-03       0.001       32.256   0.100E-07
     TRS4 it   8 1.00000000   0.108E-06       0.001       32.256   0.100E-07
     TRS4 it   9 1.00000000   0.407E-13       0.001       32.256   0.100E-07
     Final TRS4 iteration    9 1.00000000   0.407E-13
     Chemical potential (mu):       0.01133
 
 PAO| energy:  -7.7257229116147403      penalty:   1.3759642702393965E-005
 PAO|LS| adapt:  T T F
 PAO|LS| adapt: scan_steps:    0.0000000000000000       0.43054009384880260        0.0000000000000000     
 PAO|LS| adapt: energies:   -7.7255525916466077       -7.7257229116147403        0.0000000000000000     
 PAO| ======================= Iteration:        21 =============================

     Lanczos converged:  T threshold:   0.100E-02
     Est. extremal eigenvalues:    0.270E+01   0.183E+00
     Est. condition number :    0.148E+02

 Order=           3
     NS sqrt iter    1 1.00000000   0.685E+00       0.001       58.437
     NS sqrt iter    2 1.00000000   0.312E+00       0.001       98.139
     NS sqrt iter    3 1.00000000   0.682E-01       0.001       98.214
     NS sqrt iter    4 1.00000000   0.150E-02       0.001       98.432
     NS sqrt iter    5 1.00000000   0.349E-07       0.017        3.619
     Symmetrizing Results
     Final NS sqrt iter    5 1.00000000   0.406E-08

     Est. extremal eigenvalues     -0.92857     1.70302  converged:  T
     TRS4 it   1 1.00000000   0.896E+00       0.000       16.128   0.100E-07
     TRS4 it   2 1.00000000   0.629E+00       0.001       32.256   0.100E-07
     TRS4 it   3 1.00000000   0.431E+00       0.001       32.256   0.100E-07
     TRS4 it   4 1.00000000   0.224E+00       0.001       32.256   0.100E-07
     TRS4 it   5 1.00000000   0.746E-01       0.001       32.256   0.100E-07
     TRS4 it   6 1.00000000   0.982E-02       0.001       32.256   0.100E-07
     TRS4 it   7 1.00000000   0.202E-03       0.001       32.256   0.100E-07
     TRS4 it   8 1.00000000   0.110E-06       0.001       32.256   0.100E-07
     TRS4 it   9 1.00000000   0.421E-13       0.001       32.256   0.100E-07
     Final TRS4 iteration    9 1.00000000   0.421E-13
     Chemical potential (mu):       0.01089
 
 PAO| energy:  -7.7255609043169819      penalty:   1.3269430749885821E-005
 PAO|LS| Need extra step
 PAO|LS| adapt:  T T T
 PAO|LS| adapt: scan_steps:    0.0000000000000000       0.43054009384880260       0.86108018769760519     
 PAO|LS| adapt: energies:   -7.7255525916466077       -7.7257229116147403       -7.7255609043169819     
 PAO|LS| adapt: suggested step_size:   0.43592475266317166     
 PAO|LS| adapt: predicted energy  -7.7257229376058714     
 PAO| ======================= Iteration:        22 =============================

     Lanczos converged:  T threshold:   0.100E-02
     Est. extremal eigenvalues:    0.270E+01   0.183E+00
     Est. condition number :    0.148E+02

 Order=           3
     NS sqrt iter    1 1.00000000   0.685E+00       0.001       57.738
     NS sqrt iter    2 1.00000000   0.312E+00       0.001       99.639
     NS sqrt iter    3 1.00000000   0.678E-01       0.001      100.692
     NS sqrt iter    4 1.00000000   0.149E-02       0.017        6.430
     NS sqrt iter    5 1.00000000   0.349E-07       0.001       57.288
     Symmetrizing Results
     Final NS sqrt iter    5 1.00000000   0.334E-08

     Est. extremal eigenvalues     -0.92858     1.70290  converged:  T
     TRS4 it   1 1.00000000   0.896E+00       0.000       16.128   0.100E-07
     TRS4 it   2 1.00000000   0.629E+00       0.001       32.256   0.100E-07
     TRS4 it   3 1.00000000   0.431E+00       0.001       32.256   0.100E-07
     TRS4 it   4 1.00000000   0.225E+00       0.001       32.256   0.100E-07
     TRS4 it   5 1.00000000   0.749E-01       0.001       32.256   0.100E-07
     TRS4 it   6 1.00000000   0.986E-02       0.001       32.256   0.100E-07
     TRS4 it   7 1.00000000   0.202E-03       0.001       32.256   0.100E-07
     TRS4 it   8 1.00000000   0.108E-06       0.001       32.256   0.100E-07
     TRS4 it   9 1.00000000   0.411E-13       0.001       32.256   0.100E-07
     Final TRS4 iteration    9 1.00000000   0.411E-13
     Chemical potential (mu):       0.01132
 
 PAO| energy:  -7.7257229502034441      penalty:   1.3753198846401737E-005
 PAO|CG| trace_G_new    2.2274453048246000E-004
 PAO|CG| trace_G_prev    7.7621392585609534E-004
 PAO|CG| trace_G_mix    4.0716083074458839E-006
 PAO|CG| trace_D    1.0706091468751738E-003
 PAO|CG| trace_D_Gnew  -2.3386444470966498E-006
 PAO|CG| beta:   0.28171733962881074     
 PAO| norm of gradient:   1.4924628319742506E-002
 PAO| energy improvement:  -1.7035855683644741E-004
 PAO| step     22                   -7.725722950  0.933E-03  0.436E+00     0.152
 PAO|LS| adapt:  T F F
 PAO|LS| adapt: scan_steps:    0.0000000000000000        0.0000000000000000        0.0000000000000000     
 PAO|LS| adapt: energies:   -7.7257229502034441        0.0000000000000000        0.0000000000000000     
 PAO| ======================= Iteration:        23 =============================

     Lanczos converged:  T threshold:   0.100E-02
     Est. extremal eigenvalues:    0.270E+01   0.183E+00
     Est. condition number :    0.148E+02

 Order=           3
     NS sqrt iter    1 1.00000000   0.685E+00       0.001       57.830
     NS sqrt iter    2 1.00000000   0.312E+00       0.001       97.558
     NS sqrt iter    3 1.00000000   0.678E-01       0.001       98.418
     NS sqrt iter    4 1.00000000   0.148E-02       0.001       97.340
     NS sqrt iter    5 1.00000000   0.345E-07       0.001       56.859
     Symmetrizing Results
     Final NS sqrt iter    5 1.00000000   0.332E-08

     Est. extremal eigenvalues     -0.92858     1.70288  converged:  T
     TRS4 it   1 1.00000000   0.896E+00       0.000       16.128   0.100E-07
     TRS4 it   2 1.00000000   0.629E+00       0.001       32.256   0.100E-07
     TRS4 it   3 1.00000000   0.431E+00       0.001       32.256   0.100E-07
     TRS4 it   4 1.00000000   0.225E+00       0.001       32.256   0.100E-07
     TRS4 it   5 1.00000000   0.750E-01       0.001       32.256   0.100E-07
     TRS4 it   6 1.00000000   0.990E-02       0.017        1.927   0.100E-07
     TRS4 it   7 1.00000000   0.204E-03       0.001       32.256   0.100E-07
     TRS4 it   8 1.00000000   0.110E-06       0.001       32.256   0.100E-07
     TRS4 it   9 1.00000000   0.423E-13       0.001       32.256   0.100E-07
     Final TRS4 iteration    9 1.00000000   0.423E-13
     Chemical potential (mu):       0.01108
 
 PAO| energy:  -7.7257665857851174      penalty:   1.3130234408684935E-005
 PAO|LS| adapt:  T T F
 PAO|LS| adapt: scan_steps:    0.0000000000000000       0.43592475266317166        0.0000000000000000     
 PAO|LS| adapt: energies:   -7.7257229502034441       -7.7257665857851174        0.0000000000000000     
 PAO| ======================= Iteration:        24 =============================

     Lanczos converged:  T threshold:   0.100E-02
     Est. extremal eigenvalues:    0.270E+01   0.183E+00
     Est. condition number :    0.148E+02

 Order=           3
     NS sqrt iter    1 1.00000000   0.685E+00       0.001       59.539
     NS sqrt iter    2 1.00000000   0.312E+00       0.001      100.633
     NS sqrt iter    3 1.00000000   0.678E-01       0.001       95.810
     NS sqrt iter    4 1.00000000   0.148E-02       0.001       99.297
     NS sqrt iter    5 1.00000000   0.341E-07       0.001       58.265
     Symmetrizing Results
     Final NS sqrt iter    5 1.00000000   0.330E-08

     Est. extremal eigenvalues     -0.92858     1.70285  converged:  T
     TRS4 it   1 1.00000000   0.896E+00       0.000       16.128   0.100E-07
     TRS4 it   2 1.00000000   0.630E+00       0.001       32.256   0.100E-07
     TRS4 it   3 1.00000000   0.431E+00       0.001       32.256   0.100E-07
     TRS4 it   4 1.00000000   0.225E+00       0.017        1.923   0.100E-07
     TRS4 it   5 1.00000000   0.752E-01       0.001       32.256   0.100E-07
     TRS4 it   6 1.00000000   0.995E-02       0.001       32.256   0.100E-07
     TRS4 it   7 1.00000000   0.206E-03       0.001       32.256   0.100E-07
     TRS4 it   8 1.00000000   0.113E-06       0.001       32.256   0.100E-07
     TRS4 it   9 1.00000000   0.435E-13       0.001       32.256   0.100E-07
     Final TRS4 iteration    9 1.00000000   0.435E-13
     Chemical potential (mu):       0.01083
 
 PAO| energy:  -7.7257021364098142      penalty:   1.2532343711407359E-005
 PAO|LS| adapt:  T T T
 PAO|LS| adapt: scan_steps:    0.0000000000000000       0.43592475266317166       0.87184950532634331     
 PAO|LS| adapt: energies:   -7.7257229502034441       -7.7257665857851174       -7.7257021364098142     
 PAO|LS| adapt: suggested step_size:   0.39395199302149048     
 PAO|LS| adapt: predicted energy  -7.7257670867961021     
 PAO| ======================= Iteration:        25 =============================

     Lanczos converged:  T threshold:   0.100E-02
     Est. extremal eigenvalues:    0.270E+01   0.183E+00
     Est. condition number :    0.148E+02

 Order=           3
     NS sqrt iter    1 1.00000000   0.685E+00       0.001       58.810
     NS sqrt iter    2 1.00000000   0.312E+00       0.001       98.220
     NS sqrt iter    3 1.00000000   0.678E-01       0.001       98.331
     NS sqrt iter    4 1.00000000   0.148E-02       0.001       97.510
     NS sqrt iter    5 1.00000000   0.346E-07       0.001       56.781
     Symmetrizing Results
     Final NS sqrt iter    5 1.00000000   0.332E-08

     Est. extremal eigenvalues     -0.92858     1.70288  converged:  T
     TRS4 it   1 1.00000000   0.896E+00       0.016        0.980   0.100E-07
     TRS4 it   2 1.00000000   0.629E+00       0.001       32.256   0.100E-07
     TRS4 it   3 1.00000000   0.431E+00       0.001       32.256   0.100E-07
     TRS4 it   4 1.00000000   0.225E+00       0.001       32.256   0.100E-07
     TRS4 it   5 1.00000000   0.750E-01       0.001       32.256   0.100E-07
     TRS4 it   6 1.00000000   0.990E-02       0.001       32.256   0.100E-07
     TRS4 it   7 1.00000000   0.204E-03       0.001       32.256   0.100E-07
     TRS4 it   8 1.00000000   0.110E-06       0.001       32.256   0.100E-07
     TRS4 it   9 1.00000000   0.416E-13       0.001       32.256   0.100E-07
     Final TRS4 iteration    9 1.00000000   0.416E-13
     Chemical potential (mu):       0.01110
 
 PAO| energy:  -7.7257670729331203      penalty:   1.3189117139645864E-005
 PAO|CG| trace_G_new    7.2879576171115733E-005
 PAO|CG| trace_G_prev    2.2274453048246000E-004
 PAO|CG| trace_G_mix    3.4460391205913715E-007
 PAO|CG| trace_D    3.0903073420957141E-004
 PAO|CG| trace_D_Gnew  -3.2410561244420316E-007
 PAO|CG| beta:   0.32564199040913538     
 PAO| norm of gradient:   8.5369535650087567E-003
 PAO| energy improvement:  -4.4122729676132622E-005
 PAO| step     25                   -7.725767073  0.534E-03  0.394E+00     0.106
 PAO|LS| adapt:  T F F
 PAO|LS| adapt: scan_steps:    0.0000000000000000        0.0000000000000000        0.0000000000000000     
 PAO|LS| adapt: energies:   -7.7257670729331203        0.0000000000000000        0.0000000000000000     
 PAO| ======================= Iteration:        26 =============================

     Lanczos converged:  T threshold:   0.100E-02
     Est. extremal eigenvalues:    0.270E+01   0.183E+00
     Est. condition number :    0.148E+02

 Order=           3
     NS sqrt iter    1 1.00000000   0.685E+00       0.001       57.345
     NS sqrt iter    2 1.00000000   0.312E+00       0.017        6.438
     NS sqrt iter    3 1.00000000   0.677E-01       0.001       97.683
     NS sqrt iter    4 1.00000000   0.148E-02       0.001       98.879
     NS sqrt iter    5 1.00000000   0.342E-07       0.001       57.717
     Symmetrizing Results
     Final NS sqrt iter    5 1.00000000   0.325E-08

     Est. extremal eigenvalues     -0.92858     1.70259  converged:  T
     TRS4 it   1 1.00000000   0.896E+00       0.000       16.128   0.100E-07
     TRS4 it   2 1.00000000   0.629E+00       0.001       32.256   0.100E-07
     TRS4 it   3 1.00000000   0.431E+00       0.001       32.256   0.100E-07
     TRS4 it   4 1.00000000   0.225E+00       0.001       32.256   0.100E-07
     TRS4 it   5 1.00000000   0.750E-01       0.001       32.256   0.100E-07
     TRS4 it   6 1.00000000   0.988E-02       0.001       32.256   0.100E-07
     TRS4 it   7 1.00000000   0.203E-03       0.001       32.256   0.100E-07
     TRS4 it   8 1.00000000   0.109E-06       0.001       32.256   0.100E-07
     TRS4 it   9 1.00000000   0.410E-13       0.001       32.256   0.100E-07
     Final TRS4 iteration    9 1.00000000   0.410E-13
     Chemical potential (mu):       0.01121
 
 PAO| energy:  -7.7257724516185453      penalty:   1.2593613071165709E-005
 PAO|LS| adapt:  T T F
 PAO|LS| adapt: scan_steps:    0.0000000000000000       0.39395199302149048        0.0000000000000000     
 PAO|LS| adapt: energies:   -7.7257670729331203       -7.7257724516185453        0.0000000000000000     
 PAO| ======================= Iteration:        27 =============================

     Lanczos converged:  T threshold:   0.100E-02
     Est. extremal eigenvalues:    0.270E+01   0.183E+00
     Est. condition number :    0.147E+02

 Order=           3
     NS sqrt iter    1 1.00000000   0.685E+00       0.017        3.752
     NS sqrt iter    2 1.00000000   0.312E+00       0.001       97.738
     NS sqrt iter    3 1.00000000   0.677E-01       0.001      100.890
     NS sqrt iter    4 1.00000000   0.147E-02       0.001       99.773
     NS sqrt iter    5 1.00000000   0.339E-07       0.001       58.258
     Symmetrizing Results
     Final NS sqrt iter    5 1.00000000   0.318E-08

     Est. extremal eigenvalues     -0.92858     1.70229  converged:  T
     TRS4 it   1 1.00000000   0.896E+00       0.000       16.128   0.100E-07
     TRS4 it   2 1.00000000   0.629E+00       0.001       32.256   0.100E-07
     TRS4 it   3 1.00000000   0.431E+00       0.001       32.256   0.100E-07
     TRS4 it   4 1.00000000   0.224E+00       0.001       32.256   0.100E-07
     TRS4 it   5 1.00000000   0.749E-01       0.001       32.256   0.100E-07
     TRS4 it   6 1.00000000   0.987E-02       0.001       32.256   0.100E-07
     TRS4 it   7 1.00000000   0.202E-03       0.001       32.256   0.100E-07
     TRS4 it   8 1.00000000   0.108E-06       0.001       32.256   0.100E-07
     TRS4 it   9 1.00000000   0.400E-13       0.001       32.256   0.100E-07
     Final TRS4 iteration    9 1.00000000   0.400E-13
     Chemical potential (mu):       0.01133
 
 PAO| energy:  -7.7257310147314984      penalty:   1.2014538833087731E-005
 PAO|LS| adapt:  T T T
 PAO|LS| adapt: scan_steps:    0.0000000000000000       0.39395199302149048       0.78790398604298095     
 PAO|LS| adapt: energies:   -7.7257670729331203       -7.7257724516185453       -7.7257310147314984     
 PAO|LS| adapt: suggested step_size:   0.24223751380399031     
 PAO|LS| adapt: predicted energy  -7.7257759232035212     
 PAO| ======================= Iteration:        28 =============================

     Lanczos converged:  T threshold:   0.100E-02
     Est. extremal eigenvalues:    0.270E+01   0.183E+00
     Est. condition number :    0.148E+02

 Order=           3
     NS sqrt iter    1 1.00000000   0.685E+00       0.001       57.475
     NS sqrt iter    2 1.00000000   0.312E+00       0.001      101.586
     NS sqrt iter    3 1.00000000   0.678E-01       0.017        6.446
     NS sqrt iter    4 1.00000000   0.148E-02       0.001      100.565
     NS sqrt iter    5 1.00000000   0.343E-07       0.001       58.381
     Symmetrizing Results
     Final NS sqrt iter    5 1.00000000   0.328E-08

     Est. extremal eigenvalues     -0.92858     1.70270  converged:  T
     TRS4 it   1 1.00000000   0.896E+00       0.000       16.128   0.100E-07
     TRS4 it   2 1.00000000   0.629E+00       0.001       32.256   0.100E-07
     TRS4 it   3 1.00000000   0.431E+00       0.001       32.256   0.100E-07
     TRS4 it   4 1.00000000   0.225E+00       0.001       32.256   0.100E-07
     TRS4 it   5 1.00000000   0.750E-01       0.001       32.256   0.100E-07
     TRS4 it   6 1.00000000   0.989E-02       0.001       32.256   0.100E-07
     TRS4 it   7 1.00000000   0.203E-03       0.001       32.256   0.100E-07
     TRS4 it   8 1.00000000   0.109E-06       0.001       32.256   0.100E-07
     TRS4 it   9 1.00000000   0.415E-13       0.001       32.256   0.100E-07
     Final TRS4 iteration    9 1.00000000   0.415E-13
     Chemical potential (mu):       0.01117
 
 PAO| energy:  -7.7257759177593721      penalty:   1.2820992314726309E-005
 PAO|CG| trace_G_new    2.4542002734175008E-005
 PAO|CG| trace_G_prev    7.2879576171115733E-005
 PAO|CG| trace_G_mix    4.7703615771524693E-008
 PAO|CG| trace_D    1.0586111623188677E-004
 PAO|CG| trace_D_Gnew  -2.3794241415801124E-008
 PAO|CG| beta:   0.33609277667714094     
 PAO| norm of gradient:   4.9539885682321682E-003
 PAO| energy improvement:  -8.8448262518525667E-006
 PAO| step     28                   -7.725775918  0.310E-03  0.242E+00     0.135
 PAO|LS| adapt:  T F F
 PAO|LS| adapt: scan_steps:    0.0000000000000000        0.0000000000000000        0.0000000000000000     
 PAO|LS| adapt: energies:   -7.7257759177593721        0.0000000000000000        0.0000000000000000     
 PAO| ======================= Iteration:        29 =============================

     Lanczos converged:  T threshold:   0.100E-02
     Est. extremal eigenvalues:    0.270E+01   0.183E+00
     Est. condition number :    0.148E+02

 Order=           3
     NS sqrt iter    1 1.00000000   0.685E+00       0.001       58.395
     NS sqrt iter    2 1.00000000   0.312E+00       0.001       97.795
     NS sqrt iter    3 1.00000000   0.677E-01       0.001       98.057
     NS sqrt iter    4 1.00000000   0.148E-02       0.001      100.509
     NS sqrt iter    5 1.00000000   0.343E-07       0.001       57.420
     Symmetrizing Results
     Final NS sqrt iter    5 1.00000000   0.324E-08

     Est. extremal eigenvalues     -0.92858     1.70268  converged:  T
     TRS4 it   1 1.00000000   0.896E+00       0.000       16.128   0.100E-07
     TRS4 it   2 1.00000000   0.629E+00       0.001       32.256   0.100E-07
     TRS4 it   3 1.00000000   0.431E+00       0.001       32.256   0.100E-07
     TRS4 it   4 1.00000000   0.225E+00       0.017        1.930   0.100E-07
     TRS4 it   5 1.00000000   0.749E-01       0.001       32.256   0.100E-07
     TRS4 it   6 1.00000000   0.987E-02       0.001       32.256   0.100E-07
     TRS4 it   7 1.00000000   0.202E-03       0.001       32.256   0.100E-07
     TRS4 it   8 1.00000000   0.108E-06       0.001       32.256   0.100E-07
     TRS4 it   9 1.00000000   0.401E-13       0.001       32.256   0.100E-07
     Final TRS4 iteration    9 1.00000000   0.401E-13
     Chemical potential (mu):       0.01129
 
 PAO| energy:  -7.7257811813682880      penalty:   1.2448269013061425E-005
 PAO|LS| adapt:  T T F
 PAO|LS| adapt: scan_steps:    0.0000000000000000       0.24223751380399031        0.0000000000000000     
 PAO|LS| adapt: energies:   -7.7257759177593721       -7.7257811813682880        0.0000000000000000     
 PAO| ======================= Iteration:        30 =============================

     Lanczos converged:  T threshold:   0.100E-02
     Est. extremal eigenvalues:    0.270E+01   0.183E+00
     Est. condition number :    0.148E+02

 Order=           3
     NS sqrt iter    1 1.00000000   0.685E+00       0.001       58.732
     NS sqrt iter    2 1.00000000   0.312E+00       0.001       97.167
     NS sqrt iter    3 1.00000000   0.677E-01       0.001       98.284
     NS sqrt iter    4 1.00000000   0.148E-02       0.001       99.448
     NS sqrt iter    5 1.00000000   0.342E-07       0.001       59.042
     Symmetrizing Results
     Final NS sqrt iter    5 1.00000000   0.320E-08

     Est. extremal eigenvalues     -0.92858     1.70266  converged:  T
     TRS4 it   1 1.00000000   0.896E+00       0.000       16.128   0.100E-07
     TRS4 it   2 1.00000000   0.629E+00       0.017        1.926   0.100E-07
     TRS4 it   3 1.00000000   0.431E+00       0.001       32.256   0.100E-07
     TRS4 it   4 1.00000000   0.224E+00       0.001       32.256   0.100E-07
     TRS4 it   5 1.00000000   0.749E-01       0.001       32.256   0.100E-07
     TRS4 it   6 1.00000000   0.985E-02       0.001       32.256   0.100E-07
     TRS4 it   7 1.00000000   0.202E-03       0.001       32.256   0.100E-07
     TRS4 it   8 1.00000000   0.107E-06       0.001       32.256   0.100E-07
     TRS4 it   9 1.00000000   0.399E-13       0.001       32.256   0.100E-07
     Final TRS4 iteration    9 1.00000000   0.399E-13
     Chemical potential (mu):       0.01141
 
 PAO| energy:  -7.7257850786999169      penalty:   1.2081514521602700E-005
 PAO|LS| adapt:  T T F
 PAO|LS| adapt: scan_steps:    0.0000000000000000       0.48447502760798061        0.0000000000000000     
 PAO|LS| adapt: energies:   -7.7257759177593721       -7.7257850786999169        0.0000000000000000     
 PAO| ======================= Iteration:        31 =============================

     Lanczos converged:  T threshold:   0.100E-02
     Est. extremal eigenvalues:    0.270E+01   0.183E+00
     Est. condition number :    0.148E+02

 Order=           3
     NS sqrt iter    1 1.00000000   0.684E+00       0.001       58.147
     NS sqrt iter    2 1.00000000   0.312E+00       0.001       97.913
     NS sqrt iter    3 1.00000000   0.676E-01       0.001       99.719
     NS sqrt iter    4 1.00000000   0.148E-02       0.001       98.329
     NS sqrt iter    5 1.00000000   0.341E-07       0.001       57.410
     Symmetrizing Results
     Final NS sqrt iter    5 1.00000000   0.238E-08

     Est. extremal eigenvalues     -0.92859     1.70262  converged:  T
     TRS4 it   1 1.00000000   0.897E+00       0.000       16.128   0.100E-07
     TRS4 it   2 1.00000000   0.629E+00       0.001       32.256   0.100E-07
     TRS4 it   3 1.00000000   0.431E+00       0.001       32.256   0.100E-07
     TRS4 it   4 1.00000000   0.224E+00       0.001       32.256   0.100E-07
     TRS4 it   5 1.00000000   0.747E-01       0.001       32.256   0.100E-07
     TRS4 it   6 1.00000000   0.981E-02       0.001       32.256   0.100E-07
     TRS4 it   7 1.00000000   0.200E-03       0.001       32.256   0.100E-07
     TRS4 it   8 1.00000000   0.105E-06       0.001       32.256   0.100E-07
     TRS4 it   9 1.00000000   0.375E-13       0.001       32.256   0.100E-07
     Final TRS4 iteration    9 1.00000000   0.375E-13
     Chemical potential (mu):       0.01164
 
 PAO| energy:  -7.7257887765934621      penalty:   1.1365827834602992E-005
 PAO|LS| Need extra step
 PAO|LS| adapt:  T T F
 PAO|LS| adapt: scan_steps:    0.0000000000000000       0.96895005521596123        0.0000000000000000     
 PAO|LS| adapt: energies:   -7.7257759177593721       -7.7257887765934621        0.0000000000000000     
 PAO| ======================= Iteration:        32 =============================

     Lanczos converged:  T threshold:   0.100E-02
     Est. extremal eigenvalues:    0.270E+01   0.183E+00
     Est. condition number :    0.148E+02

 Order=           3
     NS sqrt iter    1 1.00000000   0.684E+00       0.001       58.266
     NS sqrt iter    2 1.00000000   0.311E+00       0.001       98.256
[...]
     NS sqrt iter    5 1.00000000   0.276E-09       0.001       36.864
     Symmetrizing Results
     Final NS sqrt iter    5 1.00000000   0.992E-11

     Est. extremal eigenvalues     -0.92840     1.41470  converged:  T
     TRS4 it   1 1.00000000   0.821E+00       0.001       16.128   0.100E-07
     TRS4 it   2 1.00000000   0.584E+00       0.001       32.256   0.100E-07
     TRS4 it   3 1.00000000   0.415E+00       0.001       32.256   0.100E-07
     TRS4 it   4 1.00000000   0.248E+00       0.001       32.256   0.100E-07
     TRS4 it   5 1.00000000   0.110E+00       0.001       32.256   0.100E-07
     TRS4 it   6 1.00000000   0.269E-01       0.001       32.256   0.100E-07
     TRS4 it   7 1.00000000   0.211E-02       0.001       32.256   0.100E-07
     TRS4 it   8 1.00000000   0.166E-04       0.001       32.256   0.100E-07
     TRS4 it   9 1.00000000   0.119E-08       0.001       32.256   0.100E-07
     Final TRS4 iteration    9 1.00000000   0.119E-08
     Chemical potential (mu):      -0.07192
 
 PAO| energy:  -7.7258319117842600      penalty:   1.7738767539566570E-011
 PAO|CG| warming up with steepest descent
 PAO|CG| beta:    0.0000000000000000     
 PAO| norm of gradient:   6.7431032834769948E-006
 PAO| energy improvement:  -1.1859846438255772E-011
 PAO| step    915                   -7.725831912  0.421E-06  0.237E+00     0.071
 PAO| converged after          915  steps :-)
 PAO| Recalculating energy after mixing.

     Lanczos converged:  T threshold:   0.100E-02
     Est. extremal eigenvalues:    0.252E+01   0.232E+00
     Est. condition number :    0.109E+02

 Order=           3
     NS sqrt iter    1 1.00000000   0.635E+00       0.001       63.180
     NS sqrt iter    2 1.00000000   0.266E+00       0.001      110.592
     NS sqrt iter    3 1.00000000   0.426E-01       0.001       87.800
     NS sqrt iter    4 1.00000000   0.333E-03       0.001       98.130
     NS sqrt iter    5 1.00000000   0.276E-09       0.001       36.864
     Symmetrizing Results
     Final NS sqrt iter    5 1.00000000   0.992E-11

     Est. extremal eigenvalues     -0.92840     1.41470  converged:  T
     TRS4 it   1 1.00000000   0.821E+00       0.000       16.128   0.100E-07
     TRS4 it   2 1.00000000   0.584E+00       0.001       32.256   0.100E-07
     TRS4 it   3 1.00000000   0.415E+00       0.001       32.256   0.100E-07
     TRS4 it   4 1.00000000   0.248E+00       0.001       32.256   0.100E-07
     TRS4 it   5 1.00000000   0.110E+00       0.001       32.256   0.100E-07
     TRS4 it   6 1.00000000   0.269E-01       0.001       32.256   0.100E-07
     TRS4 it   7 1.00000000   0.211E-02       0.001       32.256   0.100E-07
     TRS4 it   8 1.00000000   0.166E-04       0.001       32.256   0.100E-07
     TRS4 it   9 1.00000000   0.119E-08       0.001       32.256   0.100E-07
     Final TRS4 iteration    9 1.00000000   0.119E-08
     Chemical potential (mu):      -0.07192
 
 PAO| energy:  -7.7258319117812935      penalty:   1.7908910627130106E-011
 PAO| Writing restart file.
     Est. extremal eigenvalues     -0.92840     1.41470  converged:  T
     TRS4 it   1 1.00000000   0.821E+00       0.000       16.128   0.100E-07
     TRS4 it   2 1.00000000   0.584E+00       0.001       32.256   0.100E-07
     TRS4 it   3 1.00000000   0.415E+00       0.001       32.256   0.100E-07
     TRS4 it   4 1.00000000   0.248E+00       0.001       32.256   0.100E-07
     TRS4 it   5 1.00000000   0.110E+00       0.001       32.256   0.100E-07
     TRS4 it   6 1.00000000   0.269E-01       0.001       32.256   0.100E-07
     TRS4 it   7 1.00000000   0.211E-02       0.001       32.256   0.100E-07
     TRS4 it   8 1.00000000   0.166E-04       0.001       32.256   0.100E-07
     TRS4 it   9 1.00000000   0.119E-08       0.001       32.256   0.100E-07
     Final TRS4 iteration    9 1.00000000   0.119E-08
     Chemical potential (mu):      -0.07192

 SCF     1       -34.447703589       -34.447703589    3.466532

*********************************************************
 Using MIXING_FRACTION=0.450 to mix KS matrix:  iscf=  2
 KS_nw=0.450*KS + 0.550*KS_old
*********************************************************
     Est. extremal eigenvalues     -0.92840     1.41470  converged:  T
     TRS4 it   1 1.00000000   0.821E+00       0.000       16.128   0.100E-07
     TRS4 it   2 1.00000000   0.584E+00       0.001       32.256   0.100E-07
     TRS4 it   3 1.00000000   0.415E+00       0.001       32.256   0.100E-07
     TRS4 it   4 1.00000000   0.248E+00       0.001       32.256   0.100E-07
     TRS4 it   5 1.00000000   0.110E+00       0.001       32.256   0.100E-07
     TRS4 it   6 1.00000000   0.269E-01       0.001       32.256   0.100E-07
     TRS4 it   7 1.00000000   0.211E-02       0.001       32.256   0.100E-07
     TRS4 it   8 1.00000000   0.166E-04       0.001       32.256   0.100E-07
     TRS4 it   9 1.00000000   0.119E-08       0.001       32.256   0.100E-07
     Final TRS4 iteration    9 1.00000000   0.119E-08
     Chemical potential (mu):      -0.07192

 SCF     2       -34.447703589        -0.000000000    3.121440


 SCF run converged in     2 steps.

 PAO| Storing density matrix for ASPC guess in slot:           1

 ENERGY| Total FORCE_EVAL ( QS ) energy [a.u.]:              -34.447703589035171

 -------------------------------------------------------------------------------
 -                                                                             -
 -                                DBCSR STATISTICS                             -
 -                                                                             -
 -------------------------------------------------------------------------------
 COUNTER                                    TOTAL       BLAS       SMM       ACC
 flops     5 x     5 x     4                30000       0.0%    100.0%      0.0%
 flops    13 x     5 x     4                31200       0.0%    100.0%      0.0%
 flops     5 x    13 x     4                31200       0.0%    100.0%      0.0%
 flops    13 x    13 x     4                60840       0.0%    100.0%      0.0%
 flops     4 x     4 x     5              7153920       0.0%    100.0%      0.0%
 flops     5 x     4 x     5              8745600       0.0%    100.0%      0.0%
 flops     4 x     4 x    13              9300096       0.0%    100.0%      0.0%
 flops    13 x     4 x     5             11369280       0.0%    100.0%      0.0%
 flops     5 x     4 x    13             11369280       0.0%    100.0%      0.0%
 flops     5 x     4 x     4             13512160       0.0%    100.0%      0.0%
 flops    13 x     4 x    13             14780064       0.0%    100.0%      0.0%
 flops    13 x     4 x     4             17633824       0.0%    100.0%      0.0%
 flops     4 x     4 x     4            908044032       0.0%    100.0%      0.0%
 flops inhomo. stacks                           0       0.0%      0.0%      0.0%
 flops total                         1.002061E+09       0.0%    100.0%      0.0%
 flops max/rank                      1.002061E+09       0.0%    100.0%      0.0%
 matmuls inhomo. stacks                         0       0.0%      0.0%      0.0%
 matmuls total                            7386705       0.0%    100.0%      0.0%
 number of processed stacks                 58859       0.0%    100.0%      0.0%
 average stack size                                     0.0     125.5       0.0
 marketing flops                     1.636244E+09
 -------------------------------------------------------------------------------
 # multiplications                          49313
 max memory usage/rank             506.896384E+06
 # max total images/rank                        1
 # max 3D layers                                1
 # MPI messages exchanged                       0
 -------------------------------------------------------------------------------

 -------------------------------------------------------------------------------
 -                                                                             -
 -                                DBM STATISTICS                               -
 -                                                                             -
 -------------------------------------------------------------------------------
    M  x    N  x    K                                          COUNT     PERCENT
 -------------------------------------------------------------------------------

 -------------------------------------------------------------------------------
 -                                                                             -
 -                                GRID STATISTICS                              -
 -                                                                             -
 -------------------------------------------------------------------------------
 LP    KERNEL             BACKEND                              COUNT     PERCENT
 2     collocate ortho    REF                                  57030      30.73%
 2     integrate ortho    REF                                  57030      30.73%
 3     collocate ortho    REF                                  29370      15.83%
 3     integrate ortho    REF                                  29370      15.83%
 4     collocate ortho    REF                                   6375       3.44%
 4     integrate ortho    REF                                   6375       3.44%
 0     collocate general  REF                                      6       0.00%
 -------------------------------------------------------------------------------

 MEMORY| Estimated peak process memory [MiB]                                 484

 -------------------------------------------------------------------------------
 -                                                                             -
 -                           R E F E R E N C E S                               -
 -                                                                             -
 -------------------------------------------------------------------------------
 
 CP2K version 2023.1 (Development Version), the CP2K developers group (2023).
 CP2K is freely available from https://www.cp2k.org/ .

 Kuehne,Thomas D.; Iannuzzi,Marcella; Del Ben,Mauro;
 Rybkin,Vladimir V.; Seewald,Patrick; Stein,Frederick; Laino,Teodoro;
 Khaliullin,Rustam Z.; Schuett,Ole; Schiffmann,Florian; Golze,Dorothea;
 Wilhelm,Jan; Chulkov,Sergey; Bani-Hashemian,Mohammad Hossein;
 Weber,Valery; Borstnik,Urban; Taillefumier,Mathieu;
 Jakobovits,Alice Shoshana; Lazzaro,Alfio; Pabst,Hans; Mueller,Tiziano;
 Schade,Robert; Guidon,Manuel; Andermatt,Samuel; Holmberg,Nico;
 Schenter,Gregory K.; Hehn,Anna; Bussy,Augustin; Belleflamme,Fabian;
 Tabacchi,Gloria; Gloess,Andreas; Lass,Michael; Bethune,Iain;
 Mundy,Christopher J.; Plessl,Christian; Watkins,Matt;
 VandeVondele,Joost; Krack,Matthias; Hutter,Juerg. 
 The Journal of Chemical Physics, 152 (19), (2020). 
 CP2K: An electronic structure and molecular dynamics software package -
 Quickstep: Efficient and accurate electronic structure calculations.
 https://doi.org/10.1063/5.0007045

 Schuett, O; VandeVondele, J. 
 Journal of Chemical Theory and Computation, 14, (2018). 
 Machine Learning Adaptive Basis Sets for Efficient Large Scale
 Density Functional Theory Simulation.
 https://doi.org/10.1021/acs.jctc.8b00378

 Schuett, Ole; Messmer, Peter; Hutter, Juerg; VandeVondele, Joost. 
 Electronic Structure Calculations on Graphics Processing Units, John
 Wiley & Sons, Ltd, 173-190 (2016). 
 GPU-Accelerated Sparse Matrix-Matrix Multiplication for
 Linear Scaling Density Functional Theory.
 https://doi.org/10.1002/9781118670712.ch8

 Heinecke, A; Henry, G; Hutchinson, M; Pabst, H. 
 Proceedings of Intl. Supercomputing Conference, 981-991 (2016). 
 LIBXSMM: Accelerating Small Matrix Multiplications
 by Runtime Code Generation.
 https://doi.org/10.1109/SC.2016.83

 Borstnik, U; VandeVondele, J; Weber, V; Hutter, J. 
 PARALLEL COMPUTING, 40 (5-6), 47-58 (2014). 
 Sparse matrix multiplication: The distributed block-compressed sparse
 row library.
 https://doi.org/10.1016/j.parco.2014.03.012

 Hutter, J; Iannuzzi, M; Schiffmann, F; VandeVondele, J. 
 WIREs Comput Mol Sci., 4 (1), 15-25 (2014). 
 CP2K: atomistic simulations of condensed matter systems.
 https://doi.org/10.1002/wcms.1159

 VandeVondele, J; Borstnik, U; Hutter, J. 
 JOURNAL OF CHEMICAL THEORY AND COMPUTATION, 8 (10), 3565-3573 (2012). 
 Linear Scaling Self-Consistent Field Calculations with Millions of Atoms
 in the Condensed Phase.
 https://doi.org/10.1021/ct200897x

 VandeVondele, J; Hutter, J. 
 JOURNAL OF CHEMICAL PHYSICS, 127 (11), 114105 (2007). 
 Gaussian basis sets for accurate calculations on molecular systems in
 gas and condensed phases.
 https://doi.org/10.1063/1.2770708

 Krack, M. 
 THEORETICAL CHEMISTRY ACCOUNTS, 114 (1-3), 145-152 (2005). 
 Pseudopotentials for H to Kr optimized for gradient-corrected
 exchange-correlation functionals.
 https://doi.org/10.1007/s00214-005-0655-y

 VandeVondele, J; Krack, M; Mohamed, F; Parrinello, M; Chassaing, T;
 Hutter, J. COMPUTER PHYSICS COMMUNICATIONS, 167 (2), 103-128 (2005). 
 QUICKSTEP: Fast and accurate density functional calculations using a
 mixed Gaussian and plane waves approach.
 https://doi.org/10.1016/j.cpc.2004.12.014

 Frigo, M; Johnson, SG. 
 PROCEEDINGS OF THE IEEE, 93 (2), 216-231 (2005). 
 The design and implementation of FFTW3.
 https://doi.org/10.1109/JPROC.2004.840301

 Niklasson, AMN; Tymczak, CJ; Challacombe, M. 
 JOURNAL OF CHEMICAL PHYSICS, 118 (19), 8611-8620 (2003). 
 Trace resetting density matrix purification in O(N)
 self-consistent-field theory.
 https://doi.org/10.1063/1.1559913

 Hartwigsen, C; Goedecker, S; Hutter, J. 
 PHYSICAL REVIEW B, 58 (7), 3641-3662 (1998). 
 Relativistic separable dual-space Gaussian pseudopotentials from H to Rn.
 https://doi.org/10.1103/PhysRevB.58.3641

 Lippert, G; Hutter, J; Parrinello, M. 
 MOLECULAR PHYSICS, 92 (3), 477-487 (1997). 
 A hybrid Gaussian and plane wave density functional scheme.
 https://doi.org/10.1080/002689797170220

 Perdew, JP; Burke, K; Ernzerhof, M. 
 PHYSICAL REVIEW LETTERS, 77 (18), 3865-3868 (1996). 
 Generalized gradient approximation made simple.
 https://doi.org/10.1103/PhysRevLett.77.3865

 Goedecker, S; Teter, M; Hutter, J. 
 PHYSICAL REVIEW B, 54 (3), 1703-1710 (1996). 
 Separable dual-space Gaussian pseudopotentials.
 https://doi.org/10.1103/PhysRevB.54.1703


 -------------------------------------------------------------------------------
 -                                                                             -
 -                                T I M I N G                                  -
 -                                                                             -
 -------------------------------------------------------------------------------
 SUBROUTINE                       CALLS  ASD         SELF TIME        TOTAL TIME
                                MAXIMUM       AVERAGE  MAXIMUM  AVERAGE  MAXIMUM
 CP2K                                 1  1.0    0.020    0.020   84.420   84.420
 qs_energies                          1  2.0    0.000    0.000   83.600   83.600
 ls_scf                               1  3.0    0.000    0.000   83.348   83.348
 ls_scf_main                          7  4.0    0.002    0.002   54.531   54.531
 ls_scf_dm_to_ks                     14  5.0    0.001    0.001   54.323   54.323
 qs_ks_update_qs_env                 15  6.0    0.000    0.000   46.613   46.613
 rebuild_ks_matrix                   15  7.0    0.000    0.000   46.612   46.612
 qs_ks_build_kohn_sham_matrix        15  8.0    0.005    0.005   46.612   46.612
 qs_vxc_create                       15  9.0    0.001    0.001   27.579   27.579
 xc_vxc_pw_create                    15 10.0    0.473    0.473   27.578   27.578
 pw_transfer                        286 11.1    0.045    0.045   23.879   23.879
 fft_wrap_pw1pw2                    256 12.3    0.007    0.007   23.240   23.240
 pao_update                           7  4.0    0.020    0.020   22.972   22.972
 fft_wrap_pw1pw2_200                166 13.7    2.401    2.401   22.302   22.302
 pao_calc_energy                    921  5.0    0.007    0.007   20.730   20.730
 dbcsr_multiply_generic           49313  8.4    1.030    1.030   16.700   16.700
 xc_rho_set_and_dset_create          15 11.0    0.569    0.569   16.566   16.566
 xc_pw_derive                        90 12.0    0.003    0.003   16.245   16.245
 sum_up_and_integrate                15  9.0    0.465    0.465   14.716   14.716
 integrate_v_rspace                  15 10.0    0.002    0.002   14.251   14.251
 qs_rho_update_rho_low               15  6.0    0.000    0.000   13.442   13.442
 calculate_rho_elec                  15  7.0    0.073    0.073   13.441   13.441
 grid_integrate_task_list            15 11.0   10.961   10.961   10.961   10.961
 pao_dm_trs4                        921  6.0    0.007    0.007   10.528   10.528
 fft3d_s                            257 14.2   10.103   10.103   10.197   10.197
 xc_pw_divergence                    15 11.0    0.001    0.001   10.160   10.160
 ls_scf_init_matrix_S               928  7.0    0.007    0.007   10.155   10.155
 density_matrix_trs4                935  7.0    0.297    0.297   10.073   10.073
 pao_rebuild_S                      921  6.0    0.004    0.004   10.073   10.073
 matrix_sqrt_Newton_Schulz          928  8.0    0.236    0.236    9.171    9.171
 grid_collocate_task_list            15  8.0    8.684    8.684    8.684    8.684
 xc_functional_eval                  15 12.0    0.000    0.000    6.293    6.293
 pbe_lda_eval                        15 13.0    6.293    6.293    6.293    6.293
 make_m2s                         98626  9.4    0.384    0.384    6.236    6.236
 multiply_cannon                  49313  9.4    2.412    2.412    6.186    6.186
 pw_scatter_s                       135 14.7    5.800    5.800    5.800    5.800
 pao_guess_initial_P                  1  4.0    0.000    0.000    5.743    5.743
 pao_read_preopt_dm                   1  5.0    0.000    0.000    5.743    5.743
 make_images                      98626 10.4    1.466    1.466    5.500    5.500
 pw_gather_s                        121 13.8    4.738    4.738    4.738    4.738
 density_rs2pw                       15  8.0    0.002    0.002    4.684    4.684
 arnoldi_extremal                  1863  8.5    0.008    0.008    3.325    3.325
 arnoldi_normal_ev                 1863  9.5    0.025    0.025    3.316    3.316
 potential_pw2rs                     15 11.0    0.010    0.010    3.288    3.288
 pw_derive                           90 13.0    3.211    3.211    3.211    3.211
 build_subspace                    1863 10.5    0.152    0.152    2.525    2.525
 pw_copy                            180 11.8    2.390    2.390    2.390    2.390
 dbcsr_matrix_vector_mult         44697 11.5    0.258    0.258    2.346    2.346
 pao_calc_AB                       1212  5.8    0.002    0.002    2.233    2.233
 pao_calc_AB_equi                  1212  6.8    0.059    0.059    2.231    2.231
 pao_calc_grad_lnv_wrt_AB           290  7.0    0.013    0.013    2.031    2.031
 dbcsr_create_new                378672 10.7    1.128    1.128    1.852    1.852
 dbcsr_finalize                  117915  9.6    0.387    0.387    1.829    1.829
 -------------------------------------------------------------------------------

 The number of warnings for this run is : 0
 
 -------------------------------------------------------------------------------
  **** **** ******  **  PROGRAM ENDED AT                 2023-02-01 10:49:20.064
 ***** ** ***  *** **   PROGRAM RAN ON                                    moritz
 **    ****   ******    PROGRAM RAN BY                                       ole
 ***** **    ** ** **   PROGRAM PROCESS ID                                148752
  **** **  *******  **  PROGRAM STOPPED IN /home/ole/git/pao_ml_equivar/2H2O_MD/
                                           frame_1025
