     192
 i =     4600, time =     6900.000, E =     -1100.0687073184
  O         5.8230081386       -3.0291584853        3.2035740891
  H         5.9232956970       -4.0123979872        3.1033291679
  H         6.5848554713       -2.7919506216        3.7590013500
  O        -4.7688494797        1.9287262858        5.1123270749
  H        -4.3974633437        1.8931217444        4.2522365197
  H        -4.1289212717        1.8337907902        5.8425628794
  O         5.9890282130        4.4244232013        6.0594956010
  H         5.2334390342        3.9005994189        6.3505736806
  H         6.4597692805        3.7846713437        5.5207225555
  O        -2.5859036825       -0.2202527887       -3.4871284180
  H        -2.7572959108        0.2209866551       -2.6161635049
  H        -1.6297451508       -0.4477636142       -3.5186223878
  O        -3.2766918763        5.0424319561        4.3909485795
  H        -4.1593893922        4.6410187464        4.4477293340
  H        -3.3065219165        5.7781668270        3.7782278977
  O         8.9047495993       -0.0404516624        3.0702853114
  H         8.7619373214       -0.7062623427        3.7480021431
  H         8.1625273259       -0.3105497533        2.4266043431
  O         4.8743236949       -5.6618805350        0.2680168753
  H         4.5834530989       -4.7485151172        0.3559539139
  H         4.0367832405       -6.1227038318        0.0879979579
  O        -1.0876201372       -2.2641567650       -1.3930281530
  H        -1.9990913862       -2.7196003875       -1.3214718478
  H        -1.2332754768       -1.3977425725       -0.9337053675
  O         3.1830743602       -2.2475626368        4.1597277788
  H         4.1441561961       -2.4080873073        4.0324591602
  H         2.7980422154       -2.5643640632        3.3091271234
  O         2.6435802122        3.6037242452        5.5045145900
  H         2.0502782635        3.5299320772        4.7634357513
  H         2.2587604618        4.2091140805        6.1949415979
  O         4.5703246821       -5.1259387409       -2.8380823605
  H         4.7795162029       -4.6204401725       -2.0505350985
  H         3.7100417128       -5.0535370864       -3.2951174668
  O         2.4577153381       -2.9460789449        1.4188977556
  H         1.8806775744       -3.5968925703        0.9635160419
  H         3.2361742631       -2.9090201635        0.8430798007
  O         2.0144057397       -4.8092543004       -4.0936597382
  H         1.9421596555       -5.8042784907       -4.0444541218
  H         2.1377043816       -4.5597923158       -5.0078423737
  O         4.1436240372        4.3980458071       -2.5826836126
  H         4.4934047395        3.5456382081       -2.8758695957
  H         4.9435235815        4.9711744216       -2.5573243691
  O         3.3596705551        0.1941561345        4.9021330685
  H         3.2968335488       -0.6004684826        4.3492532260
  H         3.2088044199        0.9763232660        4.3302054950
  O        -0.4003009261        2.4224478084        7.2183332561
  H         0.2844197514        1.8454040710        6.8310072026
  H        -1.1843588549        2.1008315076        6.7583538475
  O        -1.5162329947       -4.0067324673        2.3384959398
  H        -0.8592994644       -3.9800346814        1.5979171637
  H        -1.0125549520       -4.1923109432        3.1277782174
  O        -1.6593094576        3.0602194537        3.1831183007
  H        -1.2652096178        2.3084671922        3.6564698232
  H        -2.3958956203        3.4904301364        3.6532256277
  O         1.2212056387        0.3765626078       -5.7636279311
  H         1.7432478529        0.1876341749       -6.5331237696
  H         1.8426430736        0.4656074188       -5.0510481193
  O        -0.3120145136       -0.2964247289        0.4563711592
  H        -0.7062295798       -0.6026659695        1.2725010646
  H         0.6032876096       -0.0652909590        0.5792973393
  O        -4.1296859253        2.6688254260       -3.0129724143
  H        -4.2944823784        3.6184773692       -3.0625591421
  H        -3.7536176095        2.6061884876       -2.1247416603
  O         5.9130494004        6.4978910610        3.0374672213
  H         5.4888119774        6.5562992774        2.1808845011
  H         5.1886151912        6.2910968670        3.6990062007
  O         5.3574823039       -0.7155908237       -4.2380027893
  H         5.5937162498       -0.2777572769       -5.0374872492
  H         6.1179469716       -1.2302175081       -3.8982859664
  O        -5.3486275596        5.2775451901       -2.4612545810
  H        -5.0522759796        5.9541691477       -1.7919310897
  H        -5.4711373165        5.8475884871       -3.2783461791
  O         5.5307577967        1.5260300959       -0.4955025132
  H         6.2123401310        1.9177661980        0.0391252410
  H         5.4115795371        2.0771511950       -1.3471856320
  O         2.4077481530       -0.1650343977        0.7805675182
  H         2.7478679342        0.2115869939       -0.0646232331
  H         2.4441014747       -1.1200920333        0.7808246367
  O        -4.8896752190       -5.5058058624       -0.3684756450
  H        -4.2971358303       -5.8718941736        0.2895896352
  H        -5.8356223337       -5.4948852952       -0.0305368018
  O        -4.6151566507        2.6209476685        0.9160730330
  H        -5.1293581554        3.0449418093        1.6306161124
  H        -4.0852729132        1.9787923874        1.4369020383
  O         5.9051425981        0.0741312815       -6.6727981617
  H         6.5218496389        0.7547644346       -7.0361031435
  H         4.9406332275        0.1254506437       -7.0732222397
  O         4.3862887092       -3.0822456524       -0.8632544626
  H         5.0762674842       -2.4064462357       -0.9525271522
  H         3.6828035564       -2.8241137164       -1.5629063432
  O         2.8304731059        1.5296645822       -1.5431191489
  H         3.3621527170        2.0233727718       -0.8775113811
  H         2.1063172796        2.0690233244       -1.8480836704
  O        -1.2321906512       -1.2631860846        2.7696920732
  H        -1.3602984183       -2.1843980643        2.8822494642
  H        -2.1500838413       -0.8198534225        2.8436978457
  O         2.6104876103       -7.9363473143        2.0462655393
  H         2.7464998998       -7.5245496836        1.1148695216
  H         3.0677877043       -7.3353601782        2.6829007250
  O         2.4929933434       -2.6696972591       -2.5593787475
  H         2.3566209679       -3.4290032533       -3.2013652323
  H         2.5938552691       -1.8879790752       -3.1026746663
  O        -5.6811557049        3.5998299790        3.1109600436
  H        -6.4360806333        3.0369582570        3.3726156250
  H        -5.9325849241        4.5091173034        3.1681229279
  O         2.3228217285       -4.5753997950       -6.8253766994
  H         1.4018133810       -4.5149236241       -7.1306424541
  H         2.6709546211       -3.7402925994       -7.1703683838
  O         0.5607439711        3.1124646342       -2.8862855807
  H        -0.1178352809        2.9003565645       -3.5485157494
  H         0.1463111688        3.7522775927       -2.3027443968
  O        -3.0600045261       -5.9521858562        1.6009218885
  H        -2.4469579948       -5.3523501060        2.0321281261
  H        -2.4906178767       -6.6951391219        1.3155770104
  O         3.7315765429        5.9176425662        4.3353010729
  H         3.3094449226        6.5906690643        4.9387801336
  H         3.8158515823        5.0998707982        4.7974160173
  O        -2.9549170145        1.7603187776       -5.4201877917
  H        -2.8920270047        1.0948757487       -4.7086548792
  H        -3.0652385055        2.5618676406       -4.9321564315
  O         2.1589397350        1.9240479046        2.8378768984
  H         2.2971795485        2.7875300638        2.4255866211
  H         2.1926693983        1.2451574393        2.1093786126
  O        -7.2409233298        1.4573748963        2.5407803750
  H        -8.1630954895        1.5700137977        2.1878546287
  H        -6.9316151004        0.6688527357        2.1085633639
  O        -0.4038126798        1.0323470559        4.1343081021
  H         0.4811354829        1.3826323535        3.9809705626
  H        -0.5004327314        0.1633690997        3.6664244642
  O        -1.8407648895        3.5693916955        0.4925823413
  H        -1.5165497741        3.1203408842        1.3265431129
  H        -2.8095561360        3.4455834615        0.4905463258
  O        -0.2236608455       -1.2608408781       -4.3494658774
  H         0.2318391213       -1.4577071900       -3.5245866709
  H         0.1883742537       -0.6847365893       -4.9684249144
  O        -6.7881255183        2.1332097242       -3.2435199940
  H        -5.7937433107        2.2620596703       -3.4459632966
  H        -7.0164259402        1.2559908695       -3.5020696046
  O         6.5237047729       -0.9369470971       -1.1564517511
  H         6.7274107399       -1.1875517906       -2.0402944638
  H         6.1742985764        0.0209059359       -1.1929410038
  O        -2.2995945433        1.1893106961       -0.7479079610
  H        -2.0025230161        2.0525240387       -0.4719925989
  H        -1.5326177730        0.5695717831       -0.5825114364
  O        -0.1465369652        5.3565381488       -1.2219684777
  H        -0.7283306571        5.9238470647       -1.7670689098
  H        -0.8272352529        5.0110530661       -0.5680889154
  O         7.5837498500       -1.9534625511        4.8639818019
  H         7.9183409204       -2.4900784796        5.5817423267
  H         6.9986729415       -1.3216953105        5.2386807889
  O        -1.5953932977       -5.4572366605       -2.7392559358
  H        -2.1226816481       -6.1281024679       -3.1453692247
  H        -2.3102980084       -4.8603540929       -2.3994157894
  O        -4.7747799602       -2.0324793730       -3.5207977375
  H        -4.6885146877       -2.6730369277       -4.2766376843
  H        -3.9968497831       -1.4600277598       -3.7405353016
  O         2.5799985620        5.2591748746       -0.6066260101
  H         1.6333598553        5.3981646249       -0.8193133351
  H         3.0479335956        4.7412695754       -1.3576849797
  O        -4.0033892052       -3.8655910498       -5.7080737305
  H        -3.0180495078       -3.9655415653       -5.6445362746
  H        -4.3585721155       -4.6942742499       -5.3208649756
  O        -0.3122484841        5.5662009131        2.3685765780
  H        -0.7367832889        4.7044122351        2.5505250566
  H         0.5166573086        5.3420870338        1.8675426912
  O        -1.0087231155       -3.7226641095       -5.2956171632
  H        -0.8945764255       -4.1751620952       -4.4504608737
  H        -0.7384404533       -2.8403989731       -5.0784385689
  O        -5.8746830869       -0.9114853369        1.5419368323
  H        -5.7514992686       -1.0374030985        0.5949742656
  H        -6.1575847148       -1.7156143709        2.0318959495
  O         2.1150860877        4.9451269367       -4.5628209079
  H         2.8852765926        4.7646747458       -4.0530617430
  H         1.4238022104        4.3416499198       -4.2432837403
  O         2.7526216463       -0.1654386706       -3.6408353781
  H         2.7384568780        0.3412115647       -2.8160886584
  H         3.6671133655       -0.4983801831       -3.8627299692
  O        -2.2920339069        4.4805692124        7.3162208160
  H        -1.5422316022        3.9114660249        7.2441734672
  H        -2.3896248518        4.9562813329        6.4846324513
  O         0.2015799140       -4.0983854241        0.2864352912
  H         0.0475725835       -4.9760926033       -0.0564239822
  H        -0.1567661840       -3.5702230745       -0.4998103012
  O         6.3361305406        6.8864009139        7.8963055451
  H         5.5982316850        7.2448692635        8.4629063336
  H         6.0925268523        6.2948968040        7.1746163331
  O        -0.2570432294       -4.8570817080        4.6814032707
  H        -0.5427957664       -5.7072577753        4.2981049225
  H        -0.7780355403       -4.5392761476        5.4075037557
  O        -3.5090723650       -3.6716339076       -1.6938989912
  H        -4.0955703292       -4.2155342613       -1.1414574833
  H        -4.0348630180       -3.1351188917       -2.3299135772
