 DBCSR| CPU Multiplication driver                                           XSMM (U)
 DBCSR| Multrec recursion limit                                              512 (U)
 DBCSR| Multiplication stack size                                           1000 (D)
 DBCSR| Maximum elements for images                                    UNLIMITED (U)
 DBCSR| Multiplicative factor virtual images                                   1 (U)
 DBCSR| Use multiplication densification                                       T (D)
 DBCSR| Multiplication size stacks                                             3 (U)
 DBCSR| Use memory pool for CPU allocation                                     F (U)
 DBCSR| OMP: Current number of threads                                         1
 DBCSR| OMP: Max number of threads                                             1
 DBCSR| Split modifier for TAS multiplication algorithm                  1.0E+00 (U)


  **** **** ******  **  PROGRAM STARTED AT               2023-02-01 10:47:55.384
 ***** ** ***  *** **   PROGRAM STARTED ON                                moritz
 **    ****   ******    PROGRAM STARTED BY                                   ole
 ***** **    ** ** **   PROGRAM PROCESS ID                                148729
  **** **  *******  **  PROGRAM STARTED IN /home/ole/git/pao_ml_equivar/2H2O_MD/
                                           frame_0725

 CP2K| version string:                 CP2K version 2023.1 (Development Version)
 CP2K| source code revision number:                                  git:03b4147
 CP2K| cp2kflags: omp libint fftw3 libxc quip xsmm spglib libvori libbqb libtorc
 CP2K|            h
 CP2K| is freely available from                            https://www.cp2k.org/
 CP2K| Program compiled at                           Mi 01 Feb 2023 10:36:52 CET
 CP2K| Program compiled on                                                moritz
 CP2K| Program compiled for                                                local
 CP2K| Data directory path                               /home/ole/git/cp2k/data
 CP2K| Input file name                                            2H2O_pao44.inp

 GLOBAL| Force Environment number                                              1
 GLOBAL| Basis set file name                                        BASIS_MOLOPT
 GLOBAL| Potential file name                                      GTH_POTENTIALS
 GLOBAL| MM Potential file name                                     MM_POTENTIAL
 GLOBAL| Coordinate file name                                         coords.xyz
 GLOBAL| Method name                                                        CP2K
 GLOBAL| Project name                                                 2H2O_pao44
 GLOBAL| Run type                                                         ENERGY
 GLOBAL| FFT library                                                       FFTW3
 GLOBAL| Diagonalization library                                       ScaLAPACK
 GLOBAL| DGEMM library                                                      BLAS
 GLOBAL| Orthonormality check for eigenvectors                          DISABLED
 GLOBAL| Matrix multiplication library                                 ScaLAPACK
 GLOBAL| All-to-all communication in single precision                          F
 GLOBAL| FFTs using library dependent lengths                                  F
 GLOBAL| Grid backend                                                       AUTO
 GLOBAL| Global print level                                                  LOW
 GLOBAL| MPI I/O enabled                                                       T
 GLOBAL| Total number of message passing processes                             1
 GLOBAL| Number of threads for this process                                    1
 GLOBAL| This output is from process                                           0
 GLOBAL| Stack size for threads created by OpenMP (OMP_STACKSIZE)        default
 GLOBAL| CPU model name           AMD Ryzen Threadripper 3970X 32-Core Processor
 GLOBAL| CPUID                                                              1002
 GLOBAL| Compiled for CPUID                                                    0

 *** HINT in environment.F:884 :: The compiler target flags (generic) used ***
 *** to build this binary cannot exploit all extensions of this CPU model  ***
 *** (x86_avx2). Consider compiler target flags as part of FCFLAGS and     ***
 *** CFLAGS (ARCH file).                                                   ***


 MEMORY| system memory details [Kb]
 MEMORY|                        rank 0           min           max       average
 MEMORY| MemTotal            131773860     131773860     131773860     131773860
 MEMORY| MemFree             111863996     111863996     111863996     111863996
 MEMORY| Buffers                302624        302624        302624        302624
 MEMORY| Cached                7056636       7056636       7056636       7056636
 MEMORY| Slab                   780228        780228        780228        780228
 MEMORY| SReclaimable           332704        332704        332704        332704
 MEMORY| MemLikelyFree       119555960     119555960     119555960     119555960


 GENERATE|  Preliminary Number of Bonds generated:                             0
 GENERATE|  Achieved consistency in connectivity generation.

 *******************************************************************************
 *******************************************************************************
 **                                                                           **
 **     #####                         ##              ##                      **
 **    ##   ##            ##          ##              ##                      **
 **   ##     ##                       ##            ######                    **
 **   ##     ##  ##   ##  ##   #####  ##  ##   ####   ##    #####    #####    **
 **   ##     ##  ##   ##  ##  ##      ## ##   ##      ##   ##   ##  ##   ##   **
 **   ##  ## ##  ##   ##  ##  ##      ####     ###    ##   ######   ######    **
 **    ##  ###   ##   ##  ##  ##      ## ##      ##   ##   ##       ##        **
 **     #######   #####   ##   #####  ##  ##  ####    ##    #####   ##        **
 **           ##                                                    ##        **
 **                                                                           **
 **                                                ... make the atoms dance   **
 **                                                                           **
 **            Copyright (C) by CP2K developers group (2000-2023)             **
 **                      J. Chem. Phys. 152, 194103 (2020)                    **
 **                                                                           **
 *******************************************************************************


 TOTAL NUMBERS AND MAXIMUM NUMBERS

  Total number of            - Atomic kinds:                                   2
                             - Atoms:                                          6
                             - Shell sets:                                     6
                             - Shells:                                        22
                             - Primitive Cartesian functions:                 42
                             - Cartesian basis functions:                     48
                             - Spherical basis functions:                     46

  Maximum angular momentum of- Orbital basis functions:                        2
                             - Local part of the GTH pseudopotential:          2
                             - Non-local part of the GTH pseudopotential:      0

 ------------------------------ Linear scaling SCF -----------------------------
 eps_scf:                                                              0.100E-07
 eps_filter:                                                           0.100E-07
 mixing_fraction:                                                      0.450E+00
 max_scf:                                                                     25
 fixed chemical potential (mu)                                                 F
 has unit metric:                                                              F
 Computing inv(S):                                                             T
 Computing sqrt(S):                                                            T
 Computing S preconditioner                                                    F
 S sqrt method:                                                     NEWTONSCHULZ
 S sqrt order:                                                                 3
 Extrapolation order:                                                          1
 Use single precision matrices                                                 F
 S preconditioner type                                                      NONE
 Polarized Atomic Orbitals (PAO)                                               T
 Purification method                                   Trace resetting 4th order
 Cluster type                                                             ATOMIC
 Computing Chebyshev                                                       FALSE
 Using PAO                                                                     T
 -------------------------------------------------------------------------------

 
 PAO|                                  EPS_PAO                           0.5E-06
 PAO|                                  MIXING                            0.5E+00
 PAO|                                  MAX_PAO                              1500
 PAO|                                  MAX_CYCLES                           1000
 PAO|                                  PARAMETERIZATION              EQUIVARIANT
 PAO|                                  PRECONDITION                            F
 PAO|                                  REGULARIZATION                    0.0E+00
 PAO|                                  EPS_PGF                           0.1E-09
 PAO|                                  PENALTY_DISTANCE                  0.1E+00
 PAO|                                  PENALTY_STRENGTH                  0.5E-02
 PAO|                                  LINPOT_PRECONDITION_DELTA         0.0E+00
 PAO|                                  LINPOT_INITGUESS_DELT             0.0E+00
 PAO|                                  LINPOT_REGULARIZATION_DELTA       0.0E+00
 PAO|                                  LINPOT_REGULARIZATION_STRENGTH    0.0E+00
 PAO|                                  OPTIMIZER                              CG
 PAO|                                  CG_INIT_STEPS                           2
 PAO|                                  CG_RESET_LIMIT                    0.1E+00
 PAO|                                  CHECK_UNITARY_TOL                -0.1E+01
 PAO|                                  CHECK_GRADIENT_TOL               -0.1E+01
 PAO|                                  NUM_GRADIENT_ORDER                      2
 PAO|                                  NUM_GRADIENT_EPS                  0.1E-07
 PAO|                                  PRINT%RESTART%WRITE_CYCLES            100
 PAO|                                  RESTART_FILE 
 PAO|                                  PREOPT_DM_FILE 2H2O_ref_LS_DM_SPIN_1_RESTART.dm
 PAO|                                  MACHINE_LEARNING%METHOD       GAUSSIAN_PR
 PAO|                                  MACHINE_LEARNING%PRIOR               ZERO
 PAO|                                  MACHINE_LEARNING%DESCRIPTOR     POTENTIAL
 PAO|                                  MACHINE_LEARNING%TOLERANCE        0.1E-01
 PAO|                                  MACHINE_LEARNING%GP_NOISE_VAR     0.1E+00
 PAO|                                  MACHINE_LEARNING%GP_SCALE         0.5E-01
 

 Calculating atomic Fock matrix for atomic kind: O

 Electronic structure
    Total number of core electrons                                          2.00
    Total number of valence electrons                                       6.00
    Total number of electrons                                               8.00
    Multiplicity                                                   not specified
    S   [  2.00] 2.00
    P      4.00


 *******************************************************************************
                  Iteration          Convergence                     Energy [au]
 *******************************************************************************
                          1        0.708315                     -15.576645311500
                          2        0.608879                     -15.587933561584
                          3        0.102828E-01                 -15.656849565404
                          4        0.113889E-02                 -15.656866888140
                          5        0.434197E-03                 -15.656867072159
                          6        0.263771E-03                 -15.656867091904
                          7        0.478536E-06                 -15.656867103452

 Energy components [Hartree]           Total Energy ::          -15.656867103452
                                        Band Energy ::           -3.000198112285
                                     Kinetic Energy ::           11.759971203220
                                   Potential Energy ::          -27.416838306672
                                      Virial (-V/T) ::            2.331369510426
                                        Core Energy ::          -26.140716385623
                                          XC Energy ::           -3.154051012914
                                     Coulomb Energy ::           13.637900295084
                       Total Pseudopotential Energy ::          -37.935781716540
                       Local Pseudopotential Energy ::          -39.218907440693
                    Nonlocal Pseudopotential Energy ::            1.283125724153
                                        Confinement ::            0.350941276976

 Orbital energies  State     L     Occupation   Energy[a.u.]          Energy[eV]

                       1     0          2.000      -0.864471          -23.523463

                       1     1          4.000      -0.317814           -8.648154


 Total Electron Density at R=0:                                         0.000068

 Calculating atomic Fock matrix for atomic kind: H

 Electronic structure
    Total number of core electrons                                          0.00
    Total number of valence electrons                                       1.00
    Total number of electrons                                               1.00
    Multiplicity                                                   not specified
    S      1.00


 *******************************************************************************
                  Iteration          Convergence                     Energy [au]
 *******************************************************************************
                          1        0.437545E-02                  -0.424159432110
                          2        0.531356E-03                  -0.424178438213
                          3        0.259176E-06                  -0.424178722480

 Energy components [Hartree]           Total Energy ::           -0.424178722480
                                        Band Energy ::           -0.199015229016
                                     Kinetic Energy ::            0.464007633961
                                   Potential Energy ::           -0.888186356441
                                      Virial (-V/T) ::            1.914163240935
                                        Core Energy ::           -0.479160803564
                                          XC Energy ::           -0.244352904054
                                     Coulomb Energy ::            0.299334985138
                       Total Pseudopotential Energy ::           -0.962295316385
                       Local Pseudopotential Energy ::           -0.962295316385
                    Nonlocal Pseudopotential Energy ::            0.000000000000
                                        Confinement ::            0.191268788606

 Orbital energies  State     L     Occupation   Energy[a.u.]          Energy[eV]

                       1     0          1.000      -0.199015           -5.415480


 Total Electron Density at R=0:                                         0.242907
 PAO| Made initial guess for matrix_X with norm:   4.8989794855663558     

     Lanczos converged:  T threshold:   0.100E-02
     Est. extremal eigenvalues:    0.347E+01   0.114E+00
     Est. condition number :    0.305E+02

 Order=           3
     NS sqrt iter    1 1.00000000   0.847E+00       0.001       59.545
     NS sqrt iter    2 1.00000000   0.451E+00       0.001      103.632
     NS sqrt iter    3 1.00000000   0.175E+00       0.001       99.024
     NS sqrt iter    4 1.00000000   0.220E-01       0.001      102.053
     NS sqrt iter    5 1.00000000   0.659E-04       0.001       83.608
     Symmetrizing Results
     Final NS sqrt iter    5 1.00000000   0.352E-08

 PAO| Read restart DM 2H2O_ref_LS_DM_SPIN_1_RESTART.dm with checksum:    59.566707020798212     
 PAO| Quickstep energy from restart density:  -34.447808207317706     
 PAO| ======================= Iteration:         1 =============================

     Lanczos converged:  T threshold:   0.100E-02
     Est. extremal eigenvalues:    0.347E+01   0.114E+00
     Est. condition number :    0.305E+02

 Order=           3
     NS sqrt iter    1 1.00000000   0.847E+00       0.001       58.323
     NS sqrt iter    2 1.00000000   0.451E+00       0.001      101.815
     NS sqrt iter    3 1.00000000   0.175E+00       0.001      101.824
     NS sqrt iter    4 1.00000000   0.220E-01       0.017        6.446
     NS sqrt iter    5 1.00000000   0.659E-04       0.001       85.033
     Symmetrizing Results
     Final NS sqrt iter    5 1.00000000   0.352E-08

     Est. extremal eigenvalues     -0.91047     1.79084  converged:  T
     TRS4 it   1 1.00000000   0.863E+00       0.000       16.128   0.100E-07
     TRS4 it   2 1.00000000   0.665E+00       0.001       32.256   0.100E-07
     TRS4 it   3 1.00000000   0.483E+00       0.001       32.256   0.100E-07
     TRS4 it   4 1.00000000   0.302E+00       0.001       32.256   0.100E-07
     TRS4 it   5 1.00000000   0.147E+00       0.001       32.256   0.100E-07
     TRS4 it   6 1.00000000   0.439E-01       0.001       32.256   0.100E-07
     TRS4 it   7 1.00000000   0.556E-02       0.001       32.256   0.100E-07
     TRS4 it   8 1.00000000   0.120E-03       0.001       32.256   0.100E-07
     TRS4 it   9 1.00000000   0.618E-07       0.001       32.256   0.100E-07
     Final TRS4 iteration    9 1.00000000   0.618E-07
     Chemical potential (mu):      -0.06699
 
 PAO| energy:  -7.5820483828907390      penalty:   5.1768996905128905E-033
 PAO|CG| warming up with steepest descent
 PAO|CG| beta:    0.0000000000000000     
 PAO| norm of gradient:  0.78789651200271382     
 PAO|LS| adapt:  T F F
 PAO|LS| adapt: scan_steps:    0.0000000000000000        0.0000000000000000        0.0000000000000000     
 PAO|LS| adapt: energies:   -7.5820483828907390        0.0000000000000000        0.0000000000000000     
 PAO| ======================= Iteration:         2 =============================

     Lanczos converged:  T threshold:   0.100E-02
     Est. extremal eigenvalues:    0.339E+01   0.129E+00
     Est. condition number :    0.263E+02

 Order=           3
     NS sqrt iter    1 1.00000000   0.833E+00       0.001       58.267
     NS sqrt iter    2 1.00000000   0.437E+00       0.001       98.371
     NS sqrt iter    3 1.00000000   0.157E+00       0.001       99.617
     NS sqrt iter    4 1.00000000   0.152E-01       0.001       99.061
     NS sqrt iter    5 1.00000000   0.202E-04       0.001       75.988
     Symmetrizing Results
     Final NS sqrt iter    5 1.00000000   0.647E-09

     Est. extremal eigenvalues     -0.91408     1.74136  converged:  T
     TRS4 it   1 1.00000000   0.860E+00       0.000       16.128   0.100E-07
     TRS4 it   2 1.00000000   0.646E+00       0.001       32.256   0.100E-07
     TRS4 it   3 1.00000000   0.465E+00       0.001       32.256   0.100E-07
     TRS4 it   4 1.00000000   0.280E+00       0.001       32.256   0.100E-07
     TRS4 it   5 1.00000000   0.127E+00       0.001       32.256   0.100E-07
     TRS4 it   6 1.00000000   0.329E-01       0.001       32.256   0.100E-07
     TRS4 it   7 1.00000000   0.318E-02       0.017        1.928   0.100E-07
     TRS4 it   8 1.00000000   0.396E-04       0.001       32.256   0.100E-07
     TRS4 it   9 1.00000000   0.675E-08       0.001       32.256   0.100E-07
     Final TRS4 iteration    9 1.00000000   0.675E-08
     Chemical potential (mu):      -0.05548
 
 PAO| energy:  -7.6380344778167766      penalty:   2.2824300190293581E-008
 PAO|LS| adapt:  T T F
 PAO|LS| adapt: scan_steps:    0.0000000000000000       0.10000000000000001        0.0000000000000000     
 PAO|LS| adapt: energies:   -7.5820483828907390       -7.6380344778167766        0.0000000000000000     
 PAO| ======================= Iteration:         3 =============================

     Lanczos converged:  T threshold:   0.100E-02
     Est. extremal eigenvalues:    0.330E+01   0.143E+00
     Est. condition number :    0.232E+02

 Order=           3
     NS sqrt iter    1 1.00000000   0.817E+00       0.001       57.988
     NS sqrt iter    2 1.00000000   0.421E+00       0.001       98.842
     NS sqrt iter    3 1.00000000   0.140E+00       0.001       98.272
     NS sqrt iter    4 1.00000000   0.105E-01       0.001       98.778
     NS sqrt iter    5 1.00000000   0.635E-05       0.001       76.023
     Symmetrizing Results
     Final NS sqrt iter    5 1.00000000   0.616E-10

     Est. extremal eigenvalues     -0.91743     1.70517  converged:  T
     TRS4 it   1 1.00000000   0.858E+00       0.000       16.128   0.100E-07
     TRS4 it   2 1.00000000   0.631E+00       0.001       32.256   0.100E-07
     TRS4 it   3 1.00000000   0.448E+00       0.001       32.256   0.100E-07
     TRS4 it   4 1.00000000   0.259E+00       0.017        1.928   0.100E-07
     TRS4 it   5 1.00000000   0.108E+00       0.001       32.256   0.100E-07
     TRS4 it   6 1.00000000   0.241E-01       0.001       32.256   0.100E-07
     TRS4 it   7 1.00000000   0.170E-02       0.001       32.256   0.100E-07
     TRS4 it   8 1.00000000   0.113E-04       0.001       32.256   0.100E-07
     TRS4 it   9 1.00000000   0.552E-09       0.001       32.256   0.100E-07
     Final TRS4 iteration    9 1.00000000   0.552E-09
     Chemical potential (mu):      -0.04282
 
 PAO| energy:  -7.6812030515193275      penalty:   3.6518847866567852E-007
 PAO|LS| adapt:  T T F
 PAO|LS| adapt: scan_steps:    0.0000000000000000       0.20000000000000001        0.0000000000000000     
 PAO|LS| adapt: energies:   -7.5820483828907390       -7.6812030515193275        0.0000000000000000     
 PAO| ======================= Iteration:         4 =============================

     Lanczos converged:  T threshold:   0.100E-02
     Est. extremal eigenvalues:    0.312E+01   0.162E+00
     Est. condition number :    0.192E+02

 Order=           3
     NS sqrt iter    1 1.00000000   0.783E+00       0.001       59.041
     NS sqrt iter    2 1.00000000   0.388E+00       0.001       98.375
     NS sqrt iter    3 1.00000000   0.111E+00       0.001       97.329
     NS sqrt iter    4 1.00000000   0.523E-02       0.001       98.997
     NS sqrt iter    5 1.00000000   0.901E-06       0.001       75.208
     Symmetrizing Results
     Final NS sqrt iter    5 1.00000000   0.138E-11

     Est. extremal eigenvalues     -0.92250     1.65804  converged:  T
     TRS4 it   1 1.00000000   0.857E+00       0.000       16.128   0.100E-07
     TRS4 it   2 1.00000000   0.608E+00       0.001       32.256   0.100E-07
     TRS4 it   3 1.00000000   0.418E+00       0.001       32.256   0.100E-07
     TRS4 it   4 1.00000000   0.222E+00       0.001       32.256   0.100E-07
     TRS4 it   5 1.00000000   0.780E-01       0.001       32.256   0.100E-07
     TRS4 it   6 1.00000000   0.121E-01       0.001       32.256   0.100E-07
     TRS4 it   7 1.00000000   0.404E-03       0.001       32.256   0.100E-07
     TRS4 it   8 1.00000000   0.633E-06       0.001       32.256   0.100E-07
     TRS4 it   9 1.00000000   0.176E-11       0.001       32.256   0.100E-07
     Final TRS4 iteration    9 1.00000000   0.176E-11
     Chemical potential (mu):      -0.01487
 
 PAO| energy:  -7.7276178982963462      penalty:   5.8430130636288147E-006
 PAO|LS| Need extra step
 PAO|LS| adapt:  T T F
 PAO|LS| adapt: scan_steps:    0.0000000000000000       0.40000000000000002        0.0000000000000000     
 PAO|LS| adapt: energies:   -7.5820483828907390       -7.7276178982963462        0.0000000000000000     
 PAO| ======================= Iteration:         5 =============================

     Lanczos converged:  T threshold:   0.100E-02
     Est. extremal eigenvalues:    0.278E+01   0.189E+00
     Est. condition number :    0.147E+02

 Order=           3
     NS sqrt iter    1 1.00000000   0.721E+00       0.001       58.579
     NS sqrt iter    2 1.00000000   0.327E+00       0.001       98.012
     NS sqrt iter    3 1.00000000   0.699E-01       0.001       97.518
     NS sqrt iter    4 1.00000000   0.153E-02       0.001       97.687
     NS sqrt iter    5 1.00000000   0.323E-07       0.001       53.164
     Symmetrizing Results
     Final NS sqrt iter    5 1.00000000   0.363E-08

     Est. extremal eigenvalues     -0.92305     1.61025  converged:  T
     TRS4 it   1 1.00000000   0.859E+00       0.000       16.128   0.100E-07
     TRS4 it   2 1.00000000   0.578E+00       0.001       32.256   0.100E-07
     TRS4 it   3 1.00000000   0.371E+00       0.001       32.256   0.100E-07
     TRS4 it   4 1.00000000   0.168E+00       0.001       32.256   0.100E-07
     TRS4 it   5 1.00000000   0.420E-01       0.001       32.256   0.100E-07
     TRS4 it   6 1.00000000   0.315E-02       0.001       32.256   0.100E-07
     TRS4 it   7 1.00000000   0.222E-04       0.001       32.256   0.100E-07
     TRS4 it   8 1.00000000   0.147E-08       0.001       32.256   0.100E-07
     Final TRS4 iteration    8 1.00000000   0.147E-08
     Chemical potential (mu):       0.03474
 
 PAO| energy:  -7.6678816608018217      penalty:   9.3488188257927635E-005
 PAO|LS| Need extra step
 PAO|LS| adapt:  T T T
 PAO|LS| adapt: scan_steps:    0.0000000000000000       0.40000000000000002       0.80000000000000004     
 PAO|LS| adapt: energies:   -7.5820483828907390       -7.7276178982963462       -7.6678816608018217     
 PAO|LS| adapt: suggested step_size:   0.48361507332221237     
 PAO|LS| adapt: predicted energy  -7.7321034956876096     
 PAO| ======================= Iteration:         6 =============================

     Lanczos converged:  T threshold:   0.100E-02
     Est. extremal eigenvalues:    0.304E+01   0.168E+00
     Est. condition number :    0.181E+02

 Order=           3
     NS sqrt iter    1 1.00000000   0.768E+00       0.001       57.887
     NS sqrt iter    2 1.00000000   0.374E+00       0.001      100.553
     NS sqrt iter    3 1.00000000   0.100E+00       0.001       98.627
     NS sqrt iter    4 1.00000000   0.398E-02       0.001       98.052
     NS sqrt iter    5 1.00000000   0.441E-06       0.001       75.825
     Symmetrizing Results
     Final NS sqrt iter    5 1.00000000   0.232E-09

     Est. extremal eigenvalues     -0.92376     1.64453  converged:  T
     TRS4 it   1 1.00000000   0.857E+00       0.000       16.128   0.100E-07
     TRS4 it   2 1.00000000   0.600E+00       0.001       32.256   0.100E-07
     TRS4 it   3 1.00000000   0.407E+00       0.001       32.256   0.100E-07
     TRS4 it   4 1.00000000   0.208E+00       0.001       32.256   0.100E-07
     TRS4 it   5 1.00000000   0.680E-01       0.001       32.256   0.100E-07
     TRS4 it   6 1.00000000   0.898E-02       0.001       32.256   0.100E-07
     TRS4 it   7 1.00000000   0.212E-03       0.001       32.256   0.100E-07
     TRS4 it   8 1.00000000   0.168E-06       0.001       32.256   0.100E-07
     TRS4 it   9 1.00000000   0.126E-12       0.001       32.256   0.100E-07
     Final TRS4 iteration    9 1.00000000   0.126E-12
     Chemical potential (mu):      -0.00238
 
 PAO| energy:  -7.7313795607766895      penalty:   1.2485219230555294E-005
 PAO|CG| warming up with steepest descent
 PAO|CG| beta:    0.0000000000000000     
 PAO| norm of gradient:  0.42170652397470743     
 PAO| energy improvement: -0.14933117788595052     
 PAO| step      6                   -7.731379561  0.264E-01  0.484E+00     0.125
 PAO|LS| adapt:  T F F
 PAO|LS| adapt: scan_steps:    0.0000000000000000        0.0000000000000000        0.0000000000000000     
 PAO|LS| adapt: energies:   -7.7313795607766895        0.0000000000000000        0.0000000000000000     
 PAO| ======================= Iteration:         7 =============================

     Lanczos converged:  T threshold:   0.100E-02
     Est. extremal eigenvalues:    0.294E+01   0.181E+00
     Est. condition number :    0.162E+02

 Order=           3
     NS sqrt iter    1 1.00000000   0.748E+00       0.001       58.118
     NS sqrt iter    2 1.00000000   0.352E+00       0.001       98.096
     NS sqrt iter    3 1.00000000   0.840E-01       0.001       97.833
     NS sqrt iter    4 1.00000000   0.244E-02       0.001       98.220
     NS sqrt iter    5 1.00000000   0.119E-06       0.001       70.915
     Symmetrizing Results
     Final NS sqrt iter    5 1.00000000   0.973E-09

     Est. extremal eigenvalues     -0.92573     1.65715  converged:  T
     TRS4 it   1 1.00000000   0.865E+00       0.000       16.128   0.100E-07
     TRS4 it   2 1.00000000   0.605E+00       0.001       32.256   0.100E-07
     TRS4 it   3 1.00000000   0.413E+00       0.001       32.256   0.100E-07
     TRS4 it   4 1.00000000   0.214E+00       0.001       32.256   0.100E-07
     TRS4 it   5 1.00000000   0.713E-01       0.001       32.256   0.100E-07
     TRS4 it   6 1.00000000   0.964E-02       0.001       32.256   0.100E-07
     TRS4 it   7 1.00000000   0.234E-03       0.001       32.256   0.100E-07
     TRS4 it   8 1.00000000   0.199E-06       0.001       32.256   0.100E-07
     TRS4 it   9 1.00000000   0.175E-12       0.001       32.256   0.100E-07
     Final TRS4 iteration    9 1.00000000   0.175E-12
     Chemical potential (mu):      -0.00136
 
 PAO| energy:  -7.7282707785194011      penalty:   1.8929332129823923E-005
 PAO|LS| adapt:  T F T
 PAO|LS| adapt: scan_steps:    0.0000000000000000        0.0000000000000000       0.48361507332221237     
 PAO|LS| adapt: energies:   -7.7313795607766895        0.0000000000000000       -7.7282707785194011     
 PAO| ======================= Iteration:         8 =============================

     Lanczos converged:  T threshold:   0.100E-02
     Est. extremal eigenvalues:    0.299E+01   0.175E+00
     Est. condition number :    0.171E+02

 Order=           3
     NS sqrt iter    1 1.00000000   0.758E+00       0.001       58.603
     NS sqrt iter    2 1.00000000   0.363E+00       0.001       95.467
     NS sqrt iter    3 1.00000000   0.920E-01       0.001       98.107
     NS sqrt iter    4 1.00000000   0.314E-02       0.001       98.407
     NS sqrt iter    5 1.00000000   0.235E-06       0.001       74.348
     Symmetrizing Results
     Final NS sqrt iter    5 1.00000000   0.745E-09

     Est. extremal eigenvalues     -0.92580     1.65044  converged:  T
     TRS4 it   1 1.00000000   0.860E+00       0.000       16.128   0.100E-07
     TRS4 it   2 1.00000000   0.603E+00       0.001       32.256   0.100E-07
     TRS4 it   3 1.00000000   0.409E+00       0.001       32.256   0.100E-07
     TRS4 it   4 1.00000000   0.210E+00       0.001       32.256   0.100E-07
     TRS4 it   5 1.00000000   0.695E-01       0.001       32.256   0.100E-07
     TRS4 it   6 1.00000000   0.938E-02       0.001       32.256   0.100E-07
     TRS4 it   7 1.00000000   0.230E-03       0.001       32.256   0.100E-07
     TRS4 it   8 1.00000000   0.197E-06       0.001       32.256   0.100E-07
     TRS4 it   9 1.00000000   0.172E-12       0.001       32.256   0.100E-07
     Final TRS4 iteration    9 1.00000000   0.172E-12
     Chemical potential (mu):      -0.00273
 
 PAO| energy:  -7.7518125025106599      penalty:   1.3566460835723623E-005
 PAO|LS| adapt:  T T T
 PAO|LS| adapt: scan_steps:    0.0000000000000000       0.24180753666110619       0.48361507332221237     
 PAO|LS| adapt: energies:   -7.7313795607766895       -7.7518125025106599       -7.7282707785194011     
 PAO|LS| adapt: suggested step_size:   0.23326026327933971     
 PAO|LS| adapt: predicted energy  -7.7518399743713431     
 PAO| ======================= Iteration:         9 =============================

     Lanczos converged:  T threshold:   0.100E-02
     Est. extremal eigenvalues:    0.300E+01   0.174E+00
     Est. condition number :    0.172E+02

 Order=           3
     NS sqrt iter    1 1.00000000   0.758E+00       0.001       57.817
     NS sqrt iter    2 1.00000000   0.363E+00       0.001       97.935
     NS sqrt iter    3 1.00000000   0.923E-01       0.001       98.627
     NS sqrt iter    4 1.00000000   0.316E-02       0.001      100.137
     NS sqrt iter    5 1.00000000   0.240E-06       0.001       74.831
     Symmetrizing Results
     Final NS sqrt iter    5 1.00000000   0.760E-09

     Est. extremal eigenvalues     -0.92577     1.65021  converged:  T
     TRS4 it   1 1.00000000   0.860E+00       0.000       16.128   0.100E-07
     TRS4 it   2 1.00000000   0.603E+00       0.001       32.256   0.100E-07
     TRS4 it   3 1.00000000   0.409E+00       0.001       32.256   0.100E-07
     TRS4 it   4 1.00000000   0.210E+00       0.001       32.256   0.100E-07
     TRS4 it   5 1.00000000   0.695E-01       0.001       32.256   0.100E-07
     TRS4 it   6 1.00000000   0.937E-02       0.001       32.256   0.100E-07
     TRS4 it   7 1.00000000   0.230E-03       0.001       32.256   0.100E-07
     TRS4 it   8 1.00000000   0.197E-06       0.001       32.256   0.100E-07
     TRS4 it   9 1.00000000   0.172E-12       0.001       32.256   0.100E-07
     Final TRS4 iteration    9 1.00000000   0.172E-12
     Chemical potential (mu):      -0.00275
 
 PAO| energy:  -7.7518544714019910      penalty:   1.3474348973972361E-005
 PAO|CG| trace_G_new    3.9490484570456154E-002
 PAO|CG| trace_G_prev   0.17783639236283050     
 PAO|CG| trace_G_mix   -1.6748099898516574E-003
 PAO|CG| trace_D   0.17783639236283050     
 PAO|CG| trace_D_Gnew   1.6748099898516574E-003
 PAO|CG| beta:   0.23147846182304668     
 PAO| norm of gradient:  0.19872212904066863     
 PAO| energy improvement:  -2.0474910625301490E-002
 PAO| step      9                   -7.751854471  0.124E-01  0.233E+00     0.059
 PAO|LS| adapt:  T F F
 PAO|LS| adapt: scan_steps:    0.0000000000000000        0.0000000000000000        0.0000000000000000     
 PAO|LS| adapt: energies:   -7.7518544714019910        0.0000000000000000        0.0000000000000000     
 PAO| ======================= Iteration:        10 =============================

     Lanczos converged:  T threshold:   0.100E-02
     Est. extremal eigenvalues:    0.295E+01   0.180E+00
     Est. condition number :    0.164E+02

 Order=           3
     NS sqrt iter    1 1.00000000   0.749E+00       0.001       58.908
     NS sqrt iter    2 1.00000000   0.354E+00       0.001       95.665
     NS sqrt iter    3 1.00000000   0.860E-01       0.001       99.404
     NS sqrt iter    4 1.00000000   0.259E-02       0.001       99.210
     NS sqrt iter    5 1.00000000   0.134E-06       0.001       73.313
     Symmetrizing Results
     Final NS sqrt iter    5 1.00000000   0.945E-09

     Est. extremal eigenvalues     -0.92663     1.65070  converged:  T
     TRS4 it   1 1.00000000   0.861E+00       0.000       16.128   0.100E-07
     TRS4 it   2 1.00000000   0.602E+00       0.001       32.256   0.100E-07
     TRS4 it   3 1.00000000   0.408E+00       0.001       32.256   0.100E-07
     TRS4 it   4 1.00000000   0.208E+00       0.001       32.256   0.100E-07
     TRS4 it   5 1.00000000   0.678E-01       0.001       32.256   0.100E-07
     TRS4 it   6 1.00000000   0.885E-02       0.001       32.256   0.100E-07
     TRS4 it   7 1.00000000   0.201E-03       0.001       32.256   0.100E-07
     TRS4 it   8 1.00000000   0.147E-06       0.001       32.256   0.100E-07
     TRS4 it   9 1.00000000   0.961E-13       0.001       32.256   0.100E-07
     Final TRS4 iteration    9 1.00000000   0.961E-13
     Chemical potential (mu):       0.00058
 
 PAO| energy:  -7.7573287436467693      penalty:   1.4120035524587353E-005
 PAO|LS| adapt:  T T F
 PAO|LS| adapt: scan_steps:    0.0000000000000000       0.23326026327933971        0.0000000000000000     
 PAO|LS| adapt: energies:   -7.7518544714019910       -7.7573287436467693        0.0000000000000000     
 PAO| ======================= Iteration:        11 =============================

     Lanczos converged:  T threshold:   0.100E-02
     Est. extremal eigenvalues:    0.291E+01   0.186E+00
     Est. condition number :    0.156E+02

 Order=           3
     NS sqrt iter    1 1.00000000   0.740E+00       0.001       58.952
     NS sqrt iter    2 1.00000000   0.344E+00       0.001       98.109
     NS sqrt iter    3 1.00000000   0.801E-01       0.001       98.114
     NS sqrt iter    4 1.00000000   0.210E-02       0.001       96.553
     NS sqrt iter    5 1.00000000   0.733E-07       0.001       69.512
     Symmetrizing Results
     Final NS sqrt iter    5 1.00000000   0.582E-09

     Est. extremal eigenvalues     -0.92648     1.65228  converged:  T
     TRS4 it   1 1.00000000   0.861E+00       0.000       16.128   0.100E-07
     TRS4 it   2 1.00000000   0.602E+00       0.001       32.256   0.100E-07
     TRS4 it   3 1.00000000   0.407E+00       0.001       32.256   0.100E-07
     TRS4 it   4 1.00000000   0.206E+00       0.001       32.256   0.100E-07
     TRS4 it   5 1.00000000   0.662E-01       0.001       32.256   0.100E-07
     TRS4 it   6 1.00000000   0.836E-02       0.001       32.256   0.100E-07
     TRS4 it   7 1.00000000   0.175E-03       0.001       32.256   0.100E-07
     TRS4 it   8 1.00000000   0.110E-06       0.001       32.256   0.100E-07
     TRS4 it   9 1.00000000   0.534E-13       0.001       32.256   0.100E-07
     Final TRS4 iteration    9 1.00000000   0.534E-13
     Chemical potential (mu):       0.00408
 
 PAO| energy:  -7.7557724404373767      penalty:   1.5553281428389488E-005
 PAO|LS| adapt:  T T T
 PAO|LS| adapt: scan_steps:    0.0000000000000000       0.23326026327933971       0.46652052655867943     
 PAO|LS| adapt: energies:   -7.7518544714019910       -7.7573287436467693       -7.7557724404373767     
 PAO|LS| adapt: suggested step_size:   0.29825540447878379     
 PAO|LS| adapt: predicted energy  -7.7576016672762487     
 PAO| ======================= Iteration:        12 =============================

     Lanczos converged:  T threshold:   0.100E-02
     Est. extremal eigenvalues:    0.294E+01   0.182E+00
     Est. condition number :    0.162E+02

 Order=           3
     NS sqrt iter    1 1.00000000   0.746E+00       0.001       57.290
     NS sqrt iter    2 1.00000000   0.351E+00       0.001       99.212
     NS sqrt iter    3 1.00000000   0.844E-01       0.001       98.456
     NS sqrt iter    4 1.00000000   0.244E-02       0.001       98.473
     NS sqrt iter    5 1.00000000   0.113E-06       0.001       69.541
     Symmetrizing Results
     Final NS sqrt iter    5 1.00000000   0.824E-09

     Est. extremal eigenvalues     -0.92669     1.65103  converged:  T
     TRS4 it   1 1.00000000   0.861E+00       0.000       16.128   0.100E-07
     TRS4 it   2 1.00000000   0.602E+00       0.001       32.256   0.100E-07
     TRS4 it   3 1.00000000   0.408E+00       0.001       32.256   0.100E-07
     TRS4 it   4 1.00000000   0.208E+00       0.001       32.256   0.100E-07
     TRS4 it   5 1.00000000   0.673E-01       0.001       32.256   0.100E-07
     TRS4 it   6 1.00000000   0.871E-02       0.001       32.256   0.100E-07
     TRS4 it   7 1.00000000   0.193E-03       0.001       32.256   0.100E-07
     TRS4 it   8 1.00000000   0.136E-06       0.001       32.256   0.100E-07
     TRS4 it   9 1.00000000   0.808E-13       0.001       32.256   0.100E-07
     Final TRS4 iteration    9 1.00000000   0.808E-13
     Chemical potential (mu):       0.00154
 
 PAO| energy:  -7.7575843751516569      penalty:   1.4430796417897004E-005
 PAO|CG| trace_G_new    1.4149711633379702E-002
 PAO|CG| trace_G_prev    3.9490484570456154E-002
 PAO|CG| trace_G_mix   -5.7354690507160043E-004
 PAO|CG| trace_D    4.8243998755175349E-002
 PAO|CG| trace_D_Gnew   2.2229104230334215E-004
 PAO|CG| beta:   0.37283053623166096     
 PAO| norm of gradient:  0.11895256043221475     
 PAO| energy improvement:  -5.7299037496658656E-003
 PAO| step     12                   -7.757584375  0.743E-02  0.298E+00     0.070
 PAO|LS| adapt:  T F F
 PAO|LS| adapt: scan_steps:    0.0000000000000000        0.0000000000000000        0.0000000000000000     
 PAO|LS| adapt: energies:   -7.7575843751516569        0.0000000000000000        0.0000000000000000     
 PAO| ======================= Iteration:        13 =============================

     Lanczos converged:  T threshold:   0.100E-02
     Est. extremal eigenvalues:    0.290E+01   0.187E+00
     Est. condition number :    0.155E+02

 Order=           3
     NS sqrt iter    1 1.00000000   0.738E+00       0.001       56.917
     NS sqrt iter    2 1.00000000   0.343E+00       0.001       97.666
     NS sqrt iter    3 1.00000000   0.792E-01       0.001       96.974
     NS sqrt iter    4 1.00000000   0.204E-02       0.001       98.315
     NS sqrt iter    5 1.00000000   0.665E-07       0.001       66.691
     Symmetrizing Results
     Final NS sqrt iter    5 1.00000000   0.531E-09

     Est. extremal eigenvalues     -0.92722     1.64362  converged:  T
     TRS4 it   1 1.00000000   0.860E+00       0.000       16.128   0.100E-07
     TRS4 it   2 1.00000000   0.599E+00       0.001       32.256   0.100E-07
     TRS4 it   3 1.00000000   0.403E+00       0.001       32.256   0.100E-07
     TRS4 it   4 1.00000000   0.202E+00       0.001       32.256   0.100E-07
     TRS4 it   5 1.00000000   0.633E-01       0.001       32.256   0.100E-07
     TRS4 it   6 1.00000000   0.765E-02       0.001       32.256   0.100E-07
     TRS4 it   7 1.00000000   0.146E-03       0.001       32.256   0.100E-07
     TRS4 it   8 1.00000000   0.758E-07       0.001       32.256   0.100E-07
     Final TRS4 iteration    8 1.00000000   0.758E-07
     Chemical potential (mu):       0.00599
 
 PAO| energy:  -7.7600586741250615      penalty:   1.4955728500638722E-005
 PAO|LS| adapt:  T T F
 PAO|LS| adapt: scan_steps:    0.0000000000000000       0.29825540447878379        0.0000000000000000     
 PAO|LS| adapt: energies:   -7.7575843751516569       -7.7600586741250615        0.0000000000000000     
 PAO| ======================= Iteration:        14 =============================

     Lanczos converged:  T threshold:   0.100E-02
     Est. extremal eigenvalues:    0.285E+01   0.191E+00
     Est. condition number :    0.149E+02

 Order=           3
     NS sqrt iter    1 1.00000000   0.729E+00       0.001       58.067
     NS sqrt iter    2 1.00000000   0.335E+00       0.001       97.713
     NS sqrt iter    3 1.00000000   0.744E-01       0.001       99.202
     NS sqrt iter    4 1.00000000   0.170E-02       0.001       99.300
     NS sqrt iter    5 1.00000000   0.390E-07       0.001       58.818
     Symmetrizing Results
     Final NS sqrt iter    5 1.00000000   0.212E-08

     Est. extremal eigenvalues     -0.92715     1.63679  converged:  T
     TRS4 it   1 1.00000000   0.859E+00       0.000       16.128   0.100E-07
     TRS4 it   2 1.00000000   0.595E+00       0.001       32.256   0.100E-07
     TRS4 it   3 1.00000000   0.398E+00       0.001       32.256   0.100E-07
     TRS4 it   4 1.00000000   0.196E+00       0.001       32.256   0.100E-07
     TRS4 it   5 1.00000000   0.596E-01       0.001       32.256   0.100E-07
     TRS4 it   6 1.00000000   0.672E-02       0.001       32.256   0.100E-07
     TRS4 it   7 1.00000000   0.111E-03       0.001       32.256   0.100E-07
     TRS4 it   8 1.00000000   0.423E-07       0.017        1.927   0.100E-07
     Final TRS4 iteration    8 1.00000000   0.423E-07
     Chemical potential (mu):       0.01052
 
 PAO| energy:  -7.7591552918661266      penalty:   1.6130989066287889E-005
 PAO|LS| adapt:  T T T
 PAO|LS| adapt: scan_steps:    0.0000000000000000       0.29825540447878379       0.59651080895756758     
 PAO|LS| adapt: energies:   -7.7575843751516569       -7.7600586741250615       -7.7591552918661266     
 PAO|LS| adapt: suggested step_size:   0.36761280795290402     
 PAO|LS| adapt: predicted energy  -7.7601500008057798     
 PAO| ======================= Iteration:        15 =============================

     Lanczos converged:  T threshold:   0.100E-02
     Est. extremal eigenvalues:    0.289E+01   0.188E+00
     Est. condition number :    0.154E+02

 Order=           3
     NS sqrt iter    1 1.00000000   0.735E+00       0.001       57.747
     NS sqrt iter    2 1.00000000   0.341E+00       0.001       97.683
     NS sqrt iter    3 1.00000000   0.781E-01       0.001       96.953
     NS sqrt iter    4 1.00000000   0.195E-02       0.001       97.165
     NS sqrt iter    5 1.00000000   0.588E-07       0.001       67.107
     Symmetrizing Results
     Final NS sqrt iter    5 1.00000000   0.366E-09

     Est. extremal eigenvalues     -0.92726     1.64199  converged:  T
     TRS4 it   1 1.00000000   0.860E+00       0.000       16.128   0.100E-07
     TRS4 it   2 1.00000000   0.598E+00       0.001       32.256   0.100E-07
     TRS4 it   3 1.00000000   0.401E+00       0.001       32.256   0.100E-07
     TRS4 it   4 1.00000000   0.201E+00       0.001       32.256   0.100E-07
     TRS4 it   5 1.00000000   0.624E-01       0.001       32.256   0.100E-07
     TRS4 it   6 1.00000000   0.742E-02       0.013        2.525   0.100E-07
     TRS4 it   7 1.00000000   0.137E-03       0.001       32.256   0.100E-07
     TRS4 it   8 1.00000000   0.662E-07       0.001       32.256   0.100E-07
     Final TRS4 iteration    8 1.00000000   0.662E-07
     Chemical potential (mu):       0.00706
 
 PAO| energy:  -7.7601464350834704      penalty:   1.5166427018230592E-005
 PAO|CG| trace_G_new    3.2415640980052330E-003
 PAO|CG| trace_G_prev    1.4149711633379702E-002
 PAO|CG| trace_G_mix    7.3893116392885529E-005
 PAO|CG| trace_D    2.0689999539722965E-002
 PAO|CG| trace_D_Gnew   4.5825650921417220E-005
 PAO|CG| beta:   0.22386823588260926     
 PAO| norm of gradient:   5.6934735425794622E-002
 PAO| energy improvement:  -2.5620599318134651E-003
 PAO| step     15                   -7.760146435  0.356E-02  0.368E+00     0.117
 PAO|LS| adapt:  T F F
 PAO|LS| adapt: scan_steps:    0.0000000000000000        0.0000000000000000        0.0000000000000000     
 PAO|LS| adapt: energies:   -7.7601464350834704        0.0000000000000000        0.0000000000000000     
 PAO| ======================= Iteration:        16 =============================

     Lanczos converged:  T threshold:   0.100E-02
     Est. extremal eigenvalues:    0.287E+01   0.188E+00
     Est. condition number :    0.153E+02

 Order=           3
     NS sqrt iter    1 1.00000000   0.733E+00       0.001       59.355
     NS sqrt iter    2 1.00000000   0.339E+00       0.001       98.064
     NS sqrt iter    3 1.00000000   0.773E-01       0.001      101.295
     NS sqrt iter    4 1.00000000   0.190E-02       0.001      101.303
     NS sqrt iter    5 1.00000000   0.540E-07       0.001       65.632
     Symmetrizing Results
     Final NS sqrt iter    5 1.00000000   0.312E-09

     Est. extremal eigenvalues     -0.92728     1.64263  converged:  T
     TRS4 it   1 1.00000000   0.860E+00       0.000       16.128   0.100E-07
     TRS4 it   2 1.00000000   0.597E+00       0.001       32.256   0.100E-07
     TRS4 it   3 1.00000000   0.400E+00       0.001       32.256   0.100E-07
     TRS4 it   4 1.00000000   0.199E+00       0.001       32.256   0.100E-07
     TRS4 it   5 1.00000000   0.614E-01       0.001       32.256   0.100E-07
     TRS4 it   6 1.00000000   0.719E-02       0.001       32.256   0.100E-07
     TRS4 it   7 1.00000000   0.130E-03       0.001       32.256   0.100E-07
     TRS4 it   8 1.00000000   0.599E-07       0.001       32.256   0.100E-07
     Final TRS4 iteration    8 1.00000000   0.599E-07
     Chemical potential (mu):       0.00795
 
 PAO| energy:  -7.7603058538045007      penalty:   1.5060894514539498E-005
 PAO|LS| adapt:  T T F
 PAO|LS| adapt: scan_steps:    0.0000000000000000       0.36761280795290402        0.0000000000000000     
 PAO|LS| adapt: energies:   -7.7601464350834704       -7.7603058538045007        0.0000000000000000     
 PAO| ======================= Iteration:        17 =============================

     Lanczos converged:  T threshold:   0.100E-02
     Est. extremal eigenvalues:    0.286E+01   0.188E+00
     Est. condition number :    0.152E+02

 Order=           3
     NS sqrt iter    1 1.00000000   0.730E+00       0.001       58.142
     NS sqrt iter    2 1.00000000   0.338E+00       0.001       96.836
     NS sqrt iter    3 1.00000000   0.766E-01       0.001       99.262
     NS sqrt iter    4 1.00000000   0.184E-02       0.001      101.465
     NS sqrt iter    5 1.00000000   0.497E-07       0.017        3.981
     Symmetrizing Results
     Final NS sqrt iter    5 1.00000000   0.245E-08

     Est. extremal eigenvalues     -0.92719     1.64345  converged:  T
     TRS4 it   1 1.00000000   0.861E+00       0.000       16.128   0.100E-07
     TRS4 it   2 1.00000000   0.597E+00       0.001       32.256   0.100E-07
     TRS4 it   3 1.00000000   0.399E+00       0.001       32.256   0.100E-07
     TRS4 it   4 1.00000000   0.198E+00       0.001       32.256   0.100E-07
     TRS4 it   5 1.00000000   0.604E-01       0.001       32.256   0.100E-07
     TRS4 it   6 1.00000000   0.698E-02       0.001       32.256   0.100E-07
     TRS4 it   7 1.00000000   0.123E-03       0.001       32.256   0.100E-07
     TRS4 it   8 1.00000000   0.545E-07       0.001       32.256   0.100E-07
     Final TRS4 iteration    8 1.00000000   0.545E-07
     Chemical potential (mu):       0.00884
 
 PAO| energy:  -7.7583998801898453      penalty:   1.5116751948749044E-005
 PAO|LS| adapt:  T T T
 PAO|LS| adapt: scan_steps:    0.0000000000000000       0.36761280795290402       0.73522561590580804     
 PAO|LS| adapt: energies:   -7.7601464350834704       -7.7603058538045007       -7.7583998801898453     
 PAO|LS| adapt: suggested step_size:   0.21218085016067192     
 PAO|LS| adapt: predicted energy  -7.7604904709074924     
 PAO| ======================= Iteration:        18 =============================

     Lanczos converged:  T threshold:   0.100E-02
     Est. extremal eigenvalues:    0.288E+01   0.188E+00
     Est. condition number :    0.153E+02

 Order=           3
     NS sqrt iter    1 1.00000000   0.734E+00       0.001       58.299
     NS sqrt iter    2 1.00000000   0.340E+00       0.001       99.672
     NS sqrt iter    3 1.00000000   0.776E-01       0.001      101.951
     NS sqrt iter    4 1.00000000   0.192E-02       0.017        6.429
     NS sqrt iter    5 1.00000000   0.560E-07       0.001       66.050
     Symmetrizing Results
     Final NS sqrt iter    5 1.00000000   0.335E-09

     Est. extremal eigenvalues     -0.92728     1.64233  converged:  T
     TRS4 it   1 1.00000000   0.860E+00       0.000       16.128   0.100E-07
     TRS4 it   2 1.00000000   0.597E+00       0.001       32.256   0.100E-07
     TRS4 it   3 1.00000000   0.401E+00       0.001       32.256   0.100E-07
     TRS4 it   4 1.00000000   0.200E+00       0.001       32.256   0.100E-07
     TRS4 it   5 1.00000000   0.618E-01       0.001       32.256   0.100E-07
     TRS4 it   6 1.00000000   0.729E-02       0.001       32.256   0.100E-07
     TRS4 it   7 1.00000000   0.133E-03       0.001       32.256   0.100E-07
     TRS4 it   8 1.00000000   0.625E-07       0.001       32.256   0.100E-07
     Final TRS4 iteration    8 1.00000000   0.625E-07
     Chemical potential (mu):       0.00757
 
 PAO| energy:  -7.7604897696191033      penalty:   1.5086303911549634E-005
 PAO|CG| trace_G_new    8.8570345737519029E-004
 PAO|CG| trace_G_prev    3.2415640980052330E-003
 PAO|CG| trace_G_mix    2.8815993924485065E-006
 PAO|CG| trace_D    4.2579667214771291E-003
 PAO|CG| trace_D_Gnew  -2.6928904135644576E-006
 PAO|CG| beta:   0.27234440883831529     
 PAO| norm of gradient:   2.9760770443239375E-002
 PAO| energy improvement:  -3.4333453563295535E-004
 PAO| step     18                   -7.760489770  0.186E-02  0.212E+00     0.125
 PAO|LS| adapt:  T F F
 PAO|LS| adapt: scan_steps:    0.0000000000000000        0.0000000000000000        0.0000000000000000     
 PAO|LS| adapt: energies:   -7.7604897696191033        0.0000000000000000        0.0000000000000000     
 PAO| ======================= Iteration:        19 =============================

     Lanczos converged:  T threshold:   0.100E-02
     Est. extremal eigenvalues:    0.288E+01   0.188E+00
     Est. condition number :    0.153E+02

 Order=           3
     NS sqrt iter    1 1.00000000   0.734E+00       0.001       59.496
     NS sqrt iter    2 1.00000000   0.340E+00       0.001       97.004
     NS sqrt iter    3 1.00000000   0.779E-01       0.001       99.201
     NS sqrt iter    4 1.00000000   0.193E-02       0.001       98.482
     NS sqrt iter    5 1.00000000   0.566E-07       0.001       65.158
     Symmetrizing Results
     Final NS sqrt iter    5 1.00000000   0.339E-09

     Est. extremal eigenvalues     -0.92728     1.64253  converged:  T
     TRS4 it   1 1.00000000   0.860E+00       0.000       16.128   0.100E-07
     TRS4 it   2 1.00000000   0.597E+00       0.001       32.256   0.100E-07
     TRS4 it   3 1.00000000   0.401E+00       0.001       32.256   0.100E-07
     TRS4 it   4 1.00000000   0.199E+00       0.001       32.256   0.100E-07
     TRS4 it   5 1.00000000   0.617E-01       0.001       32.256   0.100E-07
     TRS4 it   6 1.00000000   0.729E-02       0.001       32.256   0.100E-07
     TRS4 it   7 1.00000000   0.134E-03       0.001       32.256   0.100E-07
     TRS4 it   8 1.00000000   0.641E-07       0.017        1.924   0.100E-07
     Final TRS4 iteration    8 1.00000000   0.641E-07
     Chemical potential (mu):       0.00729
 
 PAO| energy:  -7.7606335753551718      penalty:   1.4817332532528988E-005
 PAO|LS| adapt:  T T F
 PAO|LS| adapt: scan_steps:    0.0000000000000000       0.21218085016067192        0.0000000000000000     
 PAO|LS| adapt: energies:   -7.7604897696191033       -7.7606335753551718        0.0000000000000000     
 PAO| ======================= Iteration:        20 =============================

     Lanczos converged:  T threshold:   0.100E-02
     Est. extremal eigenvalues:    0.288E+01   0.188E+00
     Est. condition number :    0.153E+02

 Order=           3
     NS sqrt iter    1 1.00000000   0.734E+00       0.001       57.836
     NS sqrt iter    2 1.00000000   0.340E+00       0.001       98.146
     NS sqrt iter    3 1.00000000   0.781E-01       0.001       98.529
     NS sqrt iter    4 1.00000000   0.194E-02       0.001       97.018
     NS sqrt iter    5 1.00000000   0.573E-07       0.001       68.470
     Symmetrizing Results
     Final NS sqrt iter    5 1.00000000   0.351E-09

     Est. extremal eigenvalues     -0.92728     1.64272  converged:  T
     TRS4 it   1 1.00000000   0.860E+00       0.000       16.128   0.100E-07
     TRS4 it   2 1.00000000   0.597E+00       0.001       32.256   0.100E-07
     TRS4 it   3 1.00000000   0.400E+00       0.001       32.256   0.100E-07
     TRS4 it   4 1.00000000   0.199E+00       0.001       32.256   0.100E-07
     TRS4 it   5 1.00000000   0.616E-01       0.001       32.256   0.100E-07
     TRS4 it   6 1.00000000   0.729E-02       0.013        2.524   0.100E-07
     TRS4 it   7 1.00000000   0.135E-03       0.001       32.256   0.100E-07
     TRS4 it   8 1.00000000   0.658E-07       0.001       32.256   0.100E-07
     Final TRS4 iteration    8 1.00000000   0.658E-07
     Chemical potential (mu):       0.00701
 
 PAO| energy:  -7.7606882446136201      penalty:   1.4562174300906609E-005
 PAO|LS| adapt:  T T F
 PAO|LS| adapt: scan_steps:    0.0000000000000000       0.42436170032134385        0.0000000000000000     
 PAO|LS| adapt: energies:   -7.7604897696191033       -7.7606882446136201        0.0000000000000000     
 PAO| ======================= Iteration:        21 =============================

     Lanczos converged:  T threshold:   0.100E-02
     Est. extremal eigenvalues:    0.288E+01   0.187E+00
     Est. condition number :    0.154E+02

 Order=           3
     NS sqrt iter    1 1.00000000   0.733E+00       0.001       57.929
     NS sqrt iter    2 1.00000000   0.341E+00       0.001       98.942
     NS sqrt iter    3 1.00000000   0.787E-01       0.001      101.030
     NS sqrt iter    4 1.00000000   0.197E-02       0.001       97.828
     NS sqrt iter    5 1.00000000   0.588E-07       0.001       66.419
     Symmetrizing Results
     Final NS sqrt iter    5 1.00000000   0.364E-09

     Est. extremal eigenvalues     -0.92726     1.64315  converged:  T
     TRS4 it   1 1.00000000   0.860E+00       0.000       16.128   0.100E-07
     TRS4 it   2 1.00000000   0.597E+00       0.001       32.256   0.100E-07
     TRS4 it   3 1.00000000   0.400E+00       0.001       32.256   0.100E-07
     TRS4 it   4 1.00000000   0.199E+00       0.001       32.256   0.100E-07
     TRS4 it   5 1.00000000   0.615E-01       0.017        1.926   0.100E-07
     TRS4 it   6 1.00000000   0.729E-02       0.001       32.256   0.100E-07
     TRS4 it   7 1.00000000   0.137E-03       0.001       32.256   0.100E-07
     TRS4 it   8 1.00000000   0.694E-07       0.001       32.256   0.100E-07
     Final TRS4 iteration    8 1.00000000   0.694E-07
     Chemical potential (mu):       0.00643
 
 PAO| energy:  -7.7605266572830711      penalty:   1.4092896073529079E-005
 PAO|LS| Need extra step
 PAO|LS| adapt:  T T T
 PAO|LS| adapt: scan_steps:    0.0000000000000000       0.42436170032134385       0.84872340064268770     
 PAO|LS| adapt: energies:   -7.7604897696191033       -7.7606882446136201       -7.7605266572830711     
 PAO|LS| adapt: suggested step_size:   0.44609920340418735     
 PAO|LS| adapt: predicted energy  -7.7606887169970307     
 PAO| ======================= Iteration:        22 =============================

     Lanczos converged:  T threshold:   0.100E-02
     Est. extremal eigenvalues:    0.288E+01   0.188E+00
     Est. condition number :    0.153E+02

 Order=           3
     NS sqrt iter    1 1.00000000   0.734E+00       0.001       58.140
     NS sqrt iter    2 1.00000000   0.340E+00       0.001       98.212
     NS sqrt iter    3 1.00000000   0.782E-01       0.001       96.383
     NS sqrt iter    4 1.00000000   0.194E-02       0.001       98.684
     NS sqrt iter    5 1.00000000   0.574E-07       0.001       66.975
     Symmetrizing Results
     Final NS sqrt iter    5 1.00000000   0.352E-09

     Est. extremal eigenvalues     -0.92728     1.64274  converged:  T
     TRS4 it   1 1.00000000   0.860E+00       0.000       16.128   0.100E-07
     TRS4 it   2 1.00000000   0.597E+00       0.001       32.256   0.100E-07
     TRS4 it   3 1.00000000   0.400E+00       0.017        1.927   0.100E-07
     TRS4 it   4 1.00000000   0.199E+00       0.001       32.256   0.100E-07
     TRS4 it   5 1.00000000   0.616E-01       0.001       32.256   0.100E-07
     TRS4 it   6 1.00000000   0.729E-02       0.001       32.256   0.100E-07
     TRS4 it   7 1.00000000   0.135E-03       0.001       32.256   0.100E-07
     TRS4 it   8 1.00000000   0.660E-07       0.001       32.256   0.100E-07
     Final TRS4 iteration    8 1.00000000   0.660E-07
     Chemical potential (mu):       0.00698
 
 PAO| energy:  -7.7606887767983315      penalty:   1.4536807950639792E-005
 PAO|CG| trace_G_new    2.3867161819750280E-004
 PAO|CG| trace_G_prev    8.8570345737519029E-004
 PAO|CG| trace_G_mix    4.7824637934239093E-006
 PAO|CG| trace_D    1.2029899255280353E-003
 PAO|CG| trace_D_Gnew  -2.7486487575217901E-006
 PAO|CG| beta:   0.26407162855298844     
 PAO| norm of gradient:   1.5449000556589505E-002
 PAO| energy improvement:  -1.9900717922816114E-004
 PAO| step     22                   -7.760688777  0.966E-03  0.446E+00     0.134
 PAO|LS| adapt:  T F F
 PAO|LS| adapt: scan_steps:    0.0000000000000000        0.0000000000000000        0.0000000000000000     
 PAO|LS| adapt: energies:   -7.7606887767983315        0.0000000000000000        0.0000000000000000     
 PAO| ======================= Iteration:        23 =============================

     Lanczos converged:  T threshold:   0.100E-02
     Est. extremal eigenvalues:    0.288E+01   0.188E+00
     Est. condition number :    0.153E+02

 Order=           3
     NS sqrt iter    1 1.00000000   0.733E+00       0.001       57.673
     NS sqrt iter    2 1.00000000   0.340E+00       0.001       99.027
     NS sqrt iter    3 1.00000000   0.782E-01       0.001       98.109
     NS sqrt iter    4 1.00000000   0.194E-02       0.001       97.604
     NS sqrt iter    5 1.00000000   0.571E-07       0.001       65.248
     Symmetrizing Results
     Final NS sqrt iter    5 1.00000000   0.343E-09

     Est. extremal eigenvalues     -0.92728     1.64308  converged:  T
     TRS4 it   1 1.00000000   0.860E+00       0.000       16.128   0.100E-07
     TRS4 it   2 1.00000000   0.598E+00       0.001       32.256   0.100E-07
     TRS4 it   3 1.00000000   0.401E+00       0.001       32.256   0.100E-07
     TRS4 it   4 1.00000000   0.199E+00       0.001       32.256   0.100E-07
     TRS4 it   5 1.00000000   0.618E-01       0.001       32.256   0.100E-07
     TRS4 it   6 1.00000000   0.734E-02       0.001       32.256   0.100E-07
     TRS4 it   7 1.00000000   0.137E-03       0.001       32.256   0.100E-07
     TRS4 it   8 1.00000000   0.685E-07       0.001       32.256   0.100E-07
     Final TRS4 iteration    8 1.00000000   0.685E-07
     Chemical potential (mu):       0.00667
 
 PAO| energy:  -7.7607324981498227      penalty:   1.3884278475673564E-005
 PAO|LS| adapt:  T T F
 PAO|LS| adapt: scan_steps:    0.0000000000000000       0.44609920340418735        0.0000000000000000     
 PAO|LS| adapt: energies:   -7.7606887767983315       -7.7607324981498227        0.0000000000000000     
 PAO| ======================= Iteration:        24 =============================

     Lanczos converged:  T threshold:   0.100E-02
     Est. extremal eigenvalues:    0.288E+01   0.188E+00
     Est. condition number :    0.153E+02

 Order=           3
     NS sqrt iter    1 1.00000000   0.733E+00       0.001       57.324
     NS sqrt iter    2 1.00000000   0.340E+00       0.001       97.763
     NS sqrt iter    3 1.00000000   0.782E-01       0.017        6.439
     NS sqrt iter    4 1.00000000   0.194E-02       0.001       97.649
     NS sqrt iter    5 1.00000000   0.568E-07       0.001       65.006
     Symmetrizing Results
     Final NS sqrt iter    5 1.00000000   0.346E-09

     Est. extremal eigenvalues     -0.92727     1.64341  converged:  T
     TRS4 it   1 1.00000000   0.860E+00       0.000       16.128   0.100E-07
     TRS4 it   2 1.00000000   0.598E+00       0.001       32.256   0.100E-07
     TRS4 it   3 1.00000000   0.401E+00       0.001       32.256   0.100E-07
     TRS4 it   4 1.00000000   0.200E+00       0.001       32.256   0.100E-07
     TRS4 it   5 1.00000000   0.620E-01       0.001       32.256   0.100E-07
     TRS4 it   6 1.00000000   0.740E-02       0.001       32.256   0.100E-07
     TRS4 it   7 1.00000000   0.140E-03       0.001       32.256   0.100E-07
     TRS4 it   8 1.00000000   0.710E-07       0.001       32.256   0.100E-07
     Final TRS4 iteration    8 1.00000000   0.710E-07
     Chemical potential (mu):       0.00636
 
 PAO| energy:  -7.7606493809983395      penalty:   1.3258451925234134E-005
 PAO|LS| adapt:  T T T
 PAO|LS| adapt: scan_steps:    0.0000000000000000       0.44609920340418735       0.89219840680837470     
 PAO|LS| adapt: energies:   -7.7606887767983315       -7.7607324981498227       -7.7606493809983395     
 PAO|LS| adapt: suggested step_size:   0.37682041746074429     
 PAO|LS| adapt: predicted energy  -7.7607340276824770     
 PAO| ======================= Iteration:        25 =============================

     Lanczos converged:  T threshold:   0.100E-02
     Est. extremal eigenvalues:    0.288E+01   0.188E+00
     Est. condition number :    0.153E+02

 Order=           3
     NS sqrt iter    1 1.00000000   0.733E+00       0.001       57.965
     NS sqrt iter    2 1.00000000   0.340E+00       0.001       97.615
     NS sqrt iter    3 1.00000000   0.782E-01       0.001       98.122
     NS sqrt iter    4 1.00000000   0.194E-02       0.001       98.148
     NS sqrt iter    5 1.00000000   0.571E-07       0.001       65.483
     Symmetrizing Results
     Final NS sqrt iter    5 1.00000000   0.343E-09

     Est. extremal eigenvalues     -0.92728     1.64303  converged:  T
     TRS4 it   1 1.00000000   0.860E+00       0.000       16.128   0.100E-07
     TRS4 it   2 1.00000000   0.598E+00       0.001       32.256   0.100E-07
     TRS4 it   3 1.00000000   0.401E+00       0.001       32.256   0.100E-07
     TRS4 it   4 1.00000000   0.199E+00       0.001       32.256   0.100E-07
     TRS4 it   5 1.00000000   0.618E-01       0.001       32.256   0.100E-07
     TRS4 it   6 1.00000000   0.733E-02       0.001       32.256   0.100E-07
     TRS4 it   7 1.00000000   0.137E-03       0.001       32.256   0.100E-07
     TRS4 it   8 1.00000000   0.681E-07       0.001       32.256   0.100E-07
     Final TRS4 iteration    8 1.00000000   0.681E-07
     Chemical potential (mu):       0.00672
 
 PAO| energy:  -7.7607340010665951      penalty:   1.3983850991741750E-005
 PAO|CG| trace_G_new    7.6351773678255211E-005
 PAO|CG| trace_G_prev    2.3867161819750280E-004
 PAO|CG| trace_G_mix    4.0525322460913178E-007
 PAO|CG| trace_D    3.2401238745644848E-004
 PAO|CG| trace_D_Gnew  -3.7320874635599550E-007
 PAO|CG| beta:   0.31820507619301297     
 PAO| norm of gradient:   8.7379501988884799E-003
 PAO| energy improvement:  -4.5224268263588385E-005
 PAO| step     25                   -7.760734001  0.546E-03  0.377E+00     0.105
 PAO|LS| adapt:  T F F
 PAO|LS| adapt: scan_steps:    0.0000000000000000        0.0000000000000000        0.0000000000000000     
 PAO|LS| adapt: energies:   -7.7607340010665951        0.0000000000000000        0.0000000000000000     
 PAO| ======================= Iteration:        26 =============================

     Lanczos converged:  T threshold:   0.100E-02
     Est. extremal eigenvalues:    0.288E+01   0.188E+00
     Est. condition number :    0.153E+02

 Order=           3
     NS sqrt iter    1 1.00000000   0.733E+00       0.001       57.914
     NS sqrt iter    2 1.00000000   0.340E+00       0.001       98.576
     NS sqrt iter    3 1.00000000   0.781E-01       0.001       98.116
     NS sqrt iter    4 1.00000000   0.194E-02       0.001      101.960
     NS sqrt iter    5 1.00000000   0.566E-07       0.001       66.261
     Symmetrizing Results
     Final NS sqrt iter    5 1.00000000   0.345E-09

     Est. extremal eigenvalues     -0.92728     1.64298  converged:  T
     TRS4 it   1 1.00000000   0.860E+00       0.000       16.128   0.100E-07
     TRS4 it   2 1.00000000   0.598E+00       0.001       32.256   0.100E-07
     TRS4 it   3 1.00000000   0.401E+00       0.001       32.256   0.100E-07
     TRS4 it   4 1.00000000   0.199E+00       0.001       32.256   0.100E-07
     TRS4 it   5 1.00000000   0.617E-01       0.001       32.256   0.100E-07
     TRS4 it   6 1.00000000   0.733E-02       0.001       32.256   0.100E-07
     TRS4 it   7 1.00000000   0.137E-03       0.001       32.256   0.100E-07
     TRS4 it   8 1.00000000   0.676E-07       0.001       32.256   0.100E-07
     Final TRS4 iteration    8 1.00000000   0.676E-07
     Chemical potential (mu):       0.00677
 
 PAO| energy:  -7.7607409292825453      penalty:   1.3389018692313300E-005
 PAO|LS| adapt:  T T F
 PAO|LS| adapt: scan_steps:    0.0000000000000000       0.37682041746074429        0.0000000000000000     
 PAO|LS| adapt: energies:   -7.7607340010665951       -7.7607409292825453        0.0000000000000000     
 PAO| ======================= Iteration:        27 =============================

     Lanczos converged:  T threshold:   0.100E-02
     Est. extremal eigenvalues:    0.288E+01   0.188E+00
     Est. condition number :    0.153E+02

 Order=           3
     NS sqrt iter    1 1.00000000   0.733E+00       0.001       56.914
     NS sqrt iter    2 1.00000000   0.340E+00       0.001       96.215
     NS sqrt iter    3 1.00000000   0.779E-01       0.001       98.122
     NS sqrt iter    4 1.00000000   0.193E-02       0.001       97.760
     NS sqrt iter    5 1.00000000   0.560E-07       0.001       66.368
     Symmetrizing Results
     Final NS sqrt iter    5 1.00000000   0.341E-09

     Est. extremal eigenvalues     -0.92728     1.64294  converged:  T
     TRS4 it   1 1.00000000   0.860E+00       0.000       16.128   0.100E-07
     TRS4 it   2 1.00000000   0.598E+00       0.001       32.256   0.100E-07
     TRS4 it   3 1.00000000   0.401E+00       0.001       32.256   0.100E-07
     TRS4 it   4 1.00000000   0.199E+00       0.001       32.256   0.100E-07
     TRS4 it   5 1.00000000   0.617E-01       0.001       32.256   0.100E-07
     TRS4 it   6 1.00000000   0.732E-02       0.001       32.256   0.100E-07
     TRS4 it   7 1.00000000   0.136E-03       0.001       32.256   0.100E-07
     TRS4 it   8 1.00000000   0.672E-07       0.001       32.256   0.100E-07
     Final TRS4 iteration    8 1.00000000   0.672E-07
     Chemical potential (mu):       0.00684
 
 PAO| energy:  -7.7607040082657379      penalty:   1.2809558498290237E-005
 PAO|LS| adapt:  T T T
 PAO|LS| adapt: scan_steps:    0.0000000000000000       0.37682041746074429       0.75364083492148859     
 PAO|LS| adapt: energies:   -7.7607340010665951       -7.7607409292825453       -7.7607040082657379     
 PAO|LS| adapt: suggested step_size:   0.24794815415047972     
 PAO|LS| adapt: predicted energy  -7.7607434936606605     
 PAO| ======================= Iteration:        28 =============================

     Lanczos converged:  T threshold:   0.100E-02
     Est. extremal eigenvalues:    0.288E+01   0.188E+00
     Est. condition number :    0.153E+02

 Order=           3
     NS sqrt iter    1 1.00000000   0.733E+00       0.001       58.341
     NS sqrt iter    2 1.00000000   0.340E+00       0.001       96.633
     NS sqrt iter    3 1.00000000   0.781E-01       0.001       99.031
     NS sqrt iter    4 1.00000000   0.194E-02       0.001      100.969
     NS sqrt iter    5 1.00000000   0.568E-07       0.001       66.296
     Symmetrizing Results
     Final NS sqrt iter    5 1.00000000   0.341E-09

     Est. extremal eigenvalues     -0.92728     1.64300  converged:  T
     TRS4 it   1 1.00000000   0.860E+00       0.000       16.128   0.100E-07
     TRS4 it   2 1.00000000   0.598E+00       0.001       32.256   0.100E-07
     TRS4 it   3 1.00000000   0.401E+00       0.001       32.256   0.100E-07
     TRS4 it   4 1.00000000   0.199E+00       0.001       32.256   0.100E-07
     TRS4 it   5 1.00000000   0.617E-01       0.001       32.256   0.100E-07
     TRS4 it   6 1.00000000   0.733E-02       0.001       32.256   0.100E-07
     TRS4 it   7 1.00000000   0.137E-03       0.001       32.256   0.100E-07
     TRS4 it   8 1.00000000   0.678E-07       0.001       32.256   0.100E-07
     Final TRS4 iteration    8 1.00000000   0.678E-07
     Chemical potential (mu):       0.00676
 
 PAO| energy:  -7.7607434880548460      penalty:   1.3590713895829893E-005
 PAO|CG| trace_G_new    1.9938781985980101E-005
 PAO|CG| trace_G_prev    7.6351773678255211E-005
 PAO|CG| trace_G_mix    5.6466525128947025E-008
 PAO|CG| trace_D    1.0939699024559953E-004
 PAO|CG| trace_D_Gnew  -2.8653001748505561E-008
 PAO|CG| beta:   0.26040410723966700     
 PAO| norm of gradient:   4.4652863274352410E-003
 PAO| energy improvement:  -9.4869882509840409E-006
 PAO| step     28                   -7.760743488  0.279E-03  0.248E+00     0.056
 PAO|LS| adapt:  T F F
 PAO|LS| adapt: scan_steps:    0.0000000000000000        0.0000000000000000        0.0000000000000000     
 PAO|LS| adapt: energies:   -7.7607434880548460        0.0000000000000000        0.0000000000000000     
 PAO| ======================= Iteration:        29 =============================

     Lanczos converged:  T threshold:   0.100E-02
     Est. extremal eigenvalues:    0.288E+01   0.188E+00
     Est. condition number :    0.153E+02

 Order=           3
     NS sqrt iter    1 1.00000000   0.733E+00       0.001       58.473
     NS sqrt iter    2 1.00000000   0.340E+00       0.001       97.366
     NS sqrt iter    3 1.00000000   0.780E-01       0.001       96.567
     NS sqrt iter    4 1.00000000   0.194E-02       0.001       98.408
     NS sqrt iter    5 1.00000000   0.567E-07       0.001       65.997
     Symmetrizing Results
     Final NS sqrt iter    5 1.00000000   0.340E-09

     Est. extremal eigenvalues     -0.92728     1.64304  converged:  T
     TRS4 it   1 1.00000000   0.860E+00       0.000       16.128   0.100E-07
     TRS4 it   2 1.00000000   0.598E+00       0.001       32.256   0.100E-07
     TRS4 it   3 1.00000000   0.400E+00       0.001       32.256   0.100E-07
     TRS4 it   4 1.00000000   0.199E+00       0.001       32.256   0.100E-07
     TRS4 it   5 1.00000000   0.617E-01       0.001       32.256   0.100E-07
     TRS4 it   6 1.00000000   0.731E-02       0.001       32.256   0.100E-07
     TRS4 it   7 1.00000000   0.136E-03       0.001       32.256   0.100E-07
     TRS4 it   8 1.00000000   0.671E-07       0.001       32.256   0.100E-07
     Final TRS4 iteration    8 1.00000000   0.671E-07
     Chemical potential (mu):       0.00685
 
 PAO| energy:  -7.7607478535474863      penalty:   1.3217338631664753E-005
 PAO|LS| adapt:  T T F
 PAO|LS| adapt: scan_steps:    0.0000000000000000       0.24794815415047972        0.0000000000000000     
 PAO|LS| adapt: energies:   -7.7607434880548460       -7.7607478535474863        0.0000000000000000     
 PAO| ======================= Iteration:        30 =============================

     Lanczos converged:  T threshold:   0.100E-02
     Est. extremal eigenvalues:    0.288E+01   0.188E+00
     Est. condition number :    0.153E+02

 Order=           3
     NS sqrt iter    1 1.00000000   0.733E+00       0.001       58.224
     NS sqrt iter    2 1.00000000   0.340E+00       0.001       95.701
     NS sqrt iter    3 1.00000000   0.780E-01       0.001       99.053
     NS sqrt iter    4 1.00000000   0.193E-02       0.001       98.641
     NS sqrt iter    5 1.00000000   0.566E-07       0.001       66.097
     Symmetrizing Results
     Final NS sqrt iter    5 1.00000000   0.340E-09

     Est. extremal eigenvalues     -0.92728     1.64307  converged:  T
     TRS4 it   1 1.00000000   0.860E+00       0.000       16.128   0.100E-07
     TRS4 it   2 1.00000000   0.597E+00       0.001       32.256   0.100E-07
     TRS4 it   3 1.00000000   0.400E+00       0.001       32.256   0.100E-07
     TRS4 it   4 1.00000000   0.199E+00       0.001       32.256   0.100E-07
     TRS4 it   5 1.00000000   0.616E-01       0.001       32.256   0.100E-07
     TRS4 it   6 1.00000000   0.730E-02       0.001       32.256   0.100E-07
     TRS4 it   7 1.00000000   0.135E-03       0.001       32.256   0.100E-07
     TRS4 it   8 1.00000000   0.664E-07       0.001       32.256   0.100E-07
     Final TRS4 iteration    8 1.00000000   0.664E-07
     Chemical potential (mu):       0.00694
 
 PAO| energy:  -7.7607510568143105      penalty:   1.2849607318571825E-005
 PAO|LS| adapt:  T T F
 PAO|LS| adapt: scan_steps:    0.0000000000000000       0.49589630830095943        0.0000000000000000     
 PAO|LS| adapt: energies:   -7.7607434880548460       -7.7607510568143105        0.0000000000000000     
 PAO| ======================= Iteration:        31 =============================

     Lanczos converged:  T threshold:   0.100E-02
     Est. extremal eigenvalues:    0.287E+01   0.188E+00
     Est. condition number :    0.153E+02

 Order=           3
     NS sqrt iter    1 1.00000000   0.732E+00       0.001       57.158
     NS sqrt iter    2 1.00000000   0.340E+00       0.001       97.450
     NS sqrt iter    3 1.00000000   0.779E-01       0.001       99.527
     NS sqrt iter    4 1.00000000   0.193E-02       0.001      100.264
     NS sqrt iter    5 1.00000000   0.564E-07       0.001       65.702
     Symmetrizing Results
     Final NS sqrt iter    5 1.00000000   0.352E-09

     Est. extremal eigenvalues     -0.92729     1.64315  converged:  T
     TRS4 it   1 1.00000000   0.861E+00       0.000       16.128   0.100E-07
     TRS4 it   2 1.00000000   0.597E+00       0.001       32.256   0.100E-07
     TRS4 it   3 1.00000000   0.400E+00       0.001       32.256   0.100E-07
     TRS4 it   4 1.00000000   0.199E+00       0.001       32.256   0.100E-07
     TRS4 it   5 1.00000000   0.615E-01       0.001       32.256   0.100E-07
     TRS4 it   6 1.00000000   0.727E-02       0.001       32.256   0.100E-07
     TRS4 it   7 1.00000000   0.134E-03       0.001       32.256   0.100E-07
     TRS4 it   8 1.00000000   0.651E-07       0.001       32.256   0.100E-07
     Final TRS4 iteration    8 1.00000000   0.651E-07
     Chemical potential (mu):       0.00713
 
 PAO| energy:  -7.7607539777205057      penalty:   1.2131001542083367E-005
 PAO|LS| Need extra step
 PAO|LS| adapt:  T T F
 PAO|LS| adapt: scan_steps:    0.0000000000000000       0.99179261660191886        0.0000000000000000     
 PAO|LS| adapt: energies:   -7.7607434880548460       -7.7607539777205057        0.0000000000000000     
 PAO| ======================= Iteration:        32 =============================

     Lanczos converged:  T threshold:   0.100E-02
     Est. extremal eigenvalues:    0.287E+01   0.187E+00
     Est. condition number :    0.153E+02

 Order=           3
     NS sqrt iter    1 1.00000000   0.732E+00       0.001       57.856
     NS sqrt iter    2 1.00000000   0.339E+00       0.001       97.584
     NS sqrt iter    3 1.00000000   0.776E-01       0.001       97.723
     NS sqrt iter    4 1.00000000   0.192E-02       0.001       95.577
     NS sqrt iter    5 1.00000000   0.561E-07       0.001       64.887
     Symmetrizing Results
     Final NS sqrt iter    5 1.00000000   0.351E-09

     Est. extremal eigenvalues     -0.92729     1.64331  converged:  T
     TRS4 it   1 1.00000000   0.861E+00       0.000       16.128   0.100E-07
     TRS4 it   2 1.00000000   0.597E+00       0.001       32.256   0.100E-07
     TRS4 it   3 1.00000000   0.400E+00       0.001       32.256   0.100E-07
     TRS4 it   4 1.00000000   0.199E+00       0.001       32.256   0.100E-07
     TRS4 it   5 1.00000000   0.612E-01       0.001       32.256   0.100E-07
     TRS4 it   6 1.00000000   0.721E-02       0.001       32.256   0.100E-07
     TRS4 it   7 1.00000000   0.132E-03       0.001       32.256   0.100E-07
     TRS4 it   8 1.00000000   0.626E-07       0.001       32.256   0.100E-07
     Final TRS4 iteration    8 1.00000000   0.626E-07
     Chemical potential (mu):       0.00749
 
 PAO| energy:  -7.7607458668550082      penalty:   1.0760694390193532E-005
 PAO|LS| Need extra step
 PAO|LS| adapt:  T T T
 PAO|LS| adapt: scan_steps:    0.0000000000000000       0.99179261660191886        1.9835852332038377     
 PAO|LS| adapt: energies:   -7.7607434880548460       -7.7607539777205057       -7.7607458668550082     
[...]
     NS sqrt iter    4 1.00000000   0.689E-03       0.001      110.592
     NS sqrt iter    5 1.00000000   0.145E-08       0.001       36.864
     Symmetrizing Results
     Final NS sqrt iter    5 1.00000000   0.106E-09

     Est. extremal eigenvalues     -0.92691     1.53415  converged:  T
     TRS4 it   1 1.00000000   0.849E+00       0.000       16.128   0.100E-07
     TRS4 it   2 1.00000000   0.608E+00       0.000       32.256   0.100E-07
     TRS4 it   3 1.00000000   0.437E+00       0.000       32.256   0.100E-07
     TRS4 it   4 1.00000000   0.266E+00       0.000       32.256   0.100E-07
     TRS4 it   5 1.00000000   0.123E+00       0.000       32.256   0.100E-07
     TRS4 it   6 1.00000000   0.329E-01       0.000       32.256   0.100E-07
     TRS4 it   7 1.00000000   0.335E-02       0.000       32.256   0.100E-07
     TRS4 it   8 1.00000000   0.454E-04       0.000       32.256   0.100E-07
     TRS4 it   9 1.00000000   0.903E-08       0.000       32.256   0.100E-07
     Final TRS4 iteration    9 1.00000000   0.903E-08
     Chemical potential (mu):      -0.06997
 
 PAO| energy:  -7.7586077565415801      penalty:   2.1506997871605256E-011
 PAO|CG| warming up with steepest descent
 PAO|CG| beta:    0.0000000000000000     
 PAO| norm of gradient:   5.9813046239233415E-006
 PAO| energy improvement:  -1.1272760502833989E-011
 PAO| step    808                   -7.758607757  0.374E-06  0.242E+00     0.053
 PAO| converged after          808  steps :-)
 PAO| Recalculating energy after mixing.

     Lanczos converged:  T threshold:   0.100E-02
     Est. extremal eigenvalues:    0.271E+01   0.218E+00
     Est. condition number :    0.124E+02

 Order=           3
     NS sqrt iter    1 1.00000000   0.681E+00       0.001       64.512
     NS sqrt iter    2 1.00000000   0.298E+00       0.001      110.592
     NS sqrt iter    3 1.00000000   0.547E-01       0.001      110.592
     NS sqrt iter    4 1.00000000   0.689E-03       0.001      110.592
     NS sqrt iter    5 1.00000000   0.145E-08       0.001       36.864
     Symmetrizing Results
     Final NS sqrt iter    5 1.00000000   0.106E-09

     Est. extremal eigenvalues     -0.92691     1.53415  converged:  T
     TRS4 it   1 1.00000000   0.849E+00       0.000       16.128   0.100E-07
     TRS4 it   2 1.00000000   0.608E+00       0.000       32.256   0.100E-07
     TRS4 it   3 1.00000000   0.437E+00       0.000       32.256   0.100E-07
     TRS4 it   4 1.00000000   0.266E+00       0.000       32.256   0.100E-07
     TRS4 it   5 1.00000000   0.123E+00       0.000       32.256   0.100E-07
     TRS4 it   6 1.00000000   0.329E-01       0.000       32.256   0.100E-07
     TRS4 it   7 1.00000000   0.335E-02       0.000       32.256   0.100E-07
     TRS4 it   8 1.00000000   0.454E-04       0.000       32.256   0.100E-07
     TRS4 it   9 1.00000000   0.903E-08       0.000       32.256   0.100E-07
     Final TRS4 iteration    9 1.00000000   0.903E-08
     Chemical potential (mu):      -0.06997
 
 PAO| energy:  -7.7586077565387663      penalty:   2.1716281044829204E-011
 PAO| Writing restart file.
     Est. extremal eigenvalues     -0.92691     1.53415  converged:  T
     TRS4 it   1 1.00000000   0.849E+00       0.000       16.128   0.100E-07
     TRS4 it   2 1.00000000   0.608E+00       0.000       32.256   0.100E-07
     TRS4 it   3 1.00000000   0.437E+00       0.000       32.256   0.100E-07
     TRS4 it   4 1.00000000   0.266E+00       0.000       32.256   0.100E-07
     TRS4 it   5 1.00000000   0.123E+00       0.000       32.256   0.100E-07
     TRS4 it   6 1.00000000   0.329E-01       0.000       32.256   0.100E-07
     TRS4 it   7 1.00000000   0.335E-02       0.000       32.256   0.100E-07
     TRS4 it   8 1.00000000   0.454E-04       0.000       32.256   0.100E-07
     TRS4 it   9 1.00000000   0.903E-08       0.000       32.256   0.100E-07
     Final TRS4 iteration    9 1.00000000   0.903E-08
     Chemical potential (mu):      -0.06997

 SCF     1       -34.447449768       -34.447449768    1.754810

*********************************************************
 Using MIXING_FRACTION=0.450 to mix KS matrix:  iscf=  2
 KS_nw=0.450*KS + 0.550*KS_old
*********************************************************
     Est. extremal eigenvalues     -0.92691     1.53415  converged:  T
     TRS4 it   1 1.00000000   0.849E+00       0.000       16.128   0.100E-07
     TRS4 it   2 1.00000000   0.608E+00       0.000       32.256   0.100E-07
     TRS4 it   3 1.00000000   0.437E+00       0.000       32.256   0.100E-07
     TRS4 it   4 1.00000000   0.266E+00       0.000       32.256   0.100E-07
     TRS4 it   5 1.00000000   0.123E+00       0.000       32.256   0.100E-07
     TRS4 it   6 1.00000000   0.329E-01       0.000       32.256   0.100E-07
     TRS4 it   7 1.00000000   0.335E-02       0.000       32.256   0.100E-07
     TRS4 it   8 1.00000000   0.454E-04       0.000       32.256   0.100E-07
     TRS4 it   9 1.00000000   0.903E-08       0.000       32.256   0.100E-07
     Final TRS4 iteration    9 1.00000000   0.903E-08
     Chemical potential (mu):      -0.06997

 SCF     2       -34.447449768        -0.000000000    1.332264


 SCF run converged in     2 steps.

 PAO| Storing density matrix for ASPC guess in slot:           1

 ENERGY| Total FORCE_EVAL ( QS ) energy [a.u.]:              -34.447449768455769

 -------------------------------------------------------------------------------
 -                                                                             -
 -                                DBCSR STATISTICS                             -
 -                                                                             -
 -------------------------------------------------------------------------------
 COUNTER                                    TOTAL       BLAS       SMM       ACC
 flops     5 x     5 x     4                32000       0.0%    100.0%      0.0%
 flops    13 x     5 x     4                33280       0.0%    100.0%      0.0%
 flops     5 x    13 x     4                33280       0.0%    100.0%      0.0%
 flops    13 x    13 x     4                64896       0.0%    100.0%      0.0%
 flops     4 x     4 x     5              6336000       0.0%    100.0%      0.0%
 flops     5 x     4 x     5              7728000       0.0%    100.0%      0.0%
 flops     4 x     4 x    13              8236800       0.0%    100.0%      0.0%
 flops    13 x     4 x     5             10046400       0.0%    100.0%      0.0%
 flops     5 x     4 x    13             10046400       0.0%    100.0%      0.0%
 flops     5 x     4 x     4             12307200       0.0%    100.0%      0.0%
 flops    13 x     4 x    13             13060320       0.0%    100.0%      0.0%
 flops    13 x     4 x     4             16491904       0.0%    100.0%      0.0%
 flops     4 x     4 x     4            803274624       0.0%    100.0%      0.0%
 flops inhomo. stacks                           0       0.0%      0.0%      0.0%
 flops total                       887.691104E+06       0.0%    100.0%      0.0%
 flops max/rank                    887.691104E+06       0.0%    100.0%      0.0%
 matmuls inhomo. stacks                         0       0.0%      0.0%      0.0%
 matmuls total                            6538823       0.0%    100.0%      0.0%
 number of processed stacks                 52427       0.0%    100.0%      0.0%
 average stack size                                     0.0     124.7       0.0
 marketing flops                     1.445919E+09
 -------------------------------------------------------------------------------
 # multiplications                          43568
 max memory usage/rank             506.720256E+06
 # max total images/rank                        1
 # max 3D layers                                1
 # MPI messages exchanged                       0
 -------------------------------------------------------------------------------

 -------------------------------------------------------------------------------
 -                                                                             -
 -                                DBM STATISTICS                               -
 -                                                                             -
 -------------------------------------------------------------------------------
    M  x    N  x    K                                          COUNT     PERCENT
 -------------------------------------------------------------------------------

 -------------------------------------------------------------------------------
 -                                                                             -
 -                                GRID STATISTICS                              -
 -                                                                             -
 -------------------------------------------------------------------------------
 LP    KERNEL             BACKEND                              COUNT     PERCENT
 2     collocate ortho    REF                                  60768      30.73%
 2     integrate ortho    REF                                  60768      30.73%
 3     collocate ortho    REF                                  31312      15.83%
 3     integrate ortho    REF                                  31312      15.83%
 4     collocate ortho    REF                                   6800       3.44%
 4     integrate ortho    REF                                   6800       3.44%
 0     collocate general  REF                                      6       0.00%
 -------------------------------------------------------------------------------

 MEMORY| Estimated peak process memory [MiB]                                 484

 -------------------------------------------------------------------------------
 -                                                                             -
 -                           R E F E R E N C E S                               -
 -                                                                             -
 -------------------------------------------------------------------------------
 
 CP2K version 2023.1 (Development Version), the CP2K developers group (2023).
 CP2K is freely available from https://www.cp2k.org/ .

 Kuehne,Thomas D.; Iannuzzi,Marcella; Del Ben,Mauro;
 Rybkin,Vladimir V.; Seewald,Patrick; Stein,Frederick; Laino,Teodoro;
 Khaliullin,Rustam Z.; Schuett,Ole; Schiffmann,Florian; Golze,Dorothea;
 Wilhelm,Jan; Chulkov,Sergey; Bani-Hashemian,Mohammad Hossein;
 Weber,Valery; Borstnik,Urban; Taillefumier,Mathieu;
 Jakobovits,Alice Shoshana; Lazzaro,Alfio; Pabst,Hans; Mueller,Tiziano;
 Schade,Robert; Guidon,Manuel; Andermatt,Samuel; Holmberg,Nico;
 Schenter,Gregory K.; Hehn,Anna; Bussy,Augustin; Belleflamme,Fabian;
 Tabacchi,Gloria; Gloess,Andreas; Lass,Michael; Bethune,Iain;
 Mundy,Christopher J.; Plessl,Christian; Watkins,Matt;
 VandeVondele,Joost; Krack,Matthias; Hutter,Juerg. 
 The Journal of Chemical Physics, 152 (19), (2020). 
 CP2K: An electronic structure and molecular dynamics software package -
 Quickstep: Efficient and accurate electronic structure calculations.
 https://doi.org/10.1063/5.0007045

 Schuett, O; VandeVondele, J. 
 Journal of Chemical Theory and Computation, 14, (2018). 
 Machine Learning Adaptive Basis Sets for Efficient Large Scale
 Density Functional Theory Simulation.
 https://doi.org/10.1021/acs.jctc.8b00378

 Schuett, Ole; Messmer, Peter; Hutter, Juerg; VandeVondele, Joost. 
 Electronic Structure Calculations on Graphics Processing Units, John
 Wiley & Sons, Ltd, 173-190 (2016). 
 GPU-Accelerated Sparse Matrix-Matrix Multiplication for
 Linear Scaling Density Functional Theory.
 https://doi.org/10.1002/9781118670712.ch8

 Heinecke, A; Henry, G; Hutchinson, M; Pabst, H. 
 Proceedings of Intl. Supercomputing Conference, 981-991 (2016). 
 LIBXSMM: Accelerating Small Matrix Multiplications
 by Runtime Code Generation.
 https://doi.org/10.1109/SC.2016.83

 Borstnik, U; VandeVondele, J; Weber, V; Hutter, J. 
 PARALLEL COMPUTING, 40 (5-6), 47-58 (2014). 
 Sparse matrix multiplication: The distributed block-compressed sparse
 row library.
 https://doi.org/10.1016/j.parco.2014.03.012

 Hutter, J; Iannuzzi, M; Schiffmann, F; VandeVondele, J. 
 WIREs Comput Mol Sci., 4 (1), 15-25 (2014). 
 CP2K: atomistic simulations of condensed matter systems.
 https://doi.org/10.1002/wcms.1159

 VandeVondele, J; Borstnik, U; Hutter, J. 
 JOURNAL OF CHEMICAL THEORY AND COMPUTATION, 8 (10), 3565-3573 (2012). 
 Linear Scaling Self-Consistent Field Calculations with Millions of Atoms
 in the Condensed Phase.
 https://doi.org/10.1021/ct200897x

 VandeVondele, J; Hutter, J. 
 JOURNAL OF CHEMICAL PHYSICS, 127 (11), 114105 (2007). 
 Gaussian basis sets for accurate calculations on molecular systems in
 gas and condensed phases.
 https://doi.org/10.1063/1.2770708

 Krack, M. 
 THEORETICAL CHEMISTRY ACCOUNTS, 114 (1-3), 145-152 (2005). 
 Pseudopotentials for H to Kr optimized for gradient-corrected
 exchange-correlation functionals.
 https://doi.org/10.1007/s00214-005-0655-y

 VandeVondele, J; Krack, M; Mohamed, F; Parrinello, M; Chassaing, T;
 Hutter, J. COMPUTER PHYSICS COMMUNICATIONS, 167 (2), 103-128 (2005). 
 QUICKSTEP: Fast and accurate density functional calculations using a
 mixed Gaussian and plane waves approach.
 https://doi.org/10.1016/j.cpc.2004.12.014

 Frigo, M; Johnson, SG. 
 PROCEEDINGS OF THE IEEE, 93 (2), 216-231 (2005). 
 The design and implementation of FFTW3.
 https://doi.org/10.1109/JPROC.2004.840301

 Niklasson, AMN; Tymczak, CJ; Challacombe, M. 
 JOURNAL OF CHEMICAL PHYSICS, 118 (19), 8611-8620 (2003). 
 Trace resetting density matrix purification in O(N)
 self-consistent-field theory.
 https://doi.org/10.1063/1.1559913

 Hartwigsen, C; Goedecker, S; Hutter, J. 
 PHYSICAL REVIEW B, 58 (7), 3641-3662 (1998). 
 Relativistic separable dual-space Gaussian pseudopotentials from H to Rn.
 https://doi.org/10.1103/PhysRevB.58.3641

 Lippert, G; Hutter, J; Parrinello, M. 
 MOLECULAR PHYSICS, 92 (3), 477-487 (1997). 
 A hybrid Gaussian and plane wave density functional scheme.
 https://doi.org/10.1080/002689797170220

 Perdew, JP; Burke, K; Ernzerhof, M. 
 PHYSICAL REVIEW LETTERS, 77 (18), 3865-3868 (1996). 
 Generalized gradient approximation made simple.
 https://doi.org/10.1103/PhysRevLett.77.3865

 Goedecker, S; Teter, M; Hutter, J. 
 PHYSICAL REVIEW B, 54 (3), 1703-1710 (1996). 
 Separable dual-space Gaussian pseudopotentials.
 https://doi.org/10.1103/PhysRevB.54.1703


 -------------------------------------------------------------------------------
 -                                                                             -
 -                                T I M I N G                                  -
 -                                                                             -
 -------------------------------------------------------------------------------
 SUBROUTINE                       CALLS  ASD         SELF TIME        TOTAL TIME
                                MAXIMUM       AVERAGE  MAXIMUM  AVERAGE  MAXIMUM
 CP2K                                 1  1.0    0.024    0.024   88.256   88.256
 qs_energies                          1  2.0    0.000    0.000   87.257   87.257
 ls_scf                               1  3.0    0.000    0.000   87.149   87.149
 ls_scf_main                          7  4.0    0.003    0.003   59.663   59.663
 ls_scf_dm_to_ks                     15  5.0    0.001    0.001   59.412   59.412
 qs_ks_update_qs_env                 16  6.0    0.000    0.000   48.822   48.822
 rebuild_ks_matrix                   16  7.0    0.000    0.000   48.821   48.821
 qs_ks_build_kohn_sham_matrix        16  8.0    0.006    0.006   48.821   48.821
 qs_vxc_create                       16  9.0    0.001    0.001   28.629   28.629
 xc_vxc_pw_create                    16 10.0    0.507    0.507   28.628   28.628
 pw_transfer                        305 11.1    0.075    0.075   24.652   24.652
 fft_wrap_pw1pw2                    273 12.3    0.023    0.023   23.972   23.972
 fft_wrap_pw1pw2_200                177 13.7    2.449    2.449   22.949   22.949
 pao_update                           7  4.0    0.018    0.018   21.950   21.950
 pao_calc_energy                    814  5.0    0.007    0.007   19.808   19.808
 xc_pw_derive                        96 12.0    0.002    0.002   16.484   16.484
 qs_rho_update_rho_low               16  6.0    0.000    0.000   16.018   16.018
 calculate_rho_elec                  16  7.0    0.092    0.092   16.018   16.018
 xc_rho_set_and_dset_create          16 11.0    0.653    0.653   15.972   15.972
 dbcsr_multiply_generic           43568  8.4    1.052    1.052   15.748   15.748
 sum_up_and_integrate                16  9.0    0.430    0.430   15.654   15.654
 integrate_v_rspace                  16 10.0    0.002    0.002   15.225   15.225
 grid_integrate_task_list            16 11.0   11.930   11.930   11.930   11.930
 xc_pw_divergence                    16 11.0    0.001    0.001   11.726   11.726
 grid_collocate_task_list            16  8.0   10.513   10.513   10.513   10.513
 fft3d_s                            274 14.2   10.392   10.392   10.420   10.420
 pao_dm_trs4                        814  6.0    0.006    0.006    9.962    9.962
 ls_scf_init_matrix_S               821  7.0    0.022    0.022    9.795    9.795
 pao_rebuild_S                      814  6.0    0.003    0.003    9.716    9.716
 density_matrix_trs4                829  7.0    0.307    0.307    9.592    9.592
 matrix_sqrt_Newton_Schulz          821  8.0    0.212    0.212    8.979    8.979
 xc_functional_eval                  16 12.0    0.000    0.000    6.620    6.620
 pbe_lda_eval                        16 13.0    6.619    6.619    6.619    6.619
 multiply_cannon                  43568  9.4    2.276    2.276    5.905    5.905
 make_m2s                         87136  9.4    0.332    0.332    5.896    5.896
 pw_scatter_s                       144 14.7    5.638    5.638    5.638    5.638
 pao_guess_initial_P                  1  4.0    0.000    0.000    5.438    5.438
 pao_read_preopt_dm                   1  5.0    0.000    0.000    5.438    5.438
 density_rs2pw                       16  8.0    0.002    0.002    5.414    5.414
 pw_gather_s                        129 13.8    5.344    5.344    5.344    5.344
 make_images                      87136 10.4    1.375    1.375    5.215    5.215
 pw_derive                           96 13.0    3.391    3.391    3.391    3.391
 potential_pw2rs                     16 11.0    0.007    0.007    3.292    3.292
 arnoldi_extremal                  1650  8.5    0.007    0.007    3.052    3.052
 arnoldi_normal_ev                 1650  9.5    0.054    0.054    3.045    3.045
 pw_copy                            192 11.8    2.463    2.463    2.463    2.463
 build_subspace                    1650 10.5    0.097    0.097    2.304    2.304
 dbcsr_matrix_vector_mult         39595 11.5    0.265    0.265    2.140    2.140
 pao_calc_AB                       1070  5.8    0.002    0.002    2.096    2.096
 pao_calc_AB_equi                  1070  6.8    0.068    0.068    2.094    2.094
 pao_calc_grad_lnv_wrt_AB           255  7.0    0.012    0.012    1.867    1.867
 pw_axpy                            144 10.3    1.860    1.860    1.860    1.860
 -------------------------------------------------------------------------------

 The number of warnings for this run is : 0
 
 -------------------------------------------------------------------------------
  **** **** ******  **  PROGRAM ENDED AT                 2023-02-01 10:49:24.054
 ***** ** ***  *** **   PROGRAM RAN ON                                    moritz
 **    ****   ******    PROGRAM RAN BY                                       ole
 ***** **    ** ** **   PROGRAM PROCESS ID                                148729
  **** **  *******  **  PROGRAM STOPPED IN /home/ole/git/pao_ml_equivar/2H2O_MD/
                                           frame_0725
