 DBCSR| CPU Multiplication driver                                           XSMM (U)
 DBCSR| Multrec recursion limit                                              512 (U)
 DBCSR| Multiplication stack size                                           1000 (D)
 DBCSR| Maximum elements for images                                    UNLIMITED (U)
 DBCSR| Multiplicative factor virtual images                                   1 (U)
 DBCSR| Use multiplication densification                                       T (D)
 DBCSR| Multiplication size stacks                                             3 (U)
 DBCSR| Use memory pool for CPU allocation                                     F (U)
 DBCSR| Number of 3D layers                                               SINGLE (U)
 DBCSR| Use MPI memory allocation                                              F (U)
 DBCSR| Use RMA algorithm                                                      F (U)
 DBCSR| Use Communication thread                                               T (U)
 DBCSR| Communication thread load                                             87 (D)
 DBCSR| MPI: My process id                                                     0
 DBCSR| MPI: Number of processes                                              32
 DBCSR| OMP: Current number of threads                                         1
 DBCSR| OMP: Max number of threads                                             1
 DBCSR| Split modifier for TAS multiplication algorithm                  1.0E+00 (U)


  **** **** ******  **  PROGRAM STARTED AT               2024-09-23 17:43:38.774
 ***** ** ***  *** **   PROGRAM STARTED ON                                moritz
 **    ****   ******    PROGRAM STARTED BY                                   ole
 ***** **    ** ** **   PROGRAM PROCESS ID                                158617
  **** **  *******  **  PROGRAM STARTED IN /home/ole/git/pao_ml_equivar/64H2O_MD
                                           /Frame4000

 CP2K| version string:                 CP2K version 2024.3 (Development Version)
 CP2K| source code revision number:                                  git:3f890bb
 CP2K| cp2kflags: omp libint fftw3 libxc libgrpp pexsi elpa parallel scalapack c
 CP2K|            osma quip deepmd xsmm plumed2 spglib libdftd4 sirius libvori l
 CP2K|            libbqb libvdwxc hdf5
 CP2K| is freely available from                            https://www.cp2k.org/
 CP2K| Program compiled at                          Mo 23 Sep 2024 17:17:04 CEST
 CP2K| Program compiled on                                                moritz
 CP2K| Program compiled for                                                local
 CP2K| Data directory path                               /home/ole/git/cp2k/data
 CP2K| Input file name                                             64H2O_ref.inp

 GLOBAL| Force Environment number                                              1
 GLOBAL| Basis set file name                                        BASIS_MOLOPT
 GLOBAL| Potential file name                                      GTH_POTENTIALS
 GLOBAL| MM Potential file name                                     MM_POTENTIAL
 GLOBAL| Coordinate file name                                         coords.xyz
 GLOBAL| Method name                                                        CP2K
 GLOBAL| Project name                                                  64H2O_ref
 GLOBAL| Run type                                                         ENERGY
 GLOBAL| FFT library                                                       FFTW3
 GLOBAL| Diagonalization library                                            ELPA
 GLOBAL| DGEMM library                                                      BLAS
 GLOBAL| Minimum number of eigenvectors for ELPA usage                        16
 GLOBAL| Orthonormality check for eigenvectors                          DISABLED
 GLOBAL| Matrix multiplication library                                     COSMA
 GLOBAL| All-to-all communication in single precision                          F
 GLOBAL| FFTs using library dependent lengths                                  F
 GLOBAL| Grid backend                                                       AUTO
 GLOBAL| Global print level                                                  LOW
 GLOBAL| MPI I/O enabled                                                       T
 GLOBAL| Total number of message passing processes                            32
 GLOBAL| Number of threads for this process                                    1
 GLOBAL| This output is from process                                           0
 GLOBAL| Stack size for threads created by OpenMP (OMP_STACKSIZE)        default
 GLOBAL| CPU model name           AMD Ryzen Threadripper 3970X 32-Core Processor
 GLOBAL| CPUID                                                              1002

 MEMORY| system memory details [Kb]
 MEMORY|                        rank 0           min           max       average
 MEMORY| MemTotal            131752136     131752136     131752136     131752136
 MEMORY| MemFree             118191640     118191640     118191640     118191640
 MEMORY| Buffers                260308        260308        260308        260308
 MEMORY| Cached                7392916       7392916       7392916       7392916
 MEMORY| Slab                   716436        716436        716436        716436
 MEMORY| SReclaimable           279040        279040        279040        279040
 MEMORY| MemLikelyFree       126123904     126123904     126123904     126123904


 GENERATE|  Preliminary Number of Bonds generated:                             0
 GENERATE|  Achieved consistency in connectivity generation.

 *******************************************************************************
 *******************************************************************************
 **                                                                           **
 **     #####                         ##              ##                      **
 **    ##   ##            ##          ##              ##                      **
 **   ##     ##                       ##            ######                    **
 **   ##     ##  ##   ##  ##   #####  ##  ##   ####   ##    #####    #####    **
 **   ##     ##  ##   ##  ##  ##      ## ##   ##      ##   ##   ##  ##   ##   **
 **   ##  ## ##  ##   ##  ##  ##      ####     ###    ##   ######   ######    **
 **    ##  ###   ##   ##  ##  ##      ## ##      ##   ##   ##       ##        **
 **     #######   #####   ##   #####  ##  ##  ####    ##    #####   ##        **
 **           ##                                                    ##        **
 **                                                                           **
 **                                                ... make the atoms dance   **
 **                                                                           **
 **            Copyright (C) by CP2K developers group (2000-2024)             **
 **                      J. Chem. Phys. 152, 194103 (2020)                    **
 **                                                                           **
 *******************************************************************************


 TOTAL NUMBERS AND MAXIMUM NUMBERS

  Total number of            - Atomic kinds:                                   2
                             - Atoms:                                        192
                             - Shell sets:                                   192
                             - Shells:                                       704
                             - Primitive Cartesian functions:               1344
                             - Cartesian basis functions:                   1536
                             - Spherical basis functions:                   1472

  Maximum angular momentum of- Orbital basis functions:                        2
                             - Local part of the GTH pseudopotential:          2
                             - Non-local part of the GTH pseudopotential:      0

 ------------------------------ Linear scaling SCF -----------------------------
 eps_scf:                                                              0.100E-07
 eps_filter:                                                           0.100E-11
 mixing_fraction:                                                      0.450E+00
 max_scf:                                                                     25
 fixed chemical potential (mu)                                                 F
 has unit metric:                                                              F
 Computing inv(S):                                                             T
 Computing sqrt(S):                                                            T
 Computing S preconditioner                                                    F
 S sqrt method:                                                     NEWTONSCHULZ
 S sqrt order:                                                                 3
 Extrapolation order:                                                          1
 S preconditioner type                                                      NONE
 Polarized Atomic Orbitals (PAO)                                               F
 Purification method                                   Trace resetting 4th order
 Cluster type                                                             ATOMIC
 Computing Chebyshev                                                       FALSE
 Using PAO                                                                     F
 -------------------------------------------------------------------------------


     Lanczos converged:  F threshold:   0.100E-02
     Est. extremal eigenvalues:    0.868E+01   0.558E-02
     Est. condition number :    0.156E+04

 Order=           3
     NS sqrt iter    1 1.00000000   0.224E+01       0.064     6223.947
     NS sqrt iter    2 1.00000000   0.117E+01       0.099     8031.967
     NS sqrt iter    3 1.00000000   0.581E+00       0.099     8074.064
     NS sqrt iter    4 1.00000000   0.335E+00       0.099     8056.577
     NS sqrt iter    5 1.00000000   0.225E+00       0.099     8025.699
     NS sqrt iter    6 1.00000000   0.104E+00       0.100     8007.032
     NS sqrt iter    7 1.00000000   0.129E-01       0.099     8078.910
     NS sqrt iter    8 1.00000000   0.779E-04       0.098     8116.134
     NS sqrt iter    9 1.00000000   0.142E-09       0.063     5961.851
     Symmetrizing Results
     Final NS sqrt iter    9 1.00000000   0.696E-11



 Guess for atomic kind: O

 Electronic structure
    Total number of core electrons                                          2.00
    Total number of valence electrons                                       6.00
    Total number of electrons                                               8.00
    Multiplicity                                                   not specified
    S   [  2.00] 2.00
    P      4.00


 *******************************************************************************
                  Iteration          Convergence                     Energy [au]
 *******************************************************************************
                          1        0.708315                     -15.576645311500
                          2        0.608879                     -15.587933561584
                          3        0.102828E-01                 -15.656849565404
                          4        0.113889E-02                 -15.656866888140
                          5        0.434197E-03                 -15.656867072159
                          6        0.263771E-03                 -15.656867091904
                          7        0.478536E-06                 -15.656867103452

 Energy components [Hartree]           Total Energy ::          -15.656867103452
                                        Band Energy ::           -3.000198112285
                                     Kinetic Energy ::           11.759971203220
                                   Potential Energy ::          -27.416838306672
                                      Virial (-V/T) ::            2.331369510426
                                        Core Energy ::          -26.140716385623
                                          XC Energy ::           -3.154051012914
                                     Coulomb Energy ::           13.637900295084
                       Total Pseudopotential Energy ::          -37.935781716540
                       Local Pseudopotential Energy ::          -39.218907440693
                    Nonlocal Pseudopotential Energy ::            1.283125724153
                                        Confinement ::            0.350941276976

 Orbital energies  State     L     Occupation   Energy[a.u.]          Energy[eV]

                       1     0          2.000      -0.864471          -23.523463

                       1     1          4.000      -0.317814           -8.648154


 Total Electron Density at R=0:                                         0.000068

 Guess for atomic kind: H

 Electronic structure
    Total number of core electrons                                          0.00
    Total number of valence electrons                                       1.00
    Total number of electrons                                               1.00
    Multiplicity                                                   not specified
    S      1.00


 *******************************************************************************
                  Iteration          Convergence                     Energy [au]
 *******************************************************************************
                          1        0.437545E-02                  -0.424159432110
                          2        0.531356E-03                  -0.424178438213
                          3        0.259176E-06                  -0.424178722480

 Energy components [Hartree]           Total Energy ::           -0.424178722480
                                        Band Energy ::           -0.199015229016
                                     Kinetic Energy ::            0.464007633961
                                   Potential Energy ::           -0.888186356441
                                      Virial (-V/T) ::            1.914163240935
                                        Core Energy ::           -0.479160803564
                                          XC Energy ::           -0.244352904054
                                     Coulomb Energy ::            0.299334985138
                       Total Pseudopotential Energy ::           -0.962295316385
                       Local Pseudopotential Energy ::           -0.962295316385
                    Nonlocal Pseudopotential Energy ::            0.000000000000
                                        Confinement ::            0.191268788606

 Orbital energies  State     L     Occupation   Energy[a.u.]          Energy[eV]

                       1     0          1.000      -0.199015           -5.415480


 Total Electron Density at R=0:                                         0.242907
 Re-scaling the density matrix to get the right number of electrons
                  # Electrons              Trace(P)               Scaling factor
                          512               512.001                        1.000
 Energy with the initial guess:     -1095.918702448

     Est. extremal eigenvalues     -0.94537     5.22361  converged:  T
     TRS4 it   1 1.00000000   0.566E+02       0.019     5410.994   0.100E-11
     TRS4 it   2 1.00000000   0.538E+02       0.018     5440.026   0.100E-11
     TRS4 it   3 1.00000000   0.338E+02       0.036     5611.097   0.100E-11
     TRS4 it   4 1.00000000   0.178E+02       0.036     5586.787   0.100E-11
     TRS4 it   5 1.00000000   0.107E+02       0.035     5683.046   0.100E-11
     TRS4 it   6 1.00000000   0.489E+01       0.036     5541.735   0.100E-11
     TRS4 it   7 1.00000000   0.146E+01       0.035     5687.538   0.100E-11
     TRS4 it   8 1.00000000   0.223E+00       0.036     5614.294   0.100E-11
     TRS4 it   9 1.00000000   0.972E-02       0.036     5539.310   0.100E-11
     TRS4 it  10 1.00000000   0.280E-04       0.036     5556.584   0.100E-11
     TRS4 it  11 1.00000000   0.863E-10       0.037     5490.941   0.100E-11
     Final TRS4 iteration   11 1.00000000   0.863E-10
     Chemical potential (mu):      -0.10579

 SCF     1     -1097.976682804     -1097.976682804    2.052161

*********************************************************
 Using MIXING_FRACTION=0.450 to mix KS matrix:  iscf=  2
 KS_nw=0.450*KS + 0.550*KS_old
*********************************************************
     Est. extremal eigenvalues     -0.82729     5.31170  converged:  T
     TRS4 it   1 1.00000000   0.557E+02       0.019     5390.016   0.100E-11
     TRS4 it   2 1.00000000   0.540E+02       0.019     5365.345   0.100E-11
     TRS4 it   3 1.00000000   0.350E+02       0.036     5559.620   0.100E-11
     TRS4 it   4 1.00000000   0.183E+02       0.036     5634.198   0.100E-11
     TRS4 it   5 1.00000000   0.118E+02       0.036     5577.599   0.100E-11
     TRS4 it   6 1.00000000   0.615E+01       0.035     5720.360   0.100E-11
     TRS4 it   7 1.00000000   0.245E+01       0.036     5601.291   0.100E-11
     TRS4 it   8 1.00000000   0.676E+00       0.036     5613.161   0.100E-11
     TRS4 it   9 1.00000000   0.101E+00       0.035     5679.935   0.100E-11
     TRS4 it  10 1.00000000   0.563E-02       0.036     5567.814   0.100E-11
     TRS4 it  11 1.00000000   0.170E-04       0.036     5547.438   0.100E-11
     TRS4 it  12 1.00000000   0.269E-09       0.036     5515.497   0.100E-11
     TRS4 it  13 1.00000000   0.338E-13       0.036     5509.887   0.100E-11
     Final TRS4 iteration   13 1.00000000   0.338E-13
     Chemical potential (mu):      -0.01756

 SCF     2     -1102.957669090        -4.980986286    2.129622

*********************************************************
 Using MIXING_FRACTION=0.450 to mix KS matrix:  iscf=  3
 KS_nw=0.450*KS + 0.550*KS_old
*********************************************************
     Est. extremal eigenvalues     -0.83808     5.30475  converged:  F
     TRS4 it   1 1.00000000   0.558E+02       0.019     5315.064   0.100E-11
     TRS4 it   2 1.00000000   0.540E+02       0.018     5453.686   0.100E-11
     TRS4 it   3 1.00000000   0.349E+02       0.036     5505.247   0.100E-11
     TRS4 it   4 1.00000000   0.182E+02       0.036     5616.517   0.100E-11
     TRS4 it   5 1.00000000   0.116E+02       0.036     5601.012   0.100E-11
     TRS4 it   6 1.00000000   0.595E+01       0.036     5597.273   0.100E-11
     TRS4 it   7 1.00000000   0.229E+01       0.036     5579.895   0.100E-11
     TRS4 it   8 1.00000000   0.591E+00       0.036     5548.573   0.100E-11
     TRS4 it   9 1.00000000   0.766E-01       0.036     5558.438   0.100E-11
     TRS4 it  10 1.00000000   0.290E-02       0.036     5571.297   0.100E-11
     TRS4 it  11 1.00000000   0.311E-05       0.036     5552.997   0.100E-11
     TRS4 it  12 1.00000000   0.644E-11       0.036     5561.760   0.100E-11
     Final TRS4 iteration   12 1.00000000   0.644E-11
     Chemical potential (mu):      -0.02557

 SCF     3     -1103.119037324        -0.161368234    2.096039

*********************************************************
 Using MIXING_FRACTION=0.450 to mix KS matrix:  iscf=  4
 KS_nw=0.450*KS + 0.550*KS_old
*********************************************************
     Est. extremal eigenvalues     -0.83286     5.30948  converged:  F
     TRS4 it   1 1.00000000   0.558E+02       0.019     5382.410   0.100E-11
     TRS4 it   2 1.00000000   0.540E+02       0.018     5447.878   0.100E-11
     TRS4 it   3 1.00000000   0.349E+02       0.036     5536.389   0.100E-11
     TRS4 it   4 1.00000000   0.183E+02       0.036     5595.926   0.100E-11
     TRS4 it   5 1.00000000   0.117E+02       0.037     5489.158   0.100E-11
     TRS4 it   6 1.00000000   0.603E+01       0.036     5645.146   0.100E-11
     TRS4 it   7 1.00000000   0.235E+01       0.036     5565.235   0.100E-11
     TRS4 it   8 1.00000000   0.628E+00       0.035     5670.271   0.100E-11
     TRS4 it   9 1.00000000   0.881E-01       0.036     5568.849   0.100E-11
     TRS4 it  10 1.00000000   0.419E-02       0.036     5518.648   0.100E-11
     TRS4 it  11 1.00000000   0.105E-04       0.036     5595.214   0.100E-11
     TRS4 it  12 1.00000000   0.126E-09       0.036     5605.381   0.100E-11
     Final TRS4 iteration   12 1.00000000   0.126E-09
     Chemical potential (mu):      -0.01772

 SCF     4     -1103.127486565        -0.008449241    2.094873

*********************************************************
 Using MIXING_FRACTION=0.450 to mix KS matrix:  iscf=  5
 KS_nw=0.450*KS + 0.550*KS_old
*********************************************************
     Est. extremal eigenvalues     -0.83171     5.31039  converged:  F
     TRS4 it   1 1.00000000   0.558E+02       0.019     5285.743   0.100E-11
     TRS4 it   2 1.00000000   0.540E+02       0.019     5322.543   0.100E-11
     TRS4 it   3 1.00000000   0.349E+02       0.036     5501.293   0.100E-11
     TRS4 it   4 1.00000000   0.183E+02       0.036     5635.931   0.100E-11
     TRS4 it   5 1.00000000   0.117E+02       0.036     5506.185   0.100E-11
     TRS4 it   6 1.00000000   0.603E+01       0.036     5581.068   0.100E-11
     TRS4 it   7 1.00000000   0.235E+01       0.036     5527.723   0.100E-11
     TRS4 it   8 1.00000000   0.626E+00       0.036     5594.431   0.100E-11
     TRS4 it   9 1.00000000   0.876E-01       0.036     5605.895   0.100E-11
     TRS4 it  10 1.00000000   0.411E-02       0.036     5520.561   0.100E-11
     TRS4 it  11 1.00000000   0.968E-05       0.036     5592.697   0.100E-11
     TRS4 it  12 1.00000000   0.107E-09       0.035     5663.458   0.100E-11
     Final TRS4 iteration   12 1.00000000   0.107E-09
     Chemical potential (mu):      -0.01717

 SCF     5     -1103.128189127        -0.000702562    2.095495

*********************************************************
 Using MIXING_FRACTION=0.450 to mix KS matrix:  iscf=  6
 KS_nw=0.450*KS + 0.550*KS_old
*********************************************************
     Est. extremal eigenvalues     -0.83092     5.31105  converged:  F
     TRS4 it   1 1.00000000   0.558E+02       0.018     5454.407   0.100E-11
     TRS4 it   2 1.00000000   0.540E+02       0.019     5388.452   0.100E-11
     TRS4 it   3 1.00000000   0.349E+02       0.036     5546.688   0.100E-11
     TRS4 it   4 1.00000000   0.183E+02       0.036     5589.755   0.100E-11
     TRS4 it   5 1.00000000   0.117E+02       0.036     5528.773   0.100E-11
     TRS4 it   6 1.00000000   0.603E+01       0.036     5607.247   0.100E-11
     TRS4 it   7 1.00000000   0.236E+01       0.036     5576.041   0.100E-11
     TRS4 it   8 1.00000000   0.631E+00       0.036     5637.218   0.100E-11
     TRS4 it   9 1.00000000   0.893E-01       0.036     5620.903   0.100E-11
     TRS4 it  10 1.00000000   0.433E-02       0.035     5694.201   0.100E-11
     TRS4 it  11 1.00000000   0.117E-04       0.036     5646.366   0.100E-11
     TRS4 it  12 1.00000000   0.169E-09       0.035     5685.414   0.100E-11
     Final TRS4 iteration   12 1.00000000   0.169E-09
     Chemical potential (mu):      -0.01586

 SCF     6     -1103.128294347        -0.000105220    2.091082

*********************************************************
 Using MIXING_FRACTION=0.450 to mix KS matrix:  iscf=  7
 KS_nw=0.450*KS + 0.550*KS_old
*********************************************************
     Est. extremal eigenvalues     -0.83048     5.31137  converged:  F
     TRS4 it   1 1.00000000   0.558E+02       0.019     5411.660   0.100E-11
     TRS4 it   2 1.00000000   0.540E+02       0.019     5407.086   0.100E-11
     TRS4 it   3 1.00000000   0.349E+02       0.037     5443.373   0.100E-11
     TRS4 it   4 1.00000000   0.183E+02       0.036     5605.594   0.100E-11
     TRS4 it   5 1.00000000   0.117E+02       0.036     5650.401   0.100E-11
     TRS4 it   6 1.00000000   0.603E+01       0.036     5579.805   0.100E-11
     TRS4 it   7 1.00000000   0.236E+01       0.036     5551.253   0.100E-11
     TRS4 it   8 1.00000000   0.632E+00       0.036     5567.392   0.100E-11
     TRS4 it   9 1.00000000   0.895E-01       0.035     5676.061   0.100E-11
     TRS4 it  10 1.00000000   0.435E-02       0.036     5574.492   0.100E-11
     TRS4 it  11 1.00000000   0.119E-04       0.036     5543.931   0.100E-11
     TRS4 it  12 1.00000000   0.176E-09       0.036     5553.546   0.100E-11
     Final TRS4 iteration   12 1.00000000   0.176E-09
     Chemical potential (mu):      -0.01550

 SCF     7     -1103.128316233        -0.000021886    2.096103

*********************************************************
 Using MIXING_FRACTION=0.450 to mix KS matrix:  iscf=  8
 KS_nw=0.450*KS + 0.550*KS_old
*********************************************************
     Est. extremal eigenvalues     -0.83026     5.31152  converged:  F
     TRS4 it   1 1.00000000   0.558E+02       0.019     5380.888   0.100E-11
     TRS4 it   2 1.00000000   0.540E+02       0.018     5429.045   0.100E-11
     TRS4 it   3 1.00000000   0.349E+02       0.036     5525.875   0.100E-11
     TRS4 it   4 1.00000000   0.183E+02       0.036     5528.381   0.100E-11
     TRS4 it   5 1.00000000   0.117E+02       0.036     5523.767   0.100E-11
     TRS4 it   6 1.00000000   0.604E+01       0.036     5646.335   0.100E-11
     TRS4 it   7 1.00000000   0.236E+01       0.036     5610.134   0.100E-11
     TRS4 it   8 1.00000000   0.633E+00       0.036     5580.298   0.100E-11
     TRS4 it   9 1.00000000   0.898E-01       0.036     5576.787   0.100E-11
     TRS4 it  10 1.00000000   0.439E-02       0.036     5550.504   0.100E-11
     TRS4 it  11 1.00000000   0.123E-04       0.036     5607.476   0.100E-11
     TRS4 it  12 1.00000000   0.191E-09       0.036     5646.356   0.100E-11
     Final TRS4 iteration   12 1.00000000   0.191E-09
     Chemical potential (mu):      -0.01521

 SCF     8     -1103.128321435        -0.000005202    2.094526

*********************************************************
 Using MIXING_FRACTION=0.450 to mix KS matrix:  iscf=  9
 KS_nw=0.450*KS + 0.550*KS_old
*********************************************************
     Est. extremal eigenvalues     -0.83014     5.31161  converged:  F
     TRS4 it   1 1.00000000   0.558E+02       0.019     5238.832   0.100E-11
     TRS4 it   2 1.00000000   0.540E+02       0.018     5451.398   0.100E-11
     TRS4 it   3 1.00000000   0.349E+02       0.036     5515.988   0.100E-11
     TRS4 it   4 1.00000000   0.183E+02       0.036     5642.497   0.100E-11
     TRS4 it   5 1.00000000   0.117E+02       0.036     5630.045   0.100E-11
     TRS4 it   6 1.00000000   0.604E+01       0.036     5609.635   0.100E-11
     TRS4 it   7 1.00000000   0.236E+01       0.036     5525.679   0.100E-11
     TRS4 it   8 1.00000000   0.633E+00       0.036     5629.820   0.100E-11
     TRS4 it   9 1.00000000   0.899E-01       0.036     5609.837   0.100E-11
     TRS4 it  10 1.00000000   0.441E-02       0.036     5627.840   0.100E-11
     TRS4 it  11 1.00000000   0.124E-04       0.036     5637.141   0.100E-11
     TRS4 it  12 1.00000000   0.195E-09       0.036     5631.078   0.100E-11
     Final TRS4 iteration   12 1.00000000   0.195E-09
     Chemical potential (mu):      -0.01509

 SCF     9     -1103.128322748        -0.000001312    2.102975


 SCF run converged in     9 steps.

 Writing restart DM 64H2O_ref_LS_DM_SPIN_1_RESTART.dm with checksum:       0.61503810E+04

 ENERGY| Total FORCE_EVAL ( QS ) energy [a.u.]:            -1103.128322747618768

 -------------------------------------------------------------------------------
 -                                                                             -
 -                                DBCSR STATISTICS                             -
 -                                                                             -
 -------------------------------------------------------------------------------
 COUNTER                                    TOTAL       BLAS       SMM       ACC
 flops     5 x     5 x     5          87542279750       0.0%    100.0%      0.0%     
 flops    13 x     5 x     5         113326413850       0.0%    100.0%      0.0%     
 flops     5 x    13 x     5         113339006300       0.0%    100.0%      0.0%     
 flops     5 x     5 x    13         113915289150       0.0%    100.0%      0.0%     
 flops    13 x     5 x    13         147479942220       0.0%    100.0%      0.0%     
 flops     5 x    13 x    13         147522117860       0.0%    100.0%      0.0%     
 flops    13 x    13 x     5         148834328500       0.0%    100.0%      0.0%     
 flops    13 x    13 x    13         193737888422       0.0%    100.0%      0.0%     
 flops inhomo. stacks                           0       0.0%      0.0%      0.0%
 flops total                         1.065697E+12       0.0%    100.0%      0.0%
 flops max/rank                     34.248482E+09       0.0%    100.0%      0.0%
 matmuls inhomo. stacks                         0       0.0%      0.0%      0.0%
 matmuls total                         1180855986       0.0%    100.0%      0.0%
 number of processed stacks               1676870       0.0%    100.0%      0.0%
 average stack size                                     0.0     704.2       0.0
 marketing flops                     1.747849E+12
 -------------------------------------------------------------------------------
 # multiplications                            274
 max memory usage/rank             620.601344E+06
 # max total images/rank                        2
 # max 3D layers                                1
 # MPI messages exchanged                  113984
 MPI messages size (bytes):
  total size                        47.198933E+09
  min size                           0.000000E+00
  max size                         541.696000E+03
  average size                     414.083844E+03
 MPI breakdown and total messages size (bytes):
             size <=      128                 312                        0
       128 < size <=     8192                  42                   279312
      8192 < size <=    32768                  62                   841968
     32768 < size <=   131072                   0                        0
    131072 < size <=  4194304              113568              47197815360
   4194304 < size <= 16777216                   0                        0
  16777216 < size                               0                        0
 -------------------------------------------------------------------------------

 *** WARNING in dbcsr_mm.F:301 :: Using a non-square number of MPI ranks ***
 *** might lead to poor performance. Used ranks: 32 Suggested: 36 64     ***

 -------------------------------------------------------------------------------
 -                                                                             -
 -                      DBCSR MESSAGE PASSING PERFORMANCE                      -
 -                                                                             -
 -------------------------------------------------------------------------------
 ROUTINE             CALLS      AVE VOLUME [Bytes]
 MP_Bcast                9                     12.
 MP_Allreduce         1966                     34.
 MP_Alltoall           607                  34548.
 MP_ISend             9600                 170545.
 MP_IRecv             9184                 178907.
 -------------------------------------------------------------------------------

 -------------------------------------------------------------------------------
 -                                                                             -
 -                                DBM STATISTICS                               -
 -                                                                             -
 -------------------------------------------------------------------------------
    M  x    N  x    K                                          COUNT     PERCENT
 -------------------------------------------------------------------------------

 -------------------------------------------------------------------------------
 -                                                                             -
 -                                GRID STATISTICS                              -
 -                                                                             -
 -------------------------------------------------------------------------------
 LP    KERNEL             BACKEND                              COUNT     PERCENT
 2     collocate ortho    CPU                                8196500      28.83%
 2     integrate ortho    CPU                                8196500      28.83%
 3     collocate ortho    CPU                                5269050      18.53%
 3     integrate ortho    CPU                                5269050      18.53%
 4     collocate ortho    CPU                                 749040       2.63%
 4     integrate ortho    CPU                                 749040       2.63%
 0     collocate general  CPU                                   6144       0.02%
 -------------------------------------------------------------------------------

 MEMORY| Estimated peak process memory [MiB]                                 593

 -------------------------------------------------------------------------------
 -                                                                             -
 -                         MESSAGE PASSING PERFORMANCE                         -
 -                                                                             -
 -------------------------------------------------------------------------------

 ROUTINE             CALLS      AVE VOLUME [Bytes]
 MP_Group                5
 MP_Bcast             3093                 126415.
 MP_Allreduce         8156                    939.
 MP_Sync                 5
 MP_Alltoall           269                4165266.
 MP_SendRecv           930                  18832.
 MP_ISendRecv          930                  18832.
 MP_Wait              2652
 MP_ISend             1558                 108479.
 MP_IRecv             1558                 108501.
 -------------------------------------------------------------------------------


 -------------------------------------------------------------------------------
 -                                                                             -
 -                           R E F E R E N C E S                               -
 -                                                                             -
 -------------------------------------------------------------------------------
 
 CP2K version 2024.3 (Development Version), the CP2K developers group (2024).
 CP2K is freely available from https://www.cp2k.org/ .
 
 T. D. Kuehne, M. Iannuzzi, M. Del Ben, V. V. Rybkin, P. Seewald, F. Stein, T. 
 Laino, R. Z. Khaliullin, O. Schuett, F. Schiffmann, D. Golze, J. Wilhelm, S. 
 Chulkov, M. H. Bani-Hashemian, V. Weber, U. Borstnik, M. Taillefumier, A. S. 
 Jakobovits, A. Lazzaro, H. Pabst, T. Mueller, R. Schade, M. Guidon, S. 
 Andermatt, N. Holmberg, G. K. Schenter, A. Hehn, A. Bussy, F. Belleflamme, G. 
 Tabacchi, A. Gloess, M. Lass, I. Bethune, C. J. Mundy, C. Plessl, M. Watkins, 
 J. VandeVondele, M. Krack, J. Hutter.
 J. Chem. Phys. 152, 194103 (2020).
 CP2K: An electronic structure and molecular dynamics software package - 
 Quickstep: Efficient and accurate electronic structure calculations.
 https://doi.org/10.1063/5.0007045

 O. Schuett, P. Messmer, J. Hutter, J. VandeVondele.
 Electronic Structure Calculations on Graphics Processing Units, 173-190 (2016).
 GPU-Accelerated Sparse Matrix-Matrix Multiplication for Linear Scaling Density 
 Functional Theory.
 https://doi.org/10.1002/9781118670712.ch8

 A. Heinecke, G. Henry, M. Hutchinson, H. Pabst.
 Proceedings of Intl. Supercomputing Conference, 981-991 (2016).
 LIBXSMM: Accelerating Small Matrix Multiplications by Runtime Code Generation.
 https://doi.org/10.1109/SC.2016.83

 J. Hutter, M. Iannuzzi, F. Schiffmann, J. VandeVondele.
 WIREs Comput Mol Sci. 4, 15-25 (2014).
 CP2K: atomistic simulations of condensed matter systems.
 https://doi.org/10.1002/wcms.1159

 U. Borstnik, J. VandeVondele, V. Weber, J. Hutter.
 Parallel Comput. 40, 47-58 (2014).
 Sparse matrix multiplication: The distributed block-compressed sparse row 
 library.
 https://doi.org/10.1016/j.parco.2014.03.012

 A. Marek, V. Blum, R. Johanni, V. Havu, B. Lang, T. Auckenthaler, A. Heinecke, 
 H. Bungartz, H. Lederer.
 J. Phys. Condens. Matter 26, 213201 (2014).
 The ELPA library: scalable parallel eigenvalue solutions for electronic 
 structure theory and computational science.
 https://doi.org/10.1088/0953-8984/26/21/213201

 J. VandeVondele, U. Borstnik, J. Hutter.
 J. Chem. Theory Comput. 8, 3565-3573 (2012).
 Linear Scaling Self-Consistent Field Calculations with Millions of Atoms in the 
 Condensed Phase.
 https://doi.org/10.1021/ct200897x

 J. VandeVondele, J. Hutter.
 J. Chem. Phys. 127, 114105 (2007).
 Gaussian basis sets for accurate calculations on molecular systems in gas and 
 condensed phases.
 https://doi.org/10.1063/1.2770708

 J. VandeVondele, M. Krack, F. Mohamed, M. Parrinello, T. Chassaing, J. Hutter.
 Comput. Phys. Commun. 167, 103-128 (2005).
 QUICKSTEP: Fast and accurate density functional calculations using a mixed 
 Gaussian and plane waves approach.
 https://doi.org/10.1016/j.cpc.2004.12.014

 M. Krack.
 Theor. Chem. Acc. 114, 145-152 (2005).
 Pseudopotentials for H to Kr optimized for gradient-corrected 
 exchange-correlation functionals.
 https://doi.org/10.1007/s00214-005-0655-y

 M. Frigo, S. G. Johnson.
 Proc. IEEE 93, 216-231 (2005).
 The design and implementation of FFTW3.
 https://doi.org/10.1109/JPROC.2004.840301

 A. M. N. Niklasson, C. J. Tymczak, M. Challacombe.
 J. Chem. Phys. 118, 8611-8620 (2003).
 Trace resetting density matrix purification in O(N) self-consistent-field 
 theory.
 https://doi.org/10.1063/1.1559913

 C. Hartwigsen, S. Goedecker, J. Hutter.
 Phys. Rev. B 58, 3641-3662 (1998).
 Relativistic separable dual-space Gaussian pseudopotentials from H to Rn.
 https://doi.org/10.1103/PhysRevB.58.3641

 G. Lippert, J. Hutter, M. Parrinello.
 Mol. Phys. 92, 477-487 (1997).
 A hybrid Gaussian and plane wave density functional scheme.
 https://doi.org/10.1080/002689797170220

 S. Goedecker, M. Teter, J. Hutter.
 Phys. Rev. B 54, 1703-1710 (1996).
 Separable dual-space Gaussian pseudopotentials.
 https://doi.org/10.1103/PhysRevB.54.1703

 J. P. Perdew, K. Burke, M. Ernzerhof.
 Phys. Rev. Lett. 77, 3865-3868 (1996).
 Generalized gradient approximation made simple.
 https://doi.org/10.1103/PhysRevLett.77.3865


 -------------------------------------------------------------------------------
 -                                                                             -
 -                                T I M I N G                                  -
 -                                                                             -
 -------------------------------------------------------------------------------
 SUBROUTINE                       CALLS  ASD         SELF TIME        TOTAL TIME
                                MAXIMUM       AVERAGE  MAXIMUM  AVERAGE  MAXIMUM
 CP2K                                 1  1.0    0.013    0.016   22.553   22.553
 qs_energies                          1  2.0    0.000    0.000   22.402   22.402
 ls_scf                               1  3.0    0.000    0.000   21.398   21.399
 ls_scf_main                          1  4.0    0.000    0.000   18.849   18.853
 ls_scf_dm_to_ks                      9  5.0    0.000    0.000   13.952   13.955
 qs_ks_update_qs_env                 10  6.1    0.000    0.000    8.691    8.693
 rebuild_ks_matrix                   10  7.1    0.000    0.000    8.684    8.686
 qs_ks_build_kohn_sham_matrix        10  8.1    0.002    0.002    8.684    8.686
 qs_rho_update_rho_low               10  6.1    0.000    0.000    6.818    6.822
 calculate_rho_elec                  10  7.1    0.003    0.004    6.818    6.822
 sum_up_and_integrate                10  9.1    0.000    0.000    6.582    6.584
 integrate_v_rspace                  10 10.1    0.000    0.000    6.572    6.575
 grid_collocate_task_list            10  8.1    6.050    6.134    6.050    6.134
 grid_integrate_task_list            10 11.1    5.786    5.899    5.786    5.899
 dbcsr_multiply_generic             274  6.1    0.014    0.014    5.126    5.132
 density_matrix_trs4                  9  5.0    0.004    0.006    4.891    4.898
 multiply_cannon                    274  7.1    0.020    0.025    4.167    4.269
 multiply_cannon_loop               274  8.1    0.021    0.023    4.085    4.133
 ls_scf_init_scf                      1  4.0    0.000    0.000    2.487    2.487
 multiply_cannon_multrec           2192  9.1    2.317    2.363    2.324    2.370
 mp_waitall_1                     18630 10.5    1.912    2.002    1.912    2.002
 fft_wrap_pw1pw2                    191 11.3    0.003    0.004    1.950    1.984
 fft_wrap_pw1pw2_200                111 12.8    0.114    0.122    1.871    1.922
 qs_vxc_create                       10  9.1    0.000    0.000    1.718    1.749
 xc_vxc_pw_create                    10 10.1    0.014    0.019    1.718    1.749
 multiply_cannon_metrocomm3        2192  9.1    0.006    0.007    1.494    1.592
 ls_scf_initial_guess                 1  5.0    0.000    0.000    1.563    1.565
 ls_scf_qs_atomic_guess               1  6.0    0.000    0.000    1.563    1.565
 fft3d_ps                           191 13.3    0.799    0.901    1.465    1.496
 xc_pw_derive                        60 12.1    0.001    0.001    1.219    1.312
 qs_energies_init_hamiltonians        1  3.0    0.000    0.000    1.003    1.003
 ls_scf_init_matrix_S                 1  5.0    0.000    0.000    0.924    0.925
 matrix_sqrt_Newton_Schulz            1  6.0    0.001    0.001    0.901    0.901
 xc_rho_set_and_dset_create          10 11.1    0.021    0.028    0.867    0.891
 xc_pw_divergence                    10 11.1    0.000    0.000    0.816    0.862
 density_rs2pw                       10  8.1    0.000    0.001    0.731    0.840
 build_core_hamiltonian_matrix        1  4.0    0.000    0.000    0.701    0.813
 make_m2s                           548  7.1    0.005    0.008    0.751    0.764
 make_images                        548  8.1    0.043    0.045    0.739    0.752
 mp_alltoall_z22v                   191 15.3    0.470    0.666    0.470    0.666
 potential_pw2rs                     10 11.1    0.001    0.001    0.663    0.665
 mp_waitany                        1558 12.5    0.512    0.659    0.512    0.659
 build_core_ppl                       1  5.0    0.477    0.592    0.477    0.592
 transfer_rs2pw                      51  9.0    0.001    0.001    0.440    0.584
 arnoldi_extremal                    10  6.1    0.000    0.000    0.559    0.560
 arnoldi_normal_ev                   10  7.1    0.000    0.001    0.558    0.559
 build_subspace                      49  8.1    0.004    0.004    0.494    0.494
 transfer_rs2pw_200                  11  9.8    0.038    0.066    0.324    0.465
 -------------------------------------------------------------------------------

 The number of warnings for this run is : 1
 
 -------------------------------------------------------------------------------
  **** **** ******  **  PROGRAM ENDED AT                 2024-09-23 17:44:02.003
 ***** ** ***  *** **   PROGRAM RAN ON                                    moritz
 **    ****   ******    PROGRAM RAN BY                                       ole
 ***** **    ** ** **   PROGRAM PROCESS ID                                158617
  **** **  *******  **  PROGRAM STOPPED IN /home/ole/git/pao_ml_equivar/64H2O_MD
                                           /Frame4000
