 DBCSR| CPU Multiplication driver                                           XSMM (U)
 DBCSR| Multrec recursion limit                                              512 (U)
 DBCSR| Multiplication stack size                                           1000 (D)
 DBCSR| Maximum elements for images                                    UNLIMITED (U)
 DBCSR| Multiplicative factor virtual images                                   1 (U)
 DBCSR| Use multiplication densification                                       T (D)
 DBCSR| Multiplication size stacks                                             3 (U)
 DBCSR| Use memory pool for CPU allocation                                     F (U)
 DBCSR| Number of 3D layers                                               SINGLE (U)
 DBCSR| Use MPI memory allocation                                              F (U)
 DBCSR| Use RMA algorithm                                                      F (U)
 DBCSR| Use Communication thread                                               T (U)
 DBCSR| Communication thread load                                             87 (D)
 DBCSR| MPI: My process id                                                     0
 DBCSR| MPI: Number of processes                                              32
 DBCSR| OMP: Current number of threads                                         1
 DBCSR| OMP: Max number of threads                                             1
 DBCSR| Split modifier for TAS multiplication algorithm                  1.0E+00 (U)


  **** **** ******  **  PROGRAM STARTED AT               2024-09-24 03:14:56.045
 ***** ** ***  *** **   PROGRAM STARTED ON                                moritz
 **    ****   ******    PROGRAM STARTED BY                                   ole
 ***** **    ** ** **   PROGRAM PROCESS ID                                167605
  **** **  *******  **  PROGRAM STARTED IN /home/ole/git/pao_ml_equivar/64H2O_MD
                                           /Frame4000

 CP2K| version string:                 CP2K version 2024.3 (Development Version)
 CP2K| source code revision number:                                  git:3f890bb
 CP2K| cp2kflags: omp libint fftw3 libxc libgrpp pexsi elpa parallel scalapack c
 CP2K|            osma quip deepmd xsmm plumed2 spglib libdftd4 sirius libvori l
 CP2K|            libbqb libvdwxc hdf5
 CP2K| is freely available from                            https://www.cp2k.org/
 CP2K| Program compiled at                          Mo 23 Sep 2024 17:17:04 CEST
 CP2K| Program compiled on                                                moritz
 CP2K| Program compiled for                                                local
 CP2K| Data directory path                               /home/ole/git/cp2k/data
 CP2K| Input file name                                           64H2O_pao44.inp

 GLOBAL| Force Environment number                                              1
 GLOBAL| Basis set file name                                        BASIS_MOLOPT
 GLOBAL| Potential file name                                      GTH_POTENTIALS
 GLOBAL| MM Potential file name                                     MM_POTENTIAL
 GLOBAL| Coordinate file name                                         coords.xyz
 GLOBAL| Method name                                                        CP2K
 GLOBAL| Project name                                                64H2O_pao44
 GLOBAL| Run type                                                         ENERGY
 GLOBAL| FFT library                                                       FFTW3
 GLOBAL| Diagonalization library                                            ELPA
 GLOBAL| DGEMM library                                                      BLAS
 GLOBAL| Minimum number of eigenvectors for ELPA usage                        16
 GLOBAL| Orthonormality check for eigenvectors                          DISABLED
 GLOBAL| Matrix multiplication library                                     COSMA
 GLOBAL| All-to-all communication in single precision                          F
 GLOBAL| FFTs using library dependent lengths                                  F
 GLOBAL| Grid backend                                                       AUTO
 GLOBAL| Global print level                                                  LOW
 GLOBAL| MPI I/O enabled                                                       T
 GLOBAL| Total number of message passing processes                            32
 GLOBAL| Number of threads for this process                                    1
 GLOBAL| This output is from process                                           0
 GLOBAL| Stack size for threads created by OpenMP (OMP_STACKSIZE)        default
 GLOBAL| CPU model name           AMD Ryzen Threadripper 3970X 32-Core Processor
 GLOBAL| CPUID                                                              1002

 MEMORY| system memory details [Kb]
 MEMORY|                        rank 0           min           max       average
 MEMORY| MemTotal            131752136     131752136     131752136     131752136
 MEMORY| MemFree             114319380     114319128     114319380     114319143
 MEMORY| Buffers               2011356       2011356       2011356       2011356
 MEMORY| Cached                8674832       8674832       8674836       8674835
 MEMORY| Slab                  1642472       1642472       1642472       1642472
 MEMORY| SReclaimable          1144828       1144828       1144828       1144828
 MEMORY| MemLikelyFree       126150396     126150148     126150396     126150163


 GENERATE|  Preliminary Number of Bonds generated:                             0
 GENERATE|  Achieved consistency in connectivity generation.

 *******************************************************************************
 *******************************************************************************
 **                                                                           **
 **     #####                         ##              ##                      **
 **    ##   ##            ##          ##              ##                      **
 **   ##     ##                       ##            ######                    **
 **   ##     ##  ##   ##  ##   #####  ##  ##   ####   ##    #####    #####    **
 **   ##     ##  ##   ##  ##  ##      ## ##   ##      ##   ##   ##  ##   ##   **
 **   ##  ## ##  ##   ##  ##  ##      ####     ###    ##   ######   ######    **
 **    ##  ###   ##   ##  ##  ##      ## ##      ##   ##   ##       ##        **
 **     #######   #####   ##   #####  ##  ##  ####    ##    #####   ##        **
 **           ##                                                    ##        **
 **                                                                           **
 **                                                ... make the atoms dance   **
 **                                                                           **
 **            Copyright (C) by CP2K developers group (2000-2024)             **
 **                      J. Chem. Phys. 152, 194103 (2020)                    **
 **                                                                           **
 *******************************************************************************


 TOTAL NUMBERS AND MAXIMUM NUMBERS

  Total number of            - Atomic kinds:                                   2
                             - Atoms:                                        192
                             - Shell sets:                                   192
                             - Shells:                                       704
                             - Primitive Cartesian functions:               1344
                             - Cartesian basis functions:                   1536
                             - Spherical basis functions:                   1472

  Maximum angular momentum of- Orbital basis functions:                        2
                             - Local part of the GTH pseudopotential:          2
                             - Non-local part of the GTH pseudopotential:      0

 ------------------------------ Linear scaling SCF -----------------------------
 eps_scf:                                                              0.100E-07
 eps_filter:                                                           0.100E-11
 mixing_fraction:                                                      0.450E+00
 max_scf:                                                                     25
 fixed chemical potential (mu)                                                 F
 has unit metric:                                                              F
 Computing inv(S):                                                             T
 Computing sqrt(S):                                                            T
 Computing S preconditioner                                                    F
 S sqrt method:                                                     NEWTONSCHULZ
 S sqrt order:                                                                 3
 Extrapolation order:                                                          1
 S preconditioner type                                                      NONE
 Polarized Atomic Orbitals (PAO)                                               T
 Purification method                                   Trace resetting 4th order
 Cluster type                                                             ATOMIC
 Computing Chebyshev                                                       FALSE
 Using PAO                                                                     T
 -------------------------------------------------------------------------------

 
 PAO|                                  EPS_PAO                           0.5E-06
 PAO|                                  MIXING                            0.5E+00
 PAO|                                  MAX_PAO                              1500
 PAO|                                  MAX_CYCLES                           1000
 PAO|                                  PARAMETERIZATION              EQUIVARIANT
 PAO|                                  PRECONDITION                            F
 PAO|                                  REGULARIZATION                    0.0E+00
 PAO|                                  EPS_PGF                           0.1E-09
 PAO|                                  PENALTY_DISTANCE                  0.1E+00
 PAO|                                  PENALTY_STRENGTH                  0.5E-02
 PAO|                                  LINPOT_PRECONDITION_DELTA         0.0E+00
 PAO|                                  LINPOT_INITGUESS_DELT             0.0E+00
 PAO|                                  LINPOT_REGULARIZATION_DELTA       0.0E+00
 PAO|                                  LINPOT_REGULARIZATION_STRENGTH    0.0E+00
 PAO|                                  OPTIMIZER                              CG
 PAO|                                  CG_INIT_STEPS                           2
 PAO|                                  CG_RESET_LIMIT                    0.1E+00
 PAO|                                  CHECK_UNITARY_TOL                -0.1E+01
 PAO|                                  CHECK_GRADIENT_TOL               -0.1E+01
 PAO|                                  NUM_GRADIENT_ORDER                      2
 PAO|                                  NUM_GRADIENT_EPS                  0.1E-07
 PAO|                                  PRINT%RESTART%WRITE_CYCLES            100
 PAO|                                  RESTART_FILE 
 PAO|                                  PREOPT_DM_FILE 64H2O_ref_LS_DM_SPIN_1_RESTART.dm
 PAO|                                  MACHINE_LEARNING%METHOD       GAUSSIAN_PR
 PAO|                                  MACHINE_LEARNING%PRIOR               ZERO
 PAO|                                  MACHINE_LEARNING%DESCRIPTOR     POTENTIAL
 PAO|                                  MACHINE_LEARNING%TOLERANCE        0.1E-01
 PAO|                                  MACHINE_LEARNING%GP_NOISE_VAR     0.1E+00
 PAO|                                  MACHINE_LEARNING%GP_SCALE         0.5E-01
 

 Calculating atomic Fock matrix for atomic kind: O

 Electronic structure
    Total number of core electrons                                          2.00
    Total number of valence electrons                                       6.00
    Total number of electrons                                               8.00
    Multiplicity                                                   not specified
    S   [  2.00] 2.00
    P      4.00


 *******************************************************************************
                  Iteration          Convergence                     Energy [au]
 *******************************************************************************
                          1        0.708315                     -15.576645311500
                          2        0.608879                     -15.587933561584
                          3        0.102828E-01                 -15.656849565404
                          4        0.113889E-02                 -15.656866888140
                          5        0.434197E-03                 -15.656867072159
                          6        0.263771E-03                 -15.656867091904
                          7        0.478536E-06                 -15.656867103452

 Energy components [Hartree]           Total Energy ::          -15.656867103452
                                        Band Energy ::           -3.000198112285
                                     Kinetic Energy ::           11.759971203220
                                   Potential Energy ::          -27.416838306672
                                      Virial (-V/T) ::            2.331369510426
                                        Core Energy ::          -26.140716385623
                                          XC Energy ::           -3.154051012914
                                     Coulomb Energy ::           13.637900295084
                       Total Pseudopotential Energy ::          -37.935781716540
                       Local Pseudopotential Energy ::          -39.218907440693
                    Nonlocal Pseudopotential Energy ::            1.283125724153
                                        Confinement ::            0.350941276976

 Orbital energies  State     L     Occupation   Energy[a.u.]          Energy[eV]

                       1     0          2.000      -0.864471          -23.523463

                       1     1          4.000      -0.317814           -8.648154


 Total Electron Density at R=0:                                         0.000068

 Calculating atomic Fock matrix for atomic kind: H

 Electronic structure
    Total number of core electrons                                          0.00
    Total number of valence electrons                                       1.00
    Total number of electrons                                               1.00
    Multiplicity                                                   not specified
    S      1.00


 *******************************************************************************
                  Iteration          Convergence                     Energy [au]
 *******************************************************************************
                          1        0.437545E-02                  -0.424159432110
                          2        0.531356E-03                  -0.424178438213
                          3        0.259176E-06                  -0.424178722480

 Energy components [Hartree]           Total Energy ::           -0.424178722480
                                        Band Energy ::           -0.199015229016
                                     Kinetic Energy ::            0.464007633961
                                   Potential Energy ::           -0.888186356441
                                      Virial (-V/T) ::            1.914163240935
                                        Core Energy ::           -0.479160803564
                                          XC Energy ::           -0.244352904054
                                     Coulomb Energy ::            0.299334985138
                       Total Pseudopotential Energy ::           -0.962295316385
                       Local Pseudopotential Energy ::           -0.962295316385
                    Nonlocal Pseudopotential Energy ::            0.000000000000
                                        Confinement ::            0.191268788606

 Orbital energies  State     L     Occupation   Energy[a.u.]          Energy[eV]

                       1     0          1.000      -0.199015           -5.415480


 Total Electron Density at R=0:                                         0.242907
 PAO| Made initial guess for matrix_X with norm:   27.712812921102035     

     Lanczos converged:  F threshold:   0.100E-02
     Est. extremal eigenvalues:    0.622E+01   0.946E-01
     Est. condition number :    0.658E+02

 Order=           3
     NS sqrt iter    1 1.00000000   0.152E+01       0.021     2658.962
     NS sqrt iter    2 1.00000000   0.825E+00       0.034     3325.404
     NS sqrt iter    3 1.00000000   0.330E+00       0.034     3329.935
     NS sqrt iter    4 1.00000000   0.907E-01       0.034     3340.088
     NS sqrt iter    5 1.00000000   0.316E-02       0.034     3330.337
     NS sqrt iter    6 1.00000000   0.256E-06       0.029     2895.856
     Symmetrizing Results
     Final NS sqrt iter    6 1.00000000   0.125E-12

 PAO| Read restart DM 64H2O_ref_LS_DM_SPIN_1_RESTART.dm with checksum:    6150.3809850585985     
 PAO| Quickstep energy from restart density:  -1103.1283227476188     
 PAO| ======================= Iteration:         1 =============================

     Lanczos converged:  F threshold:   0.100E-02
     Est. extremal eigenvalues:    0.622E+01   0.946E-01
     Est. condition number :    0.658E+02

 Order=           3
     NS sqrt iter    1 1.00000000   0.152E+01       0.021     2685.602
     NS sqrt iter    2 1.00000000   0.825E+00       0.034     3342.372
     NS sqrt iter    3 1.00000000   0.330E+00       0.034     3347.691
     NS sqrt iter    4 1.00000000   0.907E-01       0.034     3354.577
     NS sqrt iter    5 1.00000000   0.316E-02       0.034     3337.843
     NS sqrt iter    6 1.00000000   0.256E-06       0.029     2896.499
     Symmetrizing Results
     Final NS sqrt iter    6 1.00000000   0.125E-12

     Est. extremal eigenvalues     -0.81322     2.60006  converged:  F
     TRS4 it   1 1.00000000   0.272E+02       0.007     2123.463   0.100E-11
     TRS4 it   2 1.00000000   0.235E+02       0.013     2165.904   0.100E-11
     TRS4 it   3 1.00000000   0.160E+02       0.013     2160.176   0.100E-11
     TRS4 it   4 1.00000000   0.996E+01       0.013     2155.161   0.100E-11
     TRS4 it   5 1.00000000   0.480E+01       0.013     2198.517   0.100E-11
     TRS4 it   6 1.00000000   0.160E+01       0.013     2172.201   0.100E-11
     TRS4 it   7 1.00000000   0.318E+00       0.013     2158.674   0.100E-11
     TRS4 it   8 1.00000000   0.230E-01       0.013     2160.739   0.100E-11
     TRS4 it   9 1.00000000   0.224E-03       0.013     2170.175   0.100E-11
     TRS4 it  10 1.00000000   0.356E-07       0.013     2145.393   0.100E-11
     TRS4 it  11 1.00000000   0.213E-13       0.013     2188.327   0.100E-11
     Final TRS4 iteration   11 1.00000000   0.213E-13
     Chemical potential (mu):       0.01191
 
 PAO| energy:  -185.78230453698481      penalty:   1.2985390057036497E-031
 PAO|CG| warming up with steepest descent
 PAO|CG| beta:    0.0000000000000000     
 PAO| norm of gradient:   3.9494011277910288     
 PAO|LS| adapt:  T F F
 PAO|LS| adapt: scan_steps:    0.0000000000000000        0.0000000000000000        0.0000000000000000     
 PAO|LS| adapt: energies:   -185.78230453698481        0.0000000000000000        0.0000000000000000     
 PAO| ======================= Iteration:         2 =============================

     Lanczos converged:  F threshold:   0.100E-02
     Est. extremal eigenvalues:    0.601E+01   0.101E+00
     Est. condition number :    0.595E+02

 Order=           3
     NS sqrt iter    1 1.00000000   0.148E+01       0.021     2688.541
     NS sqrt iter    2 1.00000000   0.796E+00       0.034     3374.665
     NS sqrt iter    3 1.00000000   0.309E+00       0.034     3334.428
     NS sqrt iter    4 1.00000000   0.763E-01       0.034     3342.458
     NS sqrt iter    5 1.00000000   0.197E-02       0.034     3330.039
     NS sqrt iter    6 1.00000000   0.737E-07       0.029     2900.098
     Symmetrizing Results
     Final NS sqrt iter    6 1.00000000   0.161E-13

     Est. extremal eigenvalues     -0.81645     2.59412  converged:  F
     TRS4 it   1 1.00000000   0.274E+02       0.007     2129.721   0.100E-11
     TRS4 it   2 1.00000000   0.235E+02       0.013     2214.087   0.100E-11
     TRS4 it   3 1.00000000   0.158E+02       0.013     2172.577   0.100E-11
     TRS4 it   4 1.00000000   0.976E+01       0.013     2167.205   0.100E-11
     TRS4 it   5 1.00000000   0.459E+01       0.013     2191.844   0.100E-11
     TRS4 it   6 1.00000000   0.147E+01       0.013     2177.949   0.100E-11
     TRS4 it   7 1.00000000   0.272E+00       0.013     2115.019   0.100E-11
     TRS4 it   8 1.00000000   0.165E-01       0.013     2216.173   0.100E-11
     TRS4 it   9 1.00000000   0.107E-03       0.013     2165.734   0.100E-11
     TRS4 it  10 1.00000000   0.907E-08       0.013     2190.835   0.100E-11
     TRS4 it  11 1.00000000   0.266E-13       0.013     2189.539   0.100E-11
     Final TRS4 iteration   11 1.00000000   0.266E-13
     Chemical potential (mu):       0.01785
 
 PAO| energy:  -187.21498565717673      penalty:   4.6232356620610603E-007
 PAO|LS| adapt:  T T F
 PAO|LS| adapt: scan_steps:    0.0000000000000000       0.10000000000000001        0.0000000000000000     
 PAO|LS| adapt: energies:   -185.78230453698481       -187.21498565717673        0.0000000000000000     
 PAO| ======================= Iteration:         3 =============================

     Lanczos converged:  F threshold:   0.100E-02
     Est. extremal eigenvalues:    0.579E+01   0.106E+00
     Est. condition number :    0.544E+02

 Order=           3
     NS sqrt iter    1 1.00000000   0.143E+01       0.021     2684.441
     NS sqrt iter    2 1.00000000   0.767E+00       0.034     3347.615
     NS sqrt iter    3 1.00000000   0.289E+00       0.034     3330.615
     NS sqrt iter    4 1.00000000   0.640E-01       0.034     3346.851
     NS sqrt iter    5 1.00000000   0.124E-02       0.034     3331.519
     NS sqrt iter    6 1.00000000   0.224E-07       0.029     2912.926
     Symmetrizing Results
     Final NS sqrt iter    6 1.00000000   0.355E-14

     Est. extremal eigenvalues     -0.81963     2.59050  converged:  F
     TRS4 it   1 1.00000000   0.276E+02       0.007     2103.366   0.100E-11
     TRS4 it   2 1.00000000   0.234E+02       0.013     2190.979   0.100E-11
     TRS4 it   3 1.00000000   0.157E+02       0.013     2184.917   0.100E-11
     TRS4 it   4 1.00000000   0.958E+01       0.013     2185.438   0.100E-11
     TRS4 it   5 1.00000000   0.439E+01       0.013     2185.915   0.100E-11
     TRS4 it   6 1.00000000   0.135E+01       0.013     2183.311   0.100E-11
     TRS4 it   7 1.00000000   0.231E+00       0.013     2180.298   0.100E-11
     TRS4 it   8 1.00000000   0.115E-01       0.013     2200.831   0.100E-11
     TRS4 it   9 1.00000000   0.471E-04       0.013     2181.247   0.100E-11
     TRS4 it  10 1.00000000   0.201E-08       0.013     2187.624   0.100E-11
     TRS4 it  11 1.00000000   0.178E-14       0.013     2190.641   0.100E-11
     Final TRS4 iteration   11 1.00000000   0.178E-14
     Chemical potential (mu):       0.02472
 
 PAO| energy:  -188.37764095538535      penalty:   7.3971770592947115E-006
 PAO|LS| adapt:  T T F
 PAO|LS| adapt: scan_steps:    0.0000000000000000       0.20000000000000001        0.0000000000000000     
 PAO|LS| adapt: energies:   -185.78230453698481       -188.37764095538535        0.0000000000000000     
 PAO| ======================= Iteration:         4 =============================

     Lanczos converged:  F threshold:   0.100E-02
     Est. extremal eigenvalues:    0.538E+01   0.116E+00
     Est. condition number :    0.465E+02

 Order=           3
     NS sqrt iter    1 1.00000000   0.135E+01       0.021     2686.254
     NS sqrt iter    2 1.00000000   0.711E+00       0.034     3333.063
     NS sqrt iter    3 1.00000000   0.252E+00       0.034     3361.552
     NS sqrt iter    4 1.00000000   0.450E-01       0.034     3352.783
     NS sqrt iter    5 1.00000000   0.513E-03       0.034     3356.243
     NS sqrt iter    6 1.00000000   0.214E-08       0.029     2830.333
     Symmetrizing Results
     Final NS sqrt iter    6 1.00000000   0.158E-13

     Est. extremal eigenvalues     -0.82513     2.59293  converged:  F
     TRS4 it   1 1.00000000   0.280E+02       0.007     2115.046   0.100E-11
     TRS4 it   2 1.00000000   0.235E+02       0.013     2195.112   0.100E-11
     TRS4 it   3 1.00000000   0.156E+02       0.013     2191.513   0.100E-11
     TRS4 it   4 1.00000000   0.926E+01       0.013     2192.239   0.100E-11
     TRS4 it   5 1.00000000   0.405E+01       0.013     2185.276   0.100E-11
     TRS4 it   6 1.00000000   0.114E+01       0.013     2185.913   0.100E-11
     TRS4 it   7 1.00000000   0.165E+00       0.013     2177.861   0.100E-11
     TRS4 it   8 1.00000000   0.542E-02       0.013     2170.650   0.100E-11
     TRS4 it   9 1.00000000   0.865E-05       0.013     2163.776   0.100E-11
     TRS4 it  10 1.00000000   0.753E-10       0.013     2190.249   0.100E-11
     Final TRS4 iteration   10 1.00000000   0.753E-10
     Chemical potential (mu):       0.04276
 
 PAO| energy:  -189.85287476475145      penalty:   1.1835483294869161E-004
 PAO|LS| Need extra step
 PAO|LS| adapt:  T T F
 PAO|LS| adapt: scan_steps:    0.0000000000000000       0.40000000000000002        0.0000000000000000     
 PAO|LS| adapt: energies:   -185.78230453698481       -189.85287476475145        0.0000000000000000     
 PAO| ======================= Iteration:         5 =============================

     Lanczos converged:  T threshold:   0.100E-02
     Est. extremal eigenvalues:    0.472E+01   0.131E+00
     Est. condition number :    0.359E+02

 Order=           3
     NS sqrt iter    1 1.00000000   0.123E+01       0.021     2685.586
     NS sqrt iter    2 1.00000000   0.620E+00       0.034     3345.138
     NS sqrt iter    3 1.00000000   0.194E+00       0.034     3332.610
     NS sqrt iter    4 1.00000000   0.235E-01       0.034     3367.255
     NS sqrt iter    5 1.00000000   0.983E-04       0.034     3354.641
     NS sqrt iter    6 1.00000000   0.218E-10       0.018     2188.144
     Symmetrizing Results
     Final NS sqrt iter    6 1.00000000   0.209E-11

     Est. extremal eigenvalues     -0.82880     2.59083  converged:  T
     TRS4 it   1 1.00000000   0.286E+02       0.007     2096.959   0.100E-11
     TRS4 it   2 1.00000000   0.234E+02       0.013     2195.429   0.100E-11
     TRS4 it   3 1.00000000   0.153E+02       0.013     2166.181   0.100E-11
     TRS4 it   4 1.00000000   0.877E+01       0.013     2174.717   0.100E-11
     TRS4 it   5 1.00000000   0.353E+01       0.013     2162.264   0.100E-11
     TRS4 it   6 1.00000000   0.846E+00       0.013     2202.505   0.100E-11
     TRS4 it   7 1.00000000   0.903E-01       0.013     2213.971   0.100E-11
     TRS4 it   8 1.00000000   0.148E-02       0.013     2179.520   0.100E-11
     TRS4 it   9 1.00000000   0.644E-06       0.013     2170.441   0.100E-11
     TRS4 it  10 1.00000000   0.480E-12       0.013     2186.459   0.100E-11
     Final TRS4 iteration   10 1.00000000   0.480E-12
     Chemical potential (mu):       0.06569
 
 PAO| energy:  -189.53556634419945      penalty:   1.8936773271788772E-003
 PAO|LS| Need extra step
 PAO|LS| adapt:  T T T
 PAO|LS| adapt: scan_steps:    0.0000000000000000       0.40000000000000002       0.80000000000000004     
 PAO|LS| adapt: energies:   -185.78230453698481       -189.85287476475145       -189.53556634419945     
 PAO|LS| adapt: suggested step_size:   0.57107409333905967     
 PAO|LS| adapt: predicted energy  -190.25417842770980     
 PAO| ======================= Iteration:         6 =============================

     Lanczos converged:  T threshold:   0.100E-02
     Est. extremal eigenvalues:    0.507E+01   0.123E+00
     Est. condition number :    0.412E+02

 Order=           3
     NS sqrt iter    1 1.00000000   0.129E+01       0.022     2627.914
     NS sqrt iter    2 1.00000000   0.668E+00       0.034     3339.830
     NS sqrt iter    3 1.00000000   0.224E+00       0.034     3356.673
     NS sqrt iter    4 1.00000000   0.336E-01       0.034     3344.212
     NS sqrt iter    5 1.00000000   0.247E-03       0.034     3339.780
     NS sqrt iter    6 1.00000000   0.289E-09       0.028     2625.256
     Symmetrizing Results
     Final NS sqrt iter    6 1.00000000   0.569E-12

     Est. extremal eigenvalues     -0.82800     2.59399  converged:  T
     TRS4 it   1 1.00000000   0.283E+02       0.007     2088.716   0.100E-11
     TRS4 it   2 1.00000000   0.235E+02       0.013     2176.808   0.100E-11
     TRS4 it   3 1.00000000   0.155E+02       0.013     2173.533   0.100E-11
     TRS4 it   4 1.00000000   0.903E+01       0.013     2174.426   0.100E-11
     TRS4 it   5 1.00000000   0.380E+01       0.013     2169.478   0.100E-11
     TRS4 it   6 1.00000000   0.992E+00       0.013     2178.252   0.100E-11
     TRS4 it   7 1.00000000   0.125E+00       0.013     2190.523   0.100E-11
     TRS4 it   8 1.00000000   0.293E-02       0.013     2199.693   0.100E-11
     TRS4 it   9 1.00000000   0.242E-05       0.013     2181.197   0.100E-11
     TRS4 it  10 1.00000000   0.614E-11       0.013     2200.744   0.100E-11
     Final TRS4 iteration   10 1.00000000   0.614E-11
     Chemical potential (mu):       0.05398
 
 PAO| energy:  -190.22665370054898      penalty:   4.9171772903092810E-004
 PAO|CG| warming up with steepest descent
 PAO|CG| beta:    0.0000000000000000     
 PAO| norm of gradient:   2.0373794850831914     
 PAO| energy improvement:  -4.4443491635641692     
 PAO| step      6                 -190.226653701  0.398E-02  0.571E+00     2.583
 PAO|LS| adapt:  T F F
 PAO|LS| adapt: scan_steps:    0.0000000000000000        0.0000000000000000        0.0000000000000000     
 PAO|LS| adapt: energies:   -190.22665370054898        0.0000000000000000        0.0000000000000000     
 PAO| ======================= Iteration:         7 =============================

     Lanczos converged:  T threshold:   0.100E-02
     Est. extremal eigenvalues:    0.492E+01   0.131E+00
     Est. condition number :    0.377E+02

 Order=           3
     NS sqrt iter    1 1.00000000   0.126E+01       0.021     2662.397
     NS sqrt iter    2 1.00000000   0.644E+00       0.034     3333.639
     NS sqrt iter    3 1.00000000   0.208E+00       0.034     3324.619
     NS sqrt iter    4 1.00000000   0.274E-01       0.034     3307.002
     NS sqrt iter    5 1.00000000   0.142E-03       0.034     3327.195
     NS sqrt iter    6 1.00000000   0.577E-10       0.023     2351.499
     Symmetrizing Results
     Final NS sqrt iter    6 1.00000000   0.219E-11

     Est. extremal eigenvalues     -0.82866     2.58093  converged:  T
     TRS4 it   1 1.00000000   0.284E+02       0.007     2107.837   0.100E-11
     TRS4 it   2 1.00000000   0.235E+02       0.013     2178.943   0.100E-11
     TRS4 it   3 1.00000000   0.155E+02       0.013     2187.777   0.100E-11
     TRS4 it   4 1.00000000   0.915E+01       0.013     2178.267   0.100E-11
     TRS4 it   5 1.00000000   0.388E+01       0.013     2207.271   0.100E-11
     TRS4 it   6 1.00000000   0.102E+01       0.013     2197.039   0.100E-11
     TRS4 it   7 1.00000000   0.126E+00       0.013     2177.914   0.100E-11
     TRS4 it   8 1.00000000   0.293E-02       0.013     2197.884   0.100E-11
     TRS4 it   9 1.00000000   0.254E-05       0.013     2177.544   0.100E-11
     TRS4 it  10 1.00000000   0.753E-11       0.013     2190.183   0.100E-11
     Final TRS4 iteration   10 1.00000000   0.753E-11
     Chemical potential (mu):       0.05638
 
 PAO| energy:  -189.31649722005841      penalty:   6.8226024989756539E-004
 PAO|LS| adapt:  T F T
 PAO|LS| adapt: scan_steps:    0.0000000000000000        0.0000000000000000       0.57107409333905967     
 PAO|LS| adapt: energies:   -190.22665370054898        0.0000000000000000       -189.31649722005841     
 PAO| ======================= Iteration:         8 =============================

     Lanczos converged:  T threshold:   0.100E-02
     Est. extremal eigenvalues:    0.500E+01   0.127E+00
     Est. condition number :    0.394E+02

 Order=           3
     NS sqrt iter    1 1.00000000   0.128E+01       0.021     2694.092
     NS sqrt iter    2 1.00000000   0.656E+00       0.034     3350.859
     NS sqrt iter    3 1.00000000   0.216E+00       0.034     3344.209
     NS sqrt iter    4 1.00000000   0.304E-01       0.034     3342.969
     NS sqrt iter    5 1.00000000   0.188E-03       0.034     3328.657
     NS sqrt iter    6 1.00000000   0.130E-09       0.026     2489.571
     Symmetrizing Results
     Final NS sqrt iter    6 1.00000000   0.140E-11

     Est. extremal eigenvalues     -0.82908     2.58733  converged:  T
     TRS4 it   1 1.00000000   0.284E+02       0.007     2112.233   0.100E-11
     TRS4 it   2 1.00000000   0.235E+02       0.013     2188.076   0.100E-11
     TRS4 it   3 1.00000000   0.155E+02       0.013     2184.398   0.100E-11
     TRS4 it   4 1.00000000   0.905E+01       0.013     2182.131   0.100E-11
     TRS4 it   5 1.00000000   0.381E+01       0.013     2175.049   0.100E-11
     TRS4 it   6 1.00000000   0.995E+00       0.013     2177.711   0.100E-11
     TRS4 it   7 1.00000000   0.124E+00       0.013     2191.679   0.100E-11
     TRS4 it   8 1.00000000   0.291E-02       0.013     2171.553   0.100E-11
     TRS4 it   9 1.00000000   0.244E-05       0.013     2178.963   0.100E-11
     TRS4 it  10 1.00000000   0.640E-11       0.013     2164.726   0.100E-11
     Final TRS4 iteration   10 1.00000000   0.640E-11
     Chemical potential (mu):       0.05409
 
 PAO| energy:  -190.57807926688062      penalty:   5.1965520449880195E-004
 PAO|LS| adapt:  T T T
 PAO|LS| adapt: scan_steps:    0.0000000000000000       0.28553704666952984       0.57107409333905967     
 PAO|LS| adapt: energies:   -190.22665370054898       -190.57807926688062       -189.31649722005841     
 PAO|LS| adapt: suggested step_size:   0.20497840846872473     
 PAO|LS| adapt: predicted energy  -190.64227493559781     
 PAO| ======================= Iteration:         9 =============================

     Lanczos converged:  T threshold:   0.100E-02
     Est. extremal eigenvalues:    0.502E+01   0.126E+00
     Est. condition number :    0.399E+02

 Order=           3
     NS sqrt iter    1 1.00000000   0.128E+01       0.021     2684.308
     NS sqrt iter    2 1.00000000   0.659E+00       0.034     3334.826
     NS sqrt iter    3 1.00000000   0.218E+00       0.034     3362.981
     NS sqrt iter    4 1.00000000   0.313E-01       0.034     3348.378
     NS sqrt iter    5 1.00000000   0.203E-03       0.034     3356.195
     NS sqrt iter    6 1.00000000   0.163E-09       0.027     2548.520
     Symmetrizing Results
     Final NS sqrt iter    6 1.00000000   0.119E-11

     Est. extremal eigenvalues     -0.82893     2.58920  converged:  T
     TRS4 it   1 1.00000000   0.283E+02       0.007     2098.224   0.100E-11
     TRS4 it   2 1.00000000   0.235E+02       0.013     2207.076   0.100E-11
     TRS4 it   3 1.00000000   0.155E+02       0.013     2185.829   0.100E-11
     TRS4 it   4 1.00000000   0.904E+01       0.013     2188.453   0.100E-11
     TRS4 it   5 1.00000000   0.380E+01       0.013     2176.081   0.100E-11
     TRS4 it   6 1.00000000   0.992E+00       0.013     2175.003   0.100E-11
     TRS4 it   7 1.00000000   0.124E+00       0.013     2184.890   0.100E-11
     TRS4 it   8 1.00000000   0.291E-02       0.013     2154.174   0.100E-11
     TRS4 it   9 1.00000000   0.243E-05       0.013     2189.516   0.100E-11
     TRS4 it  10 1.00000000   0.628E-11       0.013     2189.322   0.100E-11
     Final TRS4 iteration   10 1.00000000   0.628E-11
     Chemical potential (mu):       0.05384
 
 PAO| energy:  -190.64669925221310      penalty:   5.0265171402698327E-004
 PAO|CG| trace_G_new   0.70023020459261698     
 PAO|CG| trace_G_prev    4.1509151662378496     
 PAO|CG| trace_G_mix   -4.1305749439255628E-002
 PAO|CG| trace_D    4.1509151662378496     
 PAO|CG| trace_D_Gnew   4.1305749439255628E-002
 PAO|CG| beta:   0.17864396749499412     
 PAO| norm of gradient:  0.83679758878274557     
 PAO| energy improvement: -0.42004555166411706     
 PAO| step      9                 -190.646699252  0.163E-02  0.205E+00     1.576
 PAO|LS| adapt:  T F F
 PAO|LS| adapt: scan_steps:    0.0000000000000000        0.0000000000000000        0.0000000000000000     
 PAO|LS| adapt: energies:   -190.64669925221310        0.0000000000000000        0.0000000000000000     
 PAO| ======================= Iteration:        10 =============================

     Lanczos converged:  T threshold:   0.100E-02
     Est. extremal eigenvalues:    0.497E+01   0.129E+00
     Est. condition number :    0.385E+02

 Order=           3
     NS sqrt iter    1 1.00000000   0.127E+01       0.021     2682.499
     NS sqrt iter    2 1.00000000   0.651E+00       0.034     3327.811
     NS sqrt iter    3 1.00000000   0.213E+00       0.034     3331.173
     NS sqrt iter    4 1.00000000   0.292E-01       0.034     3338.123
     NS sqrt iter    5 1.00000000   0.165E-03       0.034     3362.194
     NS sqrt iter    6 1.00000000   0.864E-10       0.025     2414.076
     Symmetrizing Results
     Final NS sqrt iter    6 1.00000000   0.190E-11

     Est. extremal eigenvalues     -0.82937     2.57426  converged:  T
     TRS4 it   1 1.00000000   0.283E+02       0.007     2086.725   0.100E-11
     TRS4 it   2 1.00000000   0.234E+02       0.013     2163.941   0.100E-11
     TRS4 it   3 1.00000000   0.155E+02       0.013     2164.421   0.100E-11
     TRS4 it   4 1.00000000   0.902E+01       0.013     2161.134   0.100E-11
     TRS4 it   5 1.00000000   0.378E+01       0.013     2196.345   0.100E-11
     TRS4 it   6 1.00000000   0.979E+00       0.013     2192.673   0.100E-11
     TRS4 it   7 1.00000000   0.121E+00       0.013     2195.095   0.100E-11
     TRS4 it   8 1.00000000   0.274E-02       0.013     2183.869   0.100E-11
     TRS4 it   9 1.00000000   0.217E-05       0.013     2195.033   0.100E-11
     TRS4 it  10 1.00000000   0.508E-11       0.013     2207.734   0.100E-11
     Final TRS4 iteration   10 1.00000000   0.508E-11
     Chemical potential (mu):       0.05467
 
 PAO| energy:  -190.74256053331848      penalty:   5.0449896813014423E-004
 PAO|LS| adapt:  T T F
 PAO|LS| adapt: scan_steps:    0.0000000000000000       0.20497840846872473        0.0000000000000000     
 PAO|LS| adapt: energies:   -190.64669925221310       -190.74256053331848        0.0000000000000000     
 PAO| ======================= Iteration:        11 =============================

     Lanczos converged:  T threshold:   0.100E-02
     Est. extremal eigenvalues:    0.492E+01   0.133E+00
     Est. condition number :    0.371E+02

 Order=           3
     NS sqrt iter    1 1.00000000   0.126E+01       0.021     2698.485
     NS sqrt iter    2 1.00000000   0.643E+00       0.034     3357.209
     NS sqrt iter    3 1.00000000   0.208E+00       0.034     3358.695
     NS sqrt iter    4 1.00000000   0.272E-01       0.034     3346.737
     NS sqrt iter    5 1.00000000   0.133E-03       0.034     3343.156
     NS sqrt iter    6 1.00000000   0.452E-10       0.021     2276.281
     Symmetrizing Results
     Final NS sqrt iter    6 1.00000000   0.226E-11

     Est. extremal eigenvalues     -0.82944     2.55898  converged:  T
     TRS4 it   1 1.00000000   0.283E+02       0.007     2091.980   0.100E-11
     TRS4 it   2 1.00000000   0.233E+02       0.013     2179.282   0.100E-11
     TRS4 it   3 1.00000000   0.154E+02       0.013     2183.016   0.100E-11
     TRS4 it   4 1.00000000   0.899E+01       0.013     2172.892   0.100E-11
     TRS4 it   5 1.00000000   0.375E+01       0.013     2161.530   0.100E-11
     TRS4 it   6 1.00000000   0.965E+00       0.013     2171.044   0.100E-11
     TRS4 it   7 1.00000000   0.117E+00       0.013     2188.978   0.100E-11
     TRS4 it   8 1.00000000   0.257E-02       0.013     2198.755   0.100E-11
     TRS4 it   9 1.00000000   0.192E-05       0.013     2191.802   0.100E-11
     TRS4 it  10 1.00000000   0.403E-11       0.013     2196.774   0.100E-11
     Final TRS4 iteration   10 1.00000000   0.403E-11
     Chemical potential (mu):       0.05558
 
 PAO| energy:  -190.74856543536836      penalty:   5.1588327471570013E-004
 PAO|LS| adapt:  T T F
 PAO|LS| adapt: scan_steps:    0.0000000000000000       0.40995681693744945        0.0000000000000000     
 PAO|LS| adapt: energies:   -190.64669925221310       -190.74856543536836        0.0000000000000000     
 PAO| ======================= Iteration:        12 =============================

     Lanczos converged:  F threshold:   0.100E-02
     Est. extremal eigenvalues:    0.482E+01   0.140E+00
     Est. condition number :    0.345E+02

 Order=           3
     NS sqrt iter    1 1.00000000   0.124E+01       0.021     2675.644
     NS sqrt iter    2 1.00000000   0.628E+00       0.034     3329.177
     NS sqrt iter    3 1.00000000   0.198E+00       0.034     3321.707
     NS sqrt iter    4 1.00000000   0.236E-01       0.034     3335.352
     NS sqrt iter    5 1.00000000   0.868E-04       0.034     3336.530
     NS sqrt iter    6 1.00000000   0.120E-10       0.015     2133.427
     Symmetrizing Results
     Final NS sqrt iter    6 1.00000000   0.182E-11

     Est. extremal eigenvalues     -0.82872     2.52833  converged:  T
     TRS4 it   1 1.00000000   0.282E+02       0.007     2087.739   0.100E-11
     TRS4 it   2 1.00000000   0.231E+02       0.013     2187.866   0.100E-11
     TRS4 it   3 1.00000000   0.154E+02       0.013     2188.303   0.100E-11
     TRS4 it   4 1.00000000   0.892E+01       0.013     2172.453   0.100E-11
     TRS4 it   5 1.00000000   0.369E+01       0.013     2176.425   0.100E-11
     TRS4 it   6 1.00000000   0.931E+00       0.013     2185.059   0.100E-11
     TRS4 it   7 1.00000000   0.109E+00       0.013     2174.114   0.100E-11
     TRS4 it   8 1.00000000   0.221E-02       0.013     2196.746   0.100E-11
     TRS4 it   9 1.00000000   0.146E-05       0.013     2177.316   0.100E-11
     TRS4 it  10 1.00000000   0.240E-11       0.013     2184.568   0.100E-11
     Final TRS4 iteration   10 1.00000000   0.240E-11
     Chemical potential (mu):       0.05760
 
 PAO| energy:  -190.50662188650116      penalty:   5.7396943813032945E-004
 PAO|LS| Need extra step
 PAO|LS| adapt:  T T T
 PAO|LS| adapt: scan_steps:    0.0000000000000000       0.40995681693744945       0.81991363387489891     
 PAO|LS| adapt: energies:   -190.64669925221310       -190.74856543536836       -190.50662188650116     
 PAO|LS| adapt: suggested step_size:   0.32644308008881612     
 PAO|LS| adapt: predicted energy  -190.75569934787768     
 PAO| ======================= Iteration:        13 =============================

     Lanczos converged:  T threshold:   0.100E-02
     Est. extremal eigenvalues:    0.494E+01   0.131E+00
     Est. condition number :    0.376E+02

 Order=           3
     NS sqrt iter    1 1.00000000   0.127E+01       0.021     2676.278
     NS sqrt iter    2 1.00000000   0.647E+00       0.034     3337.848
     NS sqrt iter    3 1.00000000   0.210E+00       0.034     3352.744
     NS sqrt iter    4 1.00000000   0.280E-01       0.034     3347.606
     NS sqrt iter    5 1.00000000   0.145E-03       0.034     3337.007
     NS sqrt iter    6 1.00000000   0.589E-10       0.023     2334.042
     Symmetrizing Results
     Final NS sqrt iter    6 1.00000000   0.221E-11

     Est. extremal eigenvalues     -0.82945     2.56523  converged:  T
     TRS4 it   1 1.00000000   0.283E+02       0.007     2099.700   0.100E-11
     TRS4 it   2 1.00000000   0.233E+02       0.013     2171.420   0.100E-11
     TRS4 it   3 1.00000000   0.154E+02       0.013     2178.202   0.100E-11
     TRS4 it   4 1.00000000   0.900E+01       0.013     2177.354   0.100E-11
     TRS4 it   5 1.00000000   0.376E+01       0.013     2191.765   0.100E-11
     TRS4 it   6 1.00000000   0.971E+00       0.013     2188.223   0.100E-11
     TRS4 it   7 1.00000000   0.119E+00       0.013     2179.378   0.100E-11
     TRS4 it   8 1.00000000   0.264E-02       0.013     2183.679   0.100E-11
     TRS4 it   9 1.00000000   0.202E-05       0.013     2200.465   0.100E-11
     TRS4 it  10 1.00000000   0.443E-11       0.013     2180.277   0.100E-11
     Final TRS4 iteration   10 1.00000000   0.443E-11
     Chemical potential (mu):       0.05521
 
 PAO| energy:  -190.75672285994045      penalty:   5.1001614229106973E-004
 PAO|CG| trace_G_new   0.26818946083199940     
 PAO|CG| trace_G_prev   0.70023020459261698     
 PAO|CG| trace_G_mix   -1.0184477829997164E-002
 PAO|CG| trace_D   0.81794308354069090     
 PAO|CG| trace_D_Gnew   1.1138942881560990E-002
 PAO|CG| beta:   0.39754631667731355     
 PAO| norm of gradient:  0.51787011965549756     
 PAO| energy improvement: -0.11002360772735642     
 PAO| step     13                 -190.756722860  0.101E-02  0.326E+00     2.030
 PAO|LS| adapt:  T F F
 PAO|LS| adapt: scan_steps:    0.0000000000000000        0.0000000000000000        0.0000000000000000     
 PAO|LS| adapt: energies:   -190.75672285994045        0.0000000000000000        0.0000000000000000     
 PAO| ======================= Iteration:        14 =============================

     Lanczos converged:  F threshold:   0.100E-02
     Est. extremal eigenvalues:    0.487E+01   0.134E+00
     Est. condition number :    0.364E+02

 Order=           3
     NS sqrt iter    1 1.00000000   0.125E+01       0.021     2667.818
     NS sqrt iter    2 1.00000000   0.636E+00       0.034     3340.935
     NS sqrt iter    3 1.00000000   0.204E+00       0.034     3328.486
     NS sqrt iter    4 1.00000000   0.259E-01       0.034     3337.337
     NS sqrt iter    5 1.00000000   0.118E-03       0.034     3330.283
     NS sqrt iter    6 1.00000000   0.319E-10       0.019     2240.260
     Symmetrizing Results
     Final NS sqrt iter    6 1.00000000   0.222E-11

     Est. extremal eigenvalues     -0.82981     2.56062  converged:  T
     TRS4 it   1 1.00000000   0.283E+02       0.007     2115.552   0.100E-11
     TRS4 it   2 1.00000000   0.233E+02       0.013     2172.008   0.100E-11
     TRS4 it   3 1.00000000   0.154E+02       0.013     2199.528   0.100E-11
     TRS4 it   4 1.00000000   0.894E+01       0.013     2195.016   0.100E-11
     TRS4 it   5 1.00000000   0.371E+01       0.013     2196.061   0.100E-11
     TRS4 it   6 1.00000000   0.942E+00       0.013     2192.011   0.100E-11
     TRS4 it   7 1.00000000   0.112E+00       0.013     2188.790   0.100E-11
     TRS4 it   8 1.00000000   0.234E-02       0.013     2188.739   0.100E-11
     TRS4 it   9 1.00000000   0.160E-05       0.013     2170.751   0.100E-11
     TRS4 it  10 1.00000000   0.283E-11       0.013     2188.628   0.100E-11
     Final TRS4 iteration   10 1.00000000   0.283E-11
     Chemical potential (mu):       0.05706
 
 PAO| energy:  -190.80714608404978      penalty:   5.1094656604937217E-004
 PAO|LS| adapt:  T T F
 PAO|LS| adapt: scan_steps:    0.0000000000000000       0.32644308008881612        0.0000000000000000     
 PAO|LS| adapt: energies:   -190.75672285994045       -190.80714608404978        0.0000000000000000     
 PAO| ======================= Iteration:        15 =============================

     Lanczos converged:  F threshold:   0.100E-02
     Est. extremal eigenvalues:    0.480E+01   0.136E+00
     Est. condition number :    0.352E+02

 Order=           3
     NS sqrt iter    1 1.00000000   0.124E+01       0.021     2654.888
     NS sqrt iter    2 1.00000000   0.626E+00       0.034     3356.176
     NS sqrt iter    3 1.00000000   0.198E+00       0.034     3337.003
     NS sqrt iter    4 1.00000000   0.241E-01       0.034     3348.008
     NS sqrt iter    5 1.00000000   0.961E-04       0.034     3347.674
     NS sqrt iter    6 1.00000000   0.176E-10       0.017     2154.941
     Symmetrizing Results
     Final NS sqrt iter    6 1.00000000   0.200E-11

     Est. extremal eigenvalues     -0.82987     2.55602  converged:  T
     TRS4 it   1 1.00000000   0.284E+02       0.007     2125.084   0.100E-11
     TRS4 it   2 1.00000000   0.233E+02       0.013     2185.791   0.100E-11
     TRS4 it   3 1.00000000   0.154E+02       0.013     2195.202   0.100E-11
     TRS4 it   4 1.00000000   0.889E+01       0.013     2173.735   0.100E-11
     TRS4 it   5 1.00000000   0.365E+01       0.013     2176.643   0.100E-11
     TRS4 it   6 1.00000000   0.914E+00       0.013     2185.015   0.100E-11
     TRS4 it   7 1.00000000   0.105E+00       0.013     2183.006   0.100E-11
     TRS4 it   8 1.00000000   0.207E-02       0.013     2176.766   0.100E-11
     TRS4 it   9 1.00000000   0.127E-05       0.013     2194.796   0.100E-11
     TRS4 it  10 1.00000000   0.180E-11       0.013     2162.660   0.100E-11
     Final TRS4 iteration   10 1.00000000   0.180E-11
     Chemical potential (mu):       0.05883
 
 PAO| energy:  -190.78724110429837      penalty:   5.2613974355914276E-004
 PAO|LS| adapt:  T T T
 PAO|LS| adapt: scan_steps:    0.0000000000000000       0.32644308008881612       0.65288616017763224     
 PAO|LS| adapt: energies:   -190.75672285994045       -190.80714608404978       -190.78724110429837     
 PAO|LS| adapt: suggested step_size:   0.39727148988890232     
 PAO|LS| adapt: predicted energy  -190.80880147119811     
 PAO| ======================= Iteration:        16 =============================

     Lanczos converged:  F threshold:   0.100E-02
     Est. extremal eigenvalues:    0.486E+01   0.134E+00
     Est. condition number :    0.361E+02

 Order=           3
     NS sqrt iter    1 1.00000000   0.125E+01       0.021     2676.559
     NS sqrt iter    2 1.00000000   0.634E+00       0.034     3355.618
     NS sqrt iter    3 1.00000000   0.203E+00       0.034     3358.880
     NS sqrt iter    4 1.00000000   0.255E-01       0.034     3338.463
     NS sqrt iter    5 1.00000000   0.113E-03       0.034     3371.885
     NS sqrt iter    6 1.00000000   0.280E-10       0.019     2192.724
     Symmetrizing Results
     Final NS sqrt iter    6 1.00000000   0.224E-11

     Est. extremal eigenvalues     -0.82985     2.55960  converged:  T
     TRS4 it   1 1.00000000   0.284E+02       0.007     2092.352   0.100E-11
     TRS4 it   2 1.00000000   0.233E+02       0.013     2188.935   0.100E-11
     TRS4 it   3 1.00000000   0.154E+02       0.013     2186.560   0.100E-11
     TRS4 it   4 1.00000000   0.893E+01       0.013     2181.682   0.100E-11
     TRS4 it   5 1.00000000   0.370E+01       0.013     2183.197   0.100E-11
     TRS4 it   6 1.00000000   0.936E+00       0.013     2186.867   0.100E-11
     TRS4 it   7 1.00000000   0.110E+00       0.013     2196.649   0.100E-11
     TRS4 it   8 1.00000000   0.228E-02       0.013     2175.633   0.100E-11
     TRS4 it   9 1.00000000   0.152E-05       0.013     2199.664   0.100E-11
     TRS4 it  10 1.00000000   0.256E-11       0.013     2185.044   0.100E-11
     Final TRS4 iteration   10 1.00000000   0.256E-11
     Chemical potential (mu):       0.05746
 
 PAO| energy:  -190.80874714289641      penalty:   5.1298535391492870E-004
 PAO|CG| trace_G_new   0.10466942258338907     
 PAO|CG| trace_G_prev   0.26818946083199940     
 PAO|CG| trace_G_mix    3.9554961317786585E-003
 PAO|CG| trace_D   0.38860320860455300     
 PAO|CG| trace_D_Gnew   6.9376904767059935E-004
 PAO|CG| beta:   0.37553275262632391     
 PAO| norm of gradient:  0.32352654077121568     
 PAO| energy improvement:  -5.2024282955954959E-002
 PAO| step     16                 -190.808747143  0.632E-03  0.397E+00     1.552
 PAO|LS| adapt:  T F F
 PAO|LS| adapt: scan_steps:    0.0000000000000000        0.0000000000000000        0.0000000000000000     
 PAO|LS| adapt: energies:   -190.80874714289641        0.0000000000000000        0.0000000000000000     
 PAO| ======================= Iteration:        17 =============================

     Lanczos converged:  F threshold:   0.100E-02
     Est. extremal eigenvalues:    0.482E+01   0.135E+00
     Est. condition number :    0.356E+02

 Order=           3
     NS sqrt iter    1 1.00000000   0.124E+01       0.021     2678.311
     NS sqrt iter    2 1.00000000   0.629E+00       0.034     3353.324
     NS sqrt iter    3 1.00000000   0.200E+00       0.034     3364.058
     NS sqrt iter    4 1.00000000   0.247E-01       0.034     3350.090
     NS sqrt iter    5 1.00000000   0.103E-03       0.034     3337.808
     NS sqrt iter    6 1.00000000   0.214E-10       0.018     2166.853
     Symmetrizing Results
     Final NS sqrt iter    6 1.00000000   0.212E-11

     Est. extremal eigenvalues     -0.82991     2.55778  converged:  T
     TRS4 it   1 1.00000000   0.284E+02       0.007     2132.897   0.100E-11
     TRS4 it   2 1.00000000   0.233E+02       0.013     2208.537   0.100E-11
     TRS4 it   3 1.00000000   0.154E+02       0.013     2199.071   0.100E-11
     TRS4 it   4 1.00000000   0.888E+01       0.013     2204.361   0.100E-11
     TRS4 it   5 1.00000000   0.365E+01       0.013     2210.309   0.100E-11
     TRS4 it   6 1.00000000   0.916E+00       0.013     2161.704   0.100E-11
     TRS4 it   7 1.00000000   0.106E+00       0.013     2197.319   0.100E-11
     TRS4 it   8 1.00000000   0.209E-02       0.013     2203.114   0.100E-11
     TRS4 it   9 1.00000000   0.128E-05       0.013     2177.557   0.100E-11
     TRS4 it  10 1.00000000   0.183E-11       0.013     2189.615   0.100E-11
     Final TRS4 iteration   10 1.00000000   0.183E-11
     Chemical potential (mu):       0.05869
 
 PAO| energy:  -190.81376731482888      penalty:   5.0525727422160252E-004
 PAO|LS| adapt:  T T F
 PAO|LS| adapt: scan_steps:    0.0000000000000000       0.39727148988890232        0.0000000000000000     
 PAO|LS| adapt: energies:   -190.80874714289641       -190.81376731482888        0.0000000000000000     
 PAO| ======================= Iteration:        18 =============================

     Lanczos converged:  F threshold:   0.100E-02
     Est. extremal eigenvalues:    0.478E+01   0.135E+00
     Est. condition number :    0.353E+02

 Order=           3
     NS sqrt iter    1 1.00000000   0.123E+01       0.021     2687.479
     NS sqrt iter    2 1.00000000   0.624E+00       0.034     3349.213
     NS sqrt iter    3 1.00000000   0.197E+00       0.034     3351.674
     NS sqrt iter    4 1.00000000   0.239E-01       0.034     3347.978
     NS sqrt iter    5 1.00000000   0.943E-04       0.034     3371.358
     NS sqrt iter    6 1.00000000   0.166E-10       0.017     2143.478
     Symmetrizing Results
     Final NS sqrt iter    6 1.00000000   0.201E-11

     Est. extremal eigenvalues     -0.82980     2.55717  converged:  T
     TRS4 it   1 1.00000000   0.284E+02       0.007     1918.034   0.100E-11
     TRS4 it   2 1.00000000   0.232E+02       0.013     2204.169   0.100E-11
     TRS4 it   3 1.00000000   0.153E+02       0.013     2210.910   0.100E-11
     TRS4 it   4 1.00000000   0.884E+01       0.013     2212.660   0.100E-11
     TRS4 it   5 1.00000000   0.361E+01       0.013     2162.727   0.100E-11
     TRS4 it   6 1.00000000   0.896E+00       0.013     2178.172   0.100E-11
     TRS4 it   7 1.00000000   0.102E+00       0.013     2184.927   0.100E-11
     TRS4 it   8 1.00000000   0.192E-02       0.013     2174.511   0.100E-11
     TRS4 it   9 1.00000000   0.109E-05       0.013     2194.291   0.100E-11
     TRS4 it  10 1.00000000   0.136E-11       0.013     2172.119   0.100E-11
     Final TRS4 iteration   10 1.00000000   0.136E-11
     Chemical potential (mu):       0.05997
 
 PAO| energy:  -190.74570400461909      penalty:   5.0552605538058105E-004
 PAO|LS| adapt:  T T T
 PAO|LS| adapt: scan_steps:    0.0000000000000000       0.39727148988890232       0.79454297977780464     
 PAO|LS| adapt: energies:   -190.80874714289641       -190.81376731482888       -190.74570400461909     
 PAO|LS| adapt: suggested step_size:   0.22592469074521696     
 PAO|LS| adapt: predicted energy  -190.82056508425529     
 PAO| ======================= Iteration:        19 =============================

     Lanczos converged:  F threshold:   0.100E-02
     Est. extremal eigenvalues:    0.483E+01   0.135E+00
     Est. condition number :    0.358E+02

 Order=           3
     NS sqrt iter    1 1.00000000   0.124E+01       0.021     2688.732
     NS sqrt iter    2 1.00000000   0.631E+00       0.034     3353.995
     NS sqrt iter    3 1.00000000   0.201E+00       0.034     3329.438
     NS sqrt iter    4 1.00000000   0.251E-01       0.034     3349.474
     NS sqrt iter    5 1.00000000   0.107E-03       0.034     3349.258
     NS sqrt iter    6 1.00000000   0.240E-10       0.018     2170.420
     Symmetrizing Results
     Final NS sqrt iter    6 1.00000000   0.217E-11

     Est. extremal eigenvalues     -0.82990     2.55848  converged:  T
     TRS4 it   1 1.00000000   0.284E+02       0.007     2132.990   0.100E-11
     TRS4 it   2 1.00000000   0.233E+02       0.013     2170.162   0.100E-11
     TRS4 it   3 1.00000000   0.154E+02       0.013     2178.456   0.100E-11
     TRS4 it   4 1.00000000   0.890E+01       0.013     2189.302   0.100E-11
     TRS4 it   5 1.00000000   0.367E+01       0.013     2173.400   0.100E-11
     TRS4 it   6 1.00000000   0.924E+00       0.013     2177.439   0.100E-11
     TRS4 it   7 1.00000000   0.108E+00       0.013     2172.899   0.100E-11
     TRS4 it   8 1.00000000   0.217E-02       0.013     2187.701   0.100E-11
     TRS4 it   9 1.00000000   0.138E-05       0.013     2162.358   0.100E-11
     TRS4 it  10 1.00000000   0.208E-11       0.013     2209.707   0.100E-11
     Final TRS4 iteration   10 1.00000000   0.208E-11
     Chemical potential (mu):       0.05815
 
 PAO| energy:  -190.82055214972772      penalty:   5.0762525704271279E-004
 PAO|CG| trace_G_new    2.2833284774110757E-002
 PAO|CG| trace_G_prev   0.10466942258338907     
 PAO|CG| trace_G_mix   -3.8698185300622029E-004
 PAO|CG| trace_D   0.15895106512351934     
 PAO|CG| trace_D_Gnew  -4.8423271298231080E-005
 PAO|CG| beta:   0.22184383991052997     
 PAO| norm of gradient:  0.15110686541024784     
 PAO| energy improvement:  -1.1805006831309584E-002
 PAO| step     19                 -190.820552150  0.295E-03  0.226E+00     1.549
 PAO|LS| adapt:  T F F
 PAO|LS| adapt: scan_steps:    0.0000000000000000        0.0000000000000000        0.0000000000000000     
 PAO|LS| adapt: energies:   -190.82055214972772        0.0000000000000000        0.0000000000000000     
 PAO| ======================= Iteration:        20 =============================

     Lanczos converged:  F threshold:   0.100E-02
     Est. extremal eigenvalues:    0.483E+01   0.135E+00
     Est. condition number :    0.358E+02

 Order=           3
     NS sqrt iter    1 1.00000000   0.124E+01       0.021     2681.031
     NS sqrt iter    2 1.00000000   0.631E+00       0.034     3354.645
     NS sqrt iter    3 1.00000000   0.201E+00       0.034     3336.940
     NS sqrt iter    4 1.00000000   0.250E-01       0.034     3338.549
     NS sqrt iter    5 1.00000000   0.107E-03       0.034     3339.886
     NS sqrt iter    6 1.00000000   0.236E-10       0.018     2188.527
     Symmetrizing Results
     Final NS sqrt iter    6 1.00000000   0.216E-11

     Est. extremal eigenvalues     -0.82990     2.55707  converged:  T
     TRS4 it   1 1.00000000   0.284E+02       0.007     2110.860   0.100E-11
     TRS4 it   2 1.00000000   0.233E+02       0.013     2203.883   0.100E-11
     TRS4 it   3 1.00000000   0.154E+02       0.013     2175.438   0.100E-11
     TRS4 it   4 1.00000000   0.889E+01       0.013     2200.957   0.100E-11
     TRS4 it   5 1.00000000   0.366E+01       0.013     2164.710   0.100E-11
     TRS4 it   6 1.00000000   0.920E+00       0.013     2197.407   0.100E-11
     TRS4 it   7 1.00000000   0.107E+00       0.013     2205.874   0.100E-11
     TRS4 it   8 1.00000000   0.213E-02       0.013     2188.455   0.100E-11
     TRS4 it   9 1.00000000   0.133E-05       0.013     2188.988   0.100E-11
     TRS4 it  10 1.00000000   0.197E-11       0.013     2165.125   0.100E-11
     Final TRS4 iteration   10 1.00000000   0.197E-11
     Chemical potential (mu):       0.05839
 
 PAO| energy:  -190.82469777599704      penalty:   4.9760367965645091E-004
 PAO|LS| adapt:  T T F
 PAO|LS| adapt: scan_steps:    0.0000000000000000       0.22592469074521696        0.0000000000000000     
 PAO|LS| adapt: energies:   -190.82055214972772       -190.82469777599704        0.0000000000000000     
 PAO| ======================= Iteration:        21 =============================

     Lanczos converged:  F threshold:   0.100E-02
     Est. extremal eigenvalues:    0.482E+01   0.135E+00
     Est. condition number :    0.358E+02

 Order=           3
     NS sqrt iter    1 1.00000000   0.124E+01       0.021     2665.999
     NS sqrt iter    2 1.00000000   0.630E+00       0.034     3367.316
     NS sqrt iter    3 1.00000000   0.201E+00       0.034     3348.631
     NS sqrt iter    4 1.00000000   0.250E-01       0.034     3357.580
     NS sqrt iter    5 1.00000000   0.106E-03       0.034     3362.033
     NS sqrt iter    6 1.00000000   0.232E-10       0.018     2174.934
     Symmetrizing Results
     Final NS sqrt iter    6 1.00000000   0.215E-11

     Est. extremal eigenvalues     -0.82990     2.55565  converged:  T
     TRS4 it   1 1.00000000   0.284E+02       0.007     2128.565   0.100E-11
     TRS4 it   2 1.00000000   0.232E+02       0.013     2172.771   0.100E-11
     TRS4 it   3 1.00000000   0.154E+02       0.013     2183.016   0.100E-11
     TRS4 it   4 1.00000000   0.888E+01       0.013     2177.481   0.100E-11
     TRS4 it   5 1.00000000   0.365E+01       0.013     2171.049   0.100E-11
     TRS4 it   6 1.00000000   0.915E+00       0.013     2182.552   0.100E-11
     TRS4 it   7 1.00000000   0.106E+00       0.013     2181.151   0.100E-11
     TRS4 it   8 1.00000000   0.209E-02       0.013     2174.385   0.100E-11
     TRS4 it   9 1.00000000   0.129E-05       0.013     2193.263   0.100E-11
     TRS4 it  10 1.00000000   0.184E-11       0.013     2192.751   0.100E-11
     Final TRS4 iteration   10 1.00000000   0.184E-11
     Chemical potential (mu):       0.05862
 
 PAO| energy:  -190.82679837840647      penalty:   4.8809356553312683E-004
 PAO|LS| adapt:  T T F
 PAO|LS| adapt: scan_steps:    0.0000000000000000       0.45184938149043391        0.0000000000000000     
 PAO|LS| adapt: energies:   -190.82055214972772       -190.82679837840647        0.0000000000000000     
 PAO| ======================= Iteration:        22 =============================

     Lanczos converged:  F threshold:   0.100E-02
     Est. extremal eigenvalues:    0.481E+01   0.135E+00
     Est. condition number :    0.357E+02

 Order=           3
     NS sqrt iter    1 1.00000000   0.124E+01       0.021     2691.048
     NS sqrt iter    2 1.00000000   0.629E+00       0.034     3354.673
     NS sqrt iter    3 1.00000000   0.201E+00       0.034     3358.856
     NS sqrt iter    4 1.00000000   0.250E-01       0.034     3361.519
     NS sqrt iter    5 1.00000000   0.105E-03       0.034     3328.121
     NS sqrt iter    6 1.00000000   0.224E-10       0.018     2163.162
     Symmetrizing Results
     Final NS sqrt iter    6 1.00000000   0.214E-11

     Est. extremal eigenvalues     -0.82989     2.55281  converged:  T
     TRS4 it   1 1.00000000   0.284E+02       0.007     2106.707   0.100E-11
     TRS4 it   2 1.00000000   0.232E+02       0.013     2168.996   0.100E-11
     TRS4 it   3 1.00000000   0.153E+02       0.013     2195.217   0.100E-11
     TRS4 it   4 1.00000000   0.885E+01       0.013     2185.715   0.100E-11
     TRS4 it   5 1.00000000   0.363E+01       0.013     2201.427   0.100E-11
     TRS4 it   6 1.00000000   0.906E+00       0.013     2187.051   0.100E-11
     TRS4 it   7 1.00000000   0.104E+00       0.013     2183.562   0.100E-11
     TRS4 it   8 1.00000000   0.202E-02       0.013     2172.081   0.100E-11
     TRS4 it   9 1.00000000   0.120E-05       0.013     2197.248   0.100E-11
     TRS4 it  10 1.00000000   0.160E-11       0.013     2169.918   0.100E-11
     Final TRS4 iteration   10 1.00000000   0.160E-11
     Chemical potential (mu):       0.05911
 
 PAO| energy:  -190.82477837303296      penalty:   4.7057282343254686E-004
 PAO|LS| Need extra step
 PAO|LS| adapt:  T T T
 PAO|LS| adapt: scan_steps:    0.0000000000000000       0.45184938149043391       0.90369876298086782     
 PAO|LS| adapt: energies:   -190.82055214972772       -190.82679837840647       -190.82477837303296     
 PAO|LS| adapt: suggested step_size:   0.56735641736917886     
 PAO|LS| adapt: predicted energy  -190.82706846759268     
 PAO| ======================= Iteration:        23 =============================

     Lanczos converged:  F threshold:   0.100E-02
     Est. extremal eigenvalues:    0.482E+01   0.135E+00
     Est. condition number :    0.358E+02

 Order=           3
     NS sqrt iter    1 1.00000000   0.124E+01       0.021     2669.672
     NS sqrt iter    2 1.00000000   0.630E+00       0.034     3320.209
     NS sqrt iter    3 1.00000000   0.201E+00       0.034     3357.457
     NS sqrt iter    4 1.00000000   0.250E-01       0.034     3363.487
     NS sqrt iter    5 1.00000000   0.106E-03       0.034     3351.638
     NS sqrt iter    6 1.00000000   0.230E-10       0.018     2164.674
     Symmetrizing Results
     Final NS sqrt iter    6 1.00000000   0.215E-11

     Est. extremal eigenvalues     -0.82990     2.55493  converged:  T
     TRS4 it   1 1.00000000   0.284E+02       0.007     2115.577   0.100E-11
     TRS4 it   2 1.00000000   0.232E+02       0.013     2169.349   0.100E-11
     TRS4 it   3 1.00000000   0.154E+02       0.013     2185.984   0.100E-11
     TRS4 it   4 1.00000000   0.887E+01       0.013     2200.996   0.100E-11
     TRS4 it   5 1.00000000   0.364E+01       0.013     2166.826   0.100E-11
     TRS4 it   6 1.00000000   0.913E+00       0.013     2185.245   0.100E-11
     TRS4 it   7 1.00000000   0.106E+00       0.013     2195.890   0.100E-11
     TRS4 it   8 1.00000000   0.207E-02       0.013     2196.181   0.100E-11
     TRS4 it   9 1.00000000   0.126E-05       0.013     2173.289   0.100E-11
     TRS4 it  10 1.00000000   0.179E-11       0.013     2186.244   0.100E-11
     Final TRS4 iteration   10 1.00000000   0.179E-11
     Chemical potential (mu):       0.05875
 
 PAO| energy:  -190.82707535233914      penalty:   4.8342594049910232E-004
 PAO|CG| trace_G_new    1.9132662633938056E-002
 PAO|CG| trace_G_prev    2.2833284774110757E-002
 PAO|CG| trace_G_mix    1.1602155189939113E-004
 PAO|CG| trace_D    3.0677496867953746E-002
 PAO|CG| trace_D_Gnew  -5.1340262376399530E-005
 PAO|CG| beta:   0.83284736603471321     
 PAO| norm of gradient:  0.13832086839641392     
 PAO| energy improvement:  -6.5232026114188102E-003
 PAO| step     23                 -190.827075352  0.270E-03  0.567E+00     2.015
 PAO|LS| adapt:  T F F
 PAO|LS| adapt: scan_steps:    0.0000000000000000        0.0000000000000000        0.0000000000000000     
 PAO|LS| adapt: energies:   -190.82707535233914        0.0000000000000000        0.0000000000000000     
 PAO| ======================= Iteration:        24 =============================

     Lanczos converged:  F threshold:   0.100E-02
     Est. extremal eigenvalues:    0.481E+01   0.134E+00
     Est. condition number :    0.358E+02

 Order=           3
     NS sqrt iter    1 1.00000000   0.124E+01       0.021     2648.525
     NS sqrt iter    2 1.00000000   0.628E+00       0.034     3336.567
     NS sqrt iter    3 1.00000000   0.200E+00       0.034     3361.581
     NS sqrt iter    4 1.00000000   0.250E-01       0.034     3341.493
     NS sqrt iter    5 1.00000000   0.106E-03       0.034     3335.657
     NS sqrt iter    6 1.00000000   0.227E-10       0.018     2178.744
     Symmetrizing Results
     Final NS sqrt iter    6 1.00000000   0.214E-11

     Est. extremal eigenvalues     -0.82991     2.55068  converged:  T
     TRS4 it   1 1.00000000   0.284E+02       0.007     2141.281   0.100E-11
     TRS4 it   2 1.00000000   0.232E+02       0.013     2179.038   0.100E-11
     TRS4 it   3 1.00000000   0.153E+02       0.013     2202.591   0.100E-11
     TRS4 it   4 1.00000000   0.884E+01       0.013     2210.922   0.100E-11
     TRS4 it   5 1.00000000   0.362E+01       0.013     2177.221   0.100E-11
     TRS4 it   6 1.00000000   0.902E+00       0.013     2175.468   0.100E-11
     TRS4 it   7 1.00000000   0.103E+00       0.013     2187.826   0.100E-11
     TRS4 it   8 1.00000000   0.198E-02       0.013     2162.039   0.100E-11
     TRS4 it   9 1.00000000   0.116E-05       0.013     2186.970   0.100E-11
     TRS4 it  10 1.00000000   0.151E-11       0.013     2203.655   0.100E-11
     Final TRS4 iteration   10 1.00000000   0.151E-11
     Chemical potential (mu):       0.05930
 
 PAO| energy:  -190.83058263893039      penalty:   4.4471860444738703E-004
 PAO|LS| adapt:  T T F
 PAO|LS| adapt: scan_steps:    0.0000000000000000       0.56735641736917886        0.0000000000000000     
 PAO|LS| adapt: energies:   -190.82707535233914       -190.83058263893039        0.0000000000000000     
 PAO| ======================= Iteration:        25 =============================

     Lanczos converged:  F threshold:   0.100E-02
     Est. extremal eigenvalues:    0.479E+01   0.134E+00
     Est. condition number :    0.358E+02

 Order=           3
     NS sqrt iter    1 1.00000000   0.123E+01       0.021     2665.289
     NS sqrt iter    2 1.00000000   0.627E+00       0.034     3342.970
     NS sqrt iter    3 1.00000000   0.200E+00       0.034     3347.831
     NS sqrt iter    4 1.00000000   0.249E-01       0.034     3333.191
     NS sqrt iter    5 1.00000000   0.106E-03       0.034     3342.613
     NS sqrt iter    6 1.00000000   0.225E-10       0.018     2200.559
     Symmetrizing Results
     Final NS sqrt iter    6 1.00000000   0.214E-11

     Est. extremal eigenvalues     -0.82990     2.54625  converged:  T
     TRS4 it   1 1.00000000   0.284E+02       0.007     2146.296   0.100E-11
     TRS4 it   2 1.00000000   0.232E+02       0.013     2195.868   0.100E-11
     TRS4 it   3 1.00000000   0.153E+02       0.013     2192.297   0.100E-11
     TRS4 it   4 1.00000000   0.881E+01       0.013     2199.029   0.100E-11
     TRS4 it   5 1.00000000   0.359E+01       0.013     2196.518   0.100E-11
     TRS4 it   6 1.00000000   0.892E+00       0.013     2183.435   0.100E-11
     TRS4 it   7 1.00000000   0.101E+00       0.013     2167.103   0.100E-11
     TRS4 it   8 1.00000000   0.190E-02       0.013     2172.741   0.100E-11
     TRS4 it   9 1.00000000   0.107E-05       0.013     2179.040   0.100E-11
     TRS4 it  10 1.00000000   0.128E-11       0.013     2158.559   0.100E-11
     Final TRS4 iteration   10 1.00000000   0.128E-11
     Chemical potential (mu):       0.05986
 
 PAO| energy:  -190.81909525185515      penalty:   4.1087900486772266E-004
 PAO|LS| adapt:  T T T
 PAO|LS| adapt: scan_steps:    0.0000000000000000       0.56735641736917886        1.1347128347383577     
 PAO|LS| adapt: energies:   -190.82707535233914       -190.83058263893039       -190.81909525185515     
 PAO|LS| adapt: suggested step_size:   0.41638410141421306     
 PAO|LS| adapt: predicted energy  -190.83111351080157     
 PAO| ======================= Iteration:        26 =============================

     Lanczos converged:  F threshold:   0.100E-02
     Est. extremal eigenvalues:    0.481E+01   0.135E+00
     Est. condition number :    0.358E+02

 Order=           3
     NS sqrt iter    1 1.00000000   0.124E+01       0.021     2684.588
     NS sqrt iter    2 1.00000000   0.629E+00       0.034     3368.605
     NS sqrt iter    3 1.00000000   0.201E+00       0.034     3331.901
     NS sqrt iter    4 1.00000000   0.250E-01       0.034     3348.629
     NS sqrt iter    5 1.00000000   0.106E-03       0.034     3339.534
     NS sqrt iter    6 1.00000000   0.227E-10       0.018     2218.454
     Symmetrizing Results
     Final NS sqrt iter    6 1.00000000   0.215E-11

     Est. extremal eigenvalues     -0.82991     2.55183  converged:  T
     TRS4 it   1 1.00000000   0.284E+02       0.007     2108.930   0.100E-11
     TRS4 it   2 1.00000000   0.232E+02       0.013     2190.970   0.100E-11
     TRS4 it   3 1.00000000   0.153E+02       0.013     2176.640   0.100E-11
     TRS4 it   4 1.00000000   0.885E+01       0.013     2180.671   0.100E-11
     TRS4 it   5 1.00000000   0.362E+01       0.013     2194.503   0.100E-11
     TRS4 it   6 1.00000000   0.905E+00       0.013     2182.735   0.100E-11
     TRS4 it   7 1.00000000   0.104E+00       0.013     2202.519   0.100E-11
     TRS4 it   8 1.00000000   0.201E-02       0.013     2190.085   0.100E-11
     TRS4 it   9 1.00000000   0.119E-05       0.013     2194.868   0.100E-11
     TRS4 it  10 1.00000000   0.162E-11       0.013     2184.194   0.100E-11
     Final TRS4 iteration   10 1.00000000   0.162E-11
     Chemical potential (mu):       0.05915
 
 PAO| energy:  -190.83109790192171      penalty:   4.5453308645743943E-004
 PAO|CG| trace_G_new    1.5499523919859020E-002
 PAO|CG| trace_G_prev    1.9132662633938056E-002
 PAO|CG| trace_G_mix    2.7769715788876883E-004
 PAO|CG| trace_D    4.0497157252391877E-002
 PAO|CG| trace_D_Gnew  -8.7360661230393062E-005
 PAO|CG| beta:   0.79559374736317912     
 PAO| norm of gradient:  0.12449708398134882     
 PAO| energy improvement:  -4.0225495825723101E-003
 PAO| step     26                 -190.831097902  0.243E-03  0.416E+00     1.552
 PAO|LS| adapt:  T F F
 PAO|LS| adapt: scan_steps:    0.0000000000000000        0.0000000000000000        0.0000000000000000     
 PAO|LS| adapt: energies:   -190.83109790192171        0.0000000000000000        0.0000000000000000     
 PAO| ======================= Iteration:        27 =============================

     Lanczos converged:  F threshold:   0.100E-02
     Est. extremal eigenvalues:    0.479E+01   0.134E+00
     Est. condition number :    0.358E+02

 Order=           3
     NS sqrt iter    1 1.00000000   0.123E+01       0.021     2673.476
     NS sqrt iter    2 1.00000000   0.627E+00       0.034     3345.082
     NS sqrt iter    3 1.00000000   0.200E+00       0.034     3330.983
     NS sqrt iter    4 1.00000000   0.249E-01       0.034     3331.362
     NS sqrt iter    5 1.00000000   0.106E-03       0.034     3353.125
     NS sqrt iter    6 1.00000000   0.229E-10       0.018     2179.952
     Symmetrizing Results
     Final NS sqrt iter    6 1.00000000   0.216E-11

     Est. extremal eigenvalues     -0.82992     2.54916  converged:  T
     TRS4 it   1 1.00000000   0.284E+02       0.007     2140.794   0.100E-11
     TRS4 it   2 1.00000000   0.232E+02       0.013     2210.130   0.100E-11
     TRS4 it   3 1.00000000   0.153E+02       0.013     2181.873   0.100E-11
     TRS4 it   4 1.00000000   0.882E+01       0.013     2185.957   0.100E-11
     TRS4 it   5 1.00000000   0.361E+01       0.013     2176.044   0.100E-11
     TRS4 it   6 1.00000000   0.896E+00       0.013     2189.955   0.100E-11
     TRS4 it   7 1.00000000   0.102E+00       0.013     2185.952   0.100E-11
     TRS4 it   8 1.00000000   0.193E-02       0.013     2202.047   0.100E-11
     TRS4 it   9 1.00000000   0.110E-05       0.013     2226.351   0.100E-11
     TRS4 it  10 1.00000000   0.135E-11       0.013     2194.984   0.100E-11
     Final TRS4 iteration   10 1.00000000   0.135E-11
     Chemical potential (mu):       0.05967
 
 PAO| energy:  -190.83437965113609      penalty:   4.1892554576693903E-004
 PAO|LS| adapt:  T T F
 PAO|LS| adapt: scan_steps:    0.0000000000000000       0.41638410141421306        0.0000000000000000     
 PAO|LS| adapt: energies:   -190.83109790192171       -190.83437965113609        0.0000000000000000     
 PAO| ======================= Iteration:        28 =============================

     Lanczos converged:  F threshold:   0.100E-02
     Est. extremal eigenvalues:    0.478E+01   0.134E+00
     Est. condition number :    0.358E+02

 Order=           3
     NS sqrt iter    1 1.00000000   0.123E+01       0.021     2686.559
     NS sqrt iter    2 1.00000000   0.625E+00       0.034     3345.244
     NS sqrt iter    3 1.00000000   0.199E+00       0.034     3349.203
     NS sqrt iter    4 1.00000000   0.248E-01       0.034     3353.966
     NS sqrt iter    5 1.00000000   0.106E-03       0.034     3356.234
     NS sqrt iter    6 1.00000000   0.232E-10       0.018     2180.158
     Symmetrizing Results
     Final NS sqrt iter    6 1.00000000   0.216E-11

     Est. extremal eigenvalues     -0.82992     2.54646  converged:  T
     TRS4 it   1 1.00000000   0.284E+02       0.007     2127.394   0.100E-11
     TRS4 it   2 1.00000000   0.232E+02       0.013     2192.385   0.100E-11
     TRS4 it   3 1.00000000   0.153E+02       0.013     2181.174   0.100E-11
     TRS4 it   4 1.00000000   0.880E+01       0.013     2154.012   0.100E-11
     TRS4 it   5 1.00000000   0.359E+01       0.013     2175.936   0.100E-11
     TRS4 it   6 1.00000000   0.888E+00       0.013     2205.580   0.100E-11
     TRS4 it   7 1.00000000   0.100E+00       0.013     2189.708   0.100E-11
     TRS4 it   8 1.00000000   0.186E-02       0.013     2198.745   0.100E-11
     TRS4 it   9 1.00000000   0.103E-05       0.013     2180.656   0.100E-11
     TRS4 it  10 1.00000000   0.119E-11       0.013     2165.780   0.100E-11
     Final TRS4 iteration   10 1.00000000   0.119E-11
     Chemical potential (mu):       0.06017
 
 PAO| energy:  -190.83119252025494      penalty:   3.8670274304495575E-004
 PAO|LS| adapt:  T T T
 PAO|LS| adapt: scan_steps:    0.0000000000000000       0.41638410141421306       0.83276820282842612     
 PAO|LS| adapt: energies:   -190.83109790192171       -190.83437965113609       -190.83119252025494     
 PAO|LS| adapt: suggested step_size:   0.41942926294758487     
 PAO|LS| adapt: predicted energy  -190.83437982413028     
 PAO| ======================= Iteration:        29 =============================

     Lanczos converged:  F threshold:   0.100E-02
     Est. extremal eigenvalues:    0.479E+01   0.134E+00
     Est. condition number :    0.358E+02

 Order=           3
     NS sqrt iter    1 1.00000000   0.123E+01       0.021     2682.901
     NS sqrt iter    2 1.00000000   0.627E+00       0.034     3353.329
     NS sqrt iter    3 1.00000000   0.200E+00       0.034     3352.224
     NS sqrt iter    4 1.00000000   0.249E-01       0.034     3366.123
     NS sqrt iter    5 1.00000000   0.106E-03       0.034     3338.439
     NS sqrt iter    6 1.00000000   0.229E-10       0.018     2147.877
     Symmetrizing Results
     Final NS sqrt iter    6 1.00000000   0.216E-11

     Est. extremal eigenvalues     -0.82992     2.54914  converged:  T
     TRS4 it   1 1.00000000   0.284E+02       0.007     2077.139   0.100E-11
     TRS4 it   2 1.00000000   0.232E+02       0.013     2176.766   0.100E-11
     TRS4 it   3 1.00000000   0.153E+02       0.013     2184.276   0.100E-11
     TRS4 it   4 1.00000000   0.882E+01       0.013     2179.861   0.100E-11
     TRS4 it   5 1.00000000   0.361E+01       0.013     2187.212   0.100E-11
     TRS4 it   6 1.00000000   0.896E+00       0.013     2190.663   0.100E-11
     TRS4 it   7 1.00000000   0.102E+00       0.013     2185.759   0.100E-11
     TRS4 it   8 1.00000000   0.193E-02       0.013     2174.124   0.100E-11
     TRS4 it   9 1.00000000   0.110E-05       0.013     2181.184   0.100E-11
[...]

     Est. extremal eigenvalues     -0.82965     2.55171  converged:  T
     TRS4 it   1 1.00000000   0.287E+02       0.007     2090.729   0.100E-11
     TRS4 it   2 1.00000000   0.235E+02       0.013     2186.180   0.100E-11
     TRS4 it   3 1.00000000   0.155E+02       0.013     2191.988   0.100E-11
     TRS4 it   4 1.00000000   0.916E+01       0.013     2173.820   0.100E-11
     TRS4 it   5 1.00000000   0.410E+01       0.013     2188.399   0.100E-11
     TRS4 it   6 1.00000000   0.128E+01       0.013     2199.355   0.100E-11
     TRS4 it   7 1.00000000   0.231E+00       0.013     2154.714   0.100E-11
     TRS4 it   8 1.00000000   0.113E-01       0.013     2182.422   0.100E-11
     TRS4 it   9 1.00000000   0.366E-04       0.013     2177.607   0.100E-11
     TRS4 it  10 1.00000000   0.118E-08       0.013     2154.841   0.100E-11
     TRS4 it  11 1.00000000   0.178E-14       0.013     2169.161   0.100E-11
     Final TRS4 iteration   11 1.00000000   0.178E-14
     Chemical potential (mu):       0.02843
 
 PAO| energy:  -190.44209535412764      penalty:   2.9104277708945536E-008
 PAO| Writing restart file.
     Est. extremal eigenvalues     -0.82965     2.55171  converged:  T
     TRS4 it   1 1.00000000   0.287E+02       0.007     2142.067   0.100E-11
     TRS4 it   2 1.00000000   0.235E+02       0.013     2205.949   0.100E-11
     TRS4 it   3 1.00000000   0.155E+02       0.013     2166.578   0.100E-11
     TRS4 it   4 1.00000000   0.916E+01       0.013     2178.836   0.100E-11
     TRS4 it   5 1.00000000   0.410E+01       0.013     2179.056   0.100E-11
     TRS4 it   6 1.00000000   0.128E+01       0.013     2190.112   0.100E-11
     TRS4 it   7 1.00000000   0.231E+00       0.013     2179.023   0.100E-11
     TRS4 it   8 1.00000000   0.113E-01       0.013     2164.828   0.100E-11
     TRS4 it   9 1.00000000   0.366E-04       0.013     2198.021   0.100E-11
     TRS4 it  10 1.00000000   0.118E-08       0.013     2175.008   0.100E-11
     TRS4 it  11 1.00000000   0.178E-14       0.013     2184.818   0.100E-11
     Final TRS4 iteration   11 1.00000000   0.178E-14
     Chemical potential (mu):       0.02843

 SCF     1     -1103.030746956     -1103.030746956    1.778347

*********************************************************
 Using MIXING_FRACTION=0.450 to mix KS matrix:  iscf=  2
 KS_nw=0.450*KS + 0.550*KS_old
*********************************************************
     Est. extremal eigenvalues     -0.82965     2.55171  converged:  T
     TRS4 it   1 1.00000000   0.287E+02       0.007     2120.909   0.100E-11
     TRS4 it   2 1.00000000   0.235E+02       0.013     2167.788   0.100E-11
     TRS4 it   3 1.00000000   0.155E+02       0.013     2184.725   0.100E-11
     TRS4 it   4 1.00000000   0.916E+01       0.013     2161.292   0.100E-11
     TRS4 it   5 1.00000000   0.410E+01       0.013     2178.184   0.100E-11
     TRS4 it   6 1.00000000   0.128E+01       0.013     2158.890   0.100E-11
     TRS4 it   7 1.00000000   0.231E+00       0.013     2200.256   0.100E-11
     TRS4 it   8 1.00000000   0.113E-01       0.013     2187.689   0.100E-11
     TRS4 it   9 1.00000000   0.366E-04       0.013     2180.160   0.100E-11
     TRS4 it  10 1.00000000   0.118E-08       0.013     2190.501   0.100E-11
     TRS4 it  11 1.00000000   0.124E-13       0.013     2176.731   0.100E-11
     Final TRS4 iteration   11 1.00000000   0.124E-13
     Chemical potential (mu):       0.02843

 SCF     2     -1103.030746957        -0.000000000    1.778320


 SCF run converged in     2 steps.

 PAO| Storing density matrix for ASPC guess in slot:           1

 ENERGY| Total FORCE_EVAL ( QS ) energy [a.u.]:            -1103.030746956662824

 -------------------------------------------------------------------------------
 -                                                                             -
 -                                DBCSR STATISTICS                             -
 -                                                                             -
 -------------------------------------------------------------------------------
 COUNTER                                    TOTAL       BLAS       SMM       ACC
 flops     5 x     5 x     4             23116800       0.0%    100.0%      0.0%     
 flops    13 x     5 x     4             29818880       0.0%    100.0%      0.0%     
 flops     5 x    13 x     4             29818880       0.0%    100.0%      0.0%     
 flops    13 x    13 x     4             39370240       0.0%    100.0%      0.0%     
 flops     4 x     4 x     5           6594232320       0.0%    100.0%      0.0%     
 flops     5 x     4 x     5           8149401600       0.0%    100.0%      0.0%     
 flops     4 x     4 x    13           8572502016       0.0%    100.0%      0.0%     
 flops    13 x     4 x     5          10594222080       0.0%    100.0%      0.0%     
 flops     5 x     4 x    13          10594222080       0.0%    100.0%      0.0%     
 flops    13 x     4 x    13          13772488704       0.0%    100.0%      0.0%     
 flops     5 x     4 x     4         410248448480       0.0%    100.0%      0.0%     
 flops    13 x     4 x     4         538349469216       0.0%    100.0%      0.0%     
 flops     4 x     4 x     4       30524018119040       0.0%    100.0%      0.0%     
 flops inhomo. stacks                           0       0.0%      0.0%      0.0%
 flops total                        31.531015E+12       0.0%    100.0%      0.0%
 flops max/rank                    994.675829E+09       0.0%    100.0%      0.0%
 matmuls inhomo. stacks                         0       0.0%      0.0%      0.0%
 matmuls total                       242480814747       0.0%    100.0%      0.0%
 number of processed stacks             247698703       0.0%    100.0%      0.0%
 average stack size                                     0.0     978.9       0.0
 marketing flops                    54.306825E+12
 -------------------------------------------------------------------------------
 # multiplications                          50962
 max memory usage/rank             617.721856E+06
 # max total images/rank                        2
 # max 3D layers                                1
 # MPI messages exchanged                21200192
 MPI messages size (bytes):
  total size                         2.523538E+12
  min size                           0.000000E+00
  max size                         541.696000E+03
  average size                     119.033727E+03
 MPI breakdown and total messages size (bytes):
             size <=      128              905019                     7680
       128 < size <=     8192              345306               1240040192
      8192 < size <=    32768               38982                963174272
     32768 < size <=   131072             8846533             650961324544
    131072 < size <=  4194304            11064352            1870787197952
   4194304 < size <= 16777216                   0                        0
  16777216 < size                               0                        0
 -------------------------------------------------------------------------------

 *** WARNING in dbcsr_mm.F:301 :: Using a non-square number of MPI ranks ***
 *** might lead to poor performance. Used ranks: 32 Suggested: 36 64     ***

 -------------------------------------------------------------------------------
 -                                                                             -
 -                      DBCSR MESSAGE PASSING PERFORMANCE                      -
 -                                                                             -
 -------------------------------------------------------------------------------
 ROUTINE             CALLS      AVE VOLUME [Bytes]
 MP_Bcast               14                     12.
 MP_Allreduce       306800                     37.
 MP_Alltoall        131555                  14566.
 MP_ISend          1705670                  55370.
 MP_IRecv          1668226                  56689.
 -------------------------------------------------------------------------------

 -------------------------------------------------------------------------------
 -                                                                             -
 -                                DBM STATISTICS                               -
 -                                                                             -
 -------------------------------------------------------------------------------
    M  x    N  x    K                                          COUNT     PERCENT
 -------------------------------------------------------------------------------

 -------------------------------------------------------------------------------
 -                                                                             -
 -                                GRID STATISTICS                              -
 -                                                                             -
 -------------------------------------------------------------------------------
 LP    KERNEL             BACKEND                              COUNT     PERCENT
 2     collocate ortho    CPU                               11475100      28.83%
 2     integrate ortho    CPU                               11475100      28.83%
 3     collocate ortho    CPU                                7376670      18.53%
 3     integrate ortho    CPU                                7376670      18.53%
 4     collocate ortho    CPU                                1048656       2.63%
 4     integrate ortho    CPU                                1048656       2.63%
 0     collocate general  CPU                                   6144       0.02%
 -------------------------------------------------------------------------------

 MEMORY| Estimated peak process memory [MiB]                                 590

 -------------------------------------------------------------------------------
 -                                                                             -
 -                         MESSAGE PASSING PERFORMANCE                         -
 -                                                                             -
 -------------------------------------------------------------------------------

 ROUTINE             CALLS      AVE VOLUME [Bytes]
 MP_Group                5
 MP_Bcast           464220                   1727.
 MP_Allreduce      1152730                    514.
 MP_Sync                 5
 MP_Alltoall           369                 149666.
 MP_SendRecv          1302                  18832.
 MP_ISendRecv         1302                  18832.
 MP_Wait              3696
 MP_ISend             2166                 108220.
 MP_IRecv             2166                 108236.
 -------------------------------------------------------------------------------


 -------------------------------------------------------------------------------
 -                                                                             -
 -                           R E F E R E N C E S                               -
 -                                                                             -
 -------------------------------------------------------------------------------
 
 CP2K version 2024.3 (Development Version), the CP2K developers group (2024).
 CP2K is freely available from https://www.cp2k.org/ .
 
 T. D. Kuehne, M. Iannuzzi, M. Del Ben, V. V. Rybkin, P. Seewald, F. Stein, T. 
 Laino, R. Z. Khaliullin, O. Schuett, F. Schiffmann, D. Golze, J. Wilhelm, S. 
 Chulkov, M. H. Bani-Hashemian, V. Weber, U. Borstnik, M. Taillefumier, A. S. 
 Jakobovits, A. Lazzaro, H. Pabst, T. Mueller, R. Schade, M. Guidon, S. 
 Andermatt, N. Holmberg, G. K. Schenter, A. Hehn, A. Bussy, F. Belleflamme, G. 
 Tabacchi, A. Gloess, M. Lass, I. Bethune, C. J. Mundy, C. Plessl, M. Watkins, 
 J. VandeVondele, M. Krack, J. Hutter.
 J. Chem. Phys. 152, 194103 (2020).
 CP2K: An electronic structure and molecular dynamics software package - 
 Quickstep: Efficient and accurate electronic structure calculations.
 https://doi.org/10.1063/5.0007045

 O. Schuett, J. VandeVondele.
 J. Chem. Theory Comput. 14, 4168-4175 (2018).
 Machine Learning Adaptive Basis Sets for Efficient Large Scale Density 
 Functional Theory Simulation.
 https://doi.org/10.1021/acs.jctc.8b00378

 O. Schuett, P. Messmer, J. Hutter, J. VandeVondele.
 Electronic Structure Calculations on Graphics Processing Units, 173-190 (2016).
 GPU-Accelerated Sparse Matrix-Matrix Multiplication for Linear Scaling Density 
 Functional Theory.
 https://doi.org/10.1002/9781118670712.ch8

 A. Heinecke, G. Henry, M. Hutchinson, H. Pabst.
 Proceedings of Intl. Supercomputing Conference, 981-991 (2016).
 LIBXSMM: Accelerating Small Matrix Multiplications by Runtime Code Generation.
 https://doi.org/10.1109/SC.2016.83

 J. Hutter, M. Iannuzzi, F. Schiffmann, J. VandeVondele.
 WIREs Comput Mol Sci. 4, 15-25 (2014).
 CP2K: atomistic simulations of condensed matter systems.
 https://doi.org/10.1002/wcms.1159

 U. Borstnik, J. VandeVondele, V. Weber, J. Hutter.
 Parallel Comput. 40, 47-58 (2014).
 Sparse matrix multiplication: The distributed block-compressed sparse row 
 library.
 https://doi.org/10.1016/j.parco.2014.03.012

 A. Marek, V. Blum, R. Johanni, V. Havu, B. Lang, T. Auckenthaler, A. Heinecke, 
 H. Bungartz, H. Lederer.
 J. Phys. Condens. Matter 26, 213201 (2014).
 The ELPA library: scalable parallel eigenvalue solutions for electronic 
 structure theory and computational science.
 https://doi.org/10.1088/0953-8984/26/21/213201

 J. VandeVondele, U. Borstnik, J. Hutter.
 J. Chem. Theory Comput. 8, 3565-3573 (2012).
 Linear Scaling Self-Consistent Field Calculations with Millions of Atoms in the 
 Condensed Phase.
 https://doi.org/10.1021/ct200897x

 J. VandeVondele, J. Hutter.
 J. Chem. Phys. 127, 114105 (2007).
 Gaussian basis sets for accurate calculations on molecular systems in gas and 
 condensed phases.
 https://doi.org/10.1063/1.2770708

 J. VandeVondele, M. Krack, F. Mohamed, M. Parrinello, T. Chassaing, J. Hutter.
 Comput. Phys. Commun. 167, 103-128 (2005).
 QUICKSTEP: Fast and accurate density functional calculations using a mixed 
 Gaussian and plane waves approach.
 https://doi.org/10.1016/j.cpc.2004.12.014

 M. Krack.
 Theor. Chem. Acc. 114, 145-152 (2005).
 Pseudopotentials for H to Kr optimized for gradient-corrected 
 exchange-correlation functionals.
 https://doi.org/10.1007/s00214-005-0655-y

 M. Frigo, S. G. Johnson.
 Proc. IEEE 93, 216-231 (2005).
 The design and implementation of FFTW3.
 https://doi.org/10.1109/JPROC.2004.840301

 A. M. N. Niklasson, C. J. Tymczak, M. Challacombe.
 J. Chem. Phys. 118, 8611-8620 (2003).
 Trace resetting density matrix purification in O(N) self-consistent-field 
 theory.
 https://doi.org/10.1063/1.1559913

 C. Hartwigsen, S. Goedecker, J. Hutter.
 Phys. Rev. B 58, 3641-3662 (1998).
 Relativistic separable dual-space Gaussian pseudopotentials from H to Rn.
 https://doi.org/10.1103/PhysRevB.58.3641

 G. Lippert, J. Hutter, M. Parrinello.
 Mol. Phys. 92, 477-487 (1997).
 A hybrid Gaussian and plane wave density functional scheme.
 https://doi.org/10.1080/002689797170220

 S. Goedecker, M. Teter, J. Hutter.
 Phys. Rev. B 54, 1703-1710 (1996).
 Separable dual-space Gaussian pseudopotentials.
 https://doi.org/10.1103/PhysRevB.54.1703

 J. P. Perdew, K. Burke, M. Ernzerhof.
 Phys. Rev. Lett. 77, 3865-3868 (1996).
 Generalized gradient approximation made simple.
 https://doi.org/10.1103/PhysRevLett.77.3865


 -------------------------------------------------------------------------------
 -                                                                             -
 -                                T I M I N G                                  -
 -                                                                             -
 -------------------------------------------------------------------------------
 SUBROUTINE                       CALLS  ASD         SELF TIME        TOTAL TIME
                                MAXIMUM       AVERAGE  MAXIMUM  AVERAGE  MAXIMUM
 CP2K                                 1  1.0    0.013    0.017  471.136  471.140
 qs_energies                          1  2.0    0.000    0.000  470.970  470.973
 ls_scf                               1  3.0    0.000    0.000  469.793  469.796
 pao_update                           6  4.0    0.006    0.026  443.355  443.358
 pao_calc_energy                    829  5.0    0.003    0.019  399.304  399.308
 dbcsr_multiply_generic           50962  8.4    1.423    1.587  358.214  358.436
 multiply_cannon                  50962  9.4    2.663    3.113  290.000  295.690
 multiply_cannon_loop             50962 10.4    1.922    2.143  279.196  282.858
 ls_scf_init_matrix_S               835  7.0    0.009    0.010  219.315  219.360
 pao_rebuild_S                      829  6.0    0.003    0.003  217.730  217.774
 matrix_sqrt_Newton_Schulz          835  8.0    0.173    0.299  203.628  203.687
 multiply_cannon_multrec         407696 11.4  181.328  183.391  182.161  184.222
 pao_dm_trs4                        829  6.0    0.006    0.007  181.185  181.215
 density_matrix_trs4                842  7.0    0.216    0.365  175.006  175.090
 mp_waitall_1                   3263098 12.6   93.584   99.445   93.584   99.445
 multiply_cannon_metrocomm3      407696 11.4    0.717    0.776   75.329   79.454
 arnoldi_extremal                  1677  8.5    0.013    0.014   77.253   77.296
 arnoldi_normal_ev                 1677  9.5    0.042    0.074   77.237   77.279
 build_subspace                    7513 10.5    0.455    0.488   67.656   67.699
 dbcsr_matrix_vector_mult        228744 11.5    0.978    1.483   63.394   64.166
 dbcsr_matrix_vector_mult_local  228744 12.5   53.987   54.541   54.242   54.797
 make_m2s                        101924  9.4    0.560    0.729   52.528   53.558
 make_images                     101924 10.4    7.512    7.779   51.135   52.213
 pao_calc_AB                       1100  5.8    0.002    0.002   43.581   43.583
 pao_calc_AB_equi                  1100  6.8    0.041    0.101   43.579   43.581
 pao_calc_grad_lnv_wrt_AB           270  7.0    0.020    0.024   43.161   43.190
 make_images_data                101924 11.4    0.885    1.011   22.554   24.527
 ls_scf_main                          6  4.0    0.000    0.001   23.153   23.154
 hybrid_alltoall_any             103590 12.4    0.922    1.807   17.715   21.352
 ls_scf_dm_to_ks                     13  5.0    0.000    0.000   20.282   20.284
 matrix_qs_to_ls                   1677  7.5    0.017    0.022   17.713   17.853
 mp_sum_l                        208243  9.5    8.005   15.326    8.005   15.326
 calculate_norms                 761280 11.4   11.886   12.563   11.886   12.563
 qs_ks_update_qs_env                 14  6.0    0.000    0.000   12.172   12.174
 rebuild_ks_matrix                   14  7.0    0.000    0.000   12.162   12.164
 qs_ks_build_kohn_sham_matrix        14  8.0    0.002    0.003   12.161   12.164
 make_images_pack                101924 11.4   11.336   11.663   11.473   11.804
 dbcsr_multiply_generic_mpsum_f   37412  9.5    0.027    0.033    4.762   10.235
 qs_rho_update_rho_low               14  6.0    0.000    0.000    9.586    9.588
 calculate_rho_elec                  14  7.0    0.005    0.005    9.586    9.588
 -------------------------------------------------------------------------------

 The number of warnings for this run is : 1
 
 -------------------------------------------------------------------------------
  **** **** ******  **  PROGRAM ENDED AT                 2024-09-24 03:22:47.754
 ***** ** ***  *** **   PROGRAM RAN ON                                    moritz
 **    ****   ******    PROGRAM RAN BY                                       ole
 ***** **    ** ** **   PROGRAM PROCESS ID                                167605
  **** **  *******  **  PROGRAM STOPPED IN /home/ole/git/pao_ml_equivar/64H2O_MD
                                           /Frame4000
