 DBCSR| CPU Multiplication driver                                           BLAS
 DBCSR| Multrec recursion limit                                              512
 DBCSR| Multiplication stack size                                           1000
 DBCSR| Maximum elements for images                                    UNLIMITED
 DBCSR| Multiplicative factor virtual images                                   1
 DBCSR| Use multiplication densification                                       T
 DBCSR| Multiplication size stacks                                             3


  **** **** ******  **  PROGRAM STARTED AT               2019-03-28 17:31:45.746
 ***** ** ***  *** **   PROGRAM STARTED ON        oleschuett.zrh.corp.google.com
 **    ****   ******    PROGRAM STARTED BY                            oleschuett
 ***** **    ** ** **   PROGRAM PROCESS ID                                 29191
  **** **  *******  **  PROGRAM STARTED IN /usr/local/google/home/oleschuett/git
                                           /pao_ml_equivar/2H2O_rotations/phi_01

 CP2K| version string:                    CP2K version 7.0 (Development Version)
 CP2K| source code revision number:                                git:d9814d431
 CP2K| cp2kflags: libint fftw3 libxc libderiv_max_am1=5 libint_max_am=6         
 CP2K| is freely available from                            https://www.cp2k.org/
 CP2K| Program compiled at                          Mon Mar 25 16:50:07 CET 2019
 CP2K| Program compiled on                        oleschuett.zrh.corp.google.com
 CP2K| Program compiled for                                                local
 CP2K| Data directory path       /usr/local/google/home/oleschuett/git/cp2k/data
 CP2K| Input file name                                            2H2O_pao44.inp

 GLOBAL| Force Environment number                                              1
 GLOBAL| Basis set file name                                        BASIS_MOLOPT
 GLOBAL| Potential file name                                      GTH_POTENTIALS
 GLOBAL| MM Potential file name                                     MM_POTENTIAL
 GLOBAL| Coordinate file name                                         coords.xyz
 GLOBAL| Method name                                                        CP2K
 GLOBAL| Project name                                                 2H2O_pao44
 GLOBAL| Preferred FFT library                                             FFTW3
 GLOBAL| Preferred diagonalization lib.                                       SL
 GLOBAL| Run type                                                         ENERGY
 GLOBAL| All-to-all communication in single precision                          F
 GLOBAL| FFTs using library dependent lengths                                  F
 GLOBAL| Global print level                                                  LOW
 GLOBAL| MPI I/O enabled                                                       T
 GLOBAL| Total number of message passing processes                             1
 GLOBAL| Number of threads for this process                                    1
 GLOBAL| This output is from process                                           0
 GLOBAL| CPU model name :  Intel(R) Xeon(R) CPU E5-1650 v4 @ 3.60GHz

 MEMORY| system memory details [Kb]
 MEMORY|                        rank 0           min           max       average
 MEMORY| MemTotal             65953612      65953612      65953612      65953612
 MEMORY| MemFree               6668716       6668716       6668716       6668716
 MEMORY| Buffers               2547996       2547996       2547996       2547996
 MEMORY| Cached               25385676      25385676      25385676      25385676
 MEMORY| Slab                  3623792       3623792       3623792       3623792
 MEMORY| SReclaimable          2422904       2422904       2422904       2422904
 MEMORY| MemLikelyFree        37025292      37025292      37025292      37025292


 GENERATE|  Preliminary Number of Bonds generated:                             0
 GENERATE|  Achieved consistency in connectivity generation.

 *******************************************************************************
 *******************************************************************************
 **                                                                           **
 **     #####                         ##              ##                      **
 **    ##   ##            ##          ##              ##                      **
 **   ##     ##                       ##            ######                    **
 **   ##     ##  ##   ##  ##   #####  ##  ##   ####   ##    #####    #####    **
 **   ##     ##  ##   ##  ##  ##      ## ##   ##      ##   ##   ##  ##   ##   **
 **   ##  ## ##  ##   ##  ##  ##      ####     ###    ##   ######   ######    **
 **    ##  ###   ##   ##  ##  ##      ## ##      ##   ##   ##       ##        **
 **     #######   #####   ##   #####  ##  ##  ####    ##    #####   ##        **
 **           ##                                                    ##        **
 **                                                                           **
 **                                                ... make the atoms dance   **
 **                                                                           **
 **            Copyright (C) by CP2K developers group (2000 - 2018)           **
 **                                                                           **
 *******************************************************************************


 TOTAL NUMBERS AND MAXIMUM NUMBERS

  Total number of            - Atomic kinds:                                   2
                             - Atoms:                                          6
                             - Shell sets:                                     6
                             - Shells:                                        22
                             - Primitive Cartesian functions:                 42
                             - Cartesian basis functions:                     48
                             - Spherical basis functions:                     46

  Maximum angular momentum of- Orbital basis functions:                        2
                             - Local part of the GTH pseudopotential:          2
                             - Non-local part of the GTH pseudopotential:      0

 ------------------------------ Linear scaling SCF -----------------------------
 eps_scf:                                                              0.100E-07
 eps_filter:                                                           0.100E-07
 mixing_fraction:                                                      0.450E+00
 max_scf:                                                                     25
 fixed chemical potential (mu)                                                 F
 has unit metric:                                                              F
 Computing inv(S):                                                             T
 Computing sqrt(S):                                                            T
 Computing s preconditioner                                                    F
 sign sqrt order:                                                              3
 Extrapolation order:                                                          1
 Use single precision matrices                                                 F
 S preconditioner type                                                      NONE
 Polarized Atomic Orbitals (PAO)                                               T
 Purification method                                   Trace resetting 4th order
 Cluster type                                                             ATOMIC
 Computing Chebyshev                                                       FALSE
 Using PAO                                                                     T
 -------------------------------------------------------------------------------

 
 PAO|                                  EPS_PAO                           0.1E-04
 PAO|                                  MIXING                            0.5E+00
 PAO|                                  MAX_PAO                              1000
 PAO|                                  MAX_CYCLES                           1000
 PAO|                                  PARAMETERIZATION                   DIRECT
 PAO|                                  PRECONDITION                            F
 PAO|                                  REGULARIZATION                    0.0E+00
 PAO|                                  EPS_PGF                           0.1E-09
 PAO|                                  PENALTY_DISTANCE                  0.1E+00
 PAO|                                  PENALTY_STRENGTH                  0.5E-02
 PAO|                                  LINPOT_PRECONDITION_DELTA         0.0E+00
 PAO|                                  LINPOT_INITGUESS_DELT             0.0E+00
 PAO|                                  LINPOT_REGULARIZATION_DELTA       0.0E+00
 PAO|                                  LINPOT_REGULARIZATION_STRENGTH    0.0E+00
 PAO|                                  OPTIMIZER                              CG
 PAO|                                  CG_INIT_STEPS                           2
 PAO|                                  CG_RESET_LIMIT                    0.1E+00
 PAO|                                  CHECK_UNITARY_TOL                -0.1E+01
 PAO|                                  CHECK_GRADIENT_TOL               -0.1E+01
 PAO|                                  NUM_GRADIENT_ORDER                      2
 PAO|                                  NUM_GRADIENT_EPS                  0.1E-07
 PAO|                                  PRINT%RESTART%WRITE_CYCLES            100
 PAO|                                  RESTART_FILE 
 PAO|                                  PREOPT_DM_FILE 2H2O_ref_LS_DM_SPIN_1_RESTART.dm
 PAO|                                  MACHINE_LEARNING%METHOD        GAUSSIAN_P
 PAO|                                  MACHINE_LEARNING%PRIOR               ZERO
 PAO|                                  MACHINE_LEARNING%DESCRIPTOR     POTENTIAL
 PAO|                                  MACHINE_LEARNING%TOLERANCE        0.1E-01
 PAO|                                  MACHINE_LEARNING%GP_NOISE_VAR     0.1E+00
 PAO|                                  MACHINE_LEARNING%GP_SCALE         0.5E-01
 

 Calculating atomic Fock matrix for atomic kind: O

 Electronic structure
    Total number of core electrons                                          2.00
    Total number of valence electrons                                       6.00
    Total number of electrons                                               8.00
    Multiplicity                                                   not specified
    S   [  2.00] 2.00
    P      4.00


 *******************************************************************************
                  Iteration          Convergence                     Energy [au]
 *******************************************************************************
                          1        0.708315                     -15.576645311500
                          2        0.608879                     -15.587933561584
                          3        0.102828E-01                 -15.656849565404
                          4        0.113889E-02                 -15.656866888140
                          5        0.434197E-03                 -15.656867072159
                          6        0.263771E-03                 -15.656867091904
                          7        0.478536E-06                 -15.656867103452

 Energy components [Hartree]           Total Energy ::          -15.656867103452
                                        Band Energy ::           -3.000198112285
                                     Kinetic Energy ::           11.759971203220
                                   Potential Energy ::          -27.416838306672
                                      Virial (-V/T) ::            2.331369510426
                                        Core Energy ::          -26.140716385623
                                          XC Energy ::           -3.154051012914
                                     Coulomb Energy ::           13.637900295084
                       Total Pseudopotential Energy ::          -37.935781716540
                       Local Pseudopotential Energy ::          -39.218907440693
                    Nonlocal Pseudopotential Energy ::            1.283125724153
                                        Confinement ::            0.350941276976

 Orbital energies  State     L     Occupation   Energy[a.u.]          Energy[eV]

                       1     0          2.000      -0.864471          -23.523463

                       1     1          4.000      -0.317814           -8.648154


 Total Electron Density at R=0:                                         0.000068

 Calculating atomic Fock matrix for atomic kind: H

 Electronic structure
    Total number of core electrons                                          0.00
    Total number of valence electrons                                       1.00
    Total number of electrons                                               1.00
    Multiplicity                                                   not specified
    S      1.00


 *******************************************************************************
                  Iteration          Convergence                     Energy [au]
 *******************************************************************************
                          1        0.437545E-02                  -0.424159432110
                          2        0.531356E-03                  -0.424178438213
                          3        0.259176E-06                  -0.424178722480

 Energy components [Hartree]           Total Energy ::           -0.424178722480
                                        Band Energy ::           -0.199015229016
                                     Kinetic Energy ::            0.464007633961
                                   Potential Energy ::           -0.888186356441
                                      Virial (-V/T) ::            1.914163240935
                                        Core Energy ::           -0.479160803564
                                          XC Energy ::           -0.244352904054
                                     Coulomb Energy ::            0.299334985138
                       Total Pseudopotential Energy ::           -0.962295316385
                       Local Pseudopotential Energy ::           -0.962295316385
                    Nonlocal Pseudopotential Energy ::            0.000000000000
                                        Confinement ::            0.191268788606

 Orbital energies  State     L     Occupation   Energy[a.u.]          Energy[eV]

                       1     0          1.000      -0.199015           -5.415480


 Total Electron Density at R=0:                                         0.242907
 PAO| Made initial guess for matrix_X with norm:   4.8989794855663558     

     Lanczos converged:  T threshold:   0.100E-02
     Est. extremal eigenvalues:    0.335E+01   0.114E+00
     Est. condition number :    0.294E+02
     NS sqrt iter    1 1.00000000   0.819E+00       0.002       37.876
     NS sqrt iter    2 1.00000000   0.440E+00       0.002       63.513
     NS sqrt iter    3 1.00000000   0.171E+00       0.002       67.160
     NS sqrt iter    4 1.00000000   0.207E-01       0.002       72.106
     NS sqrt iter    5 1.00000000   0.539E-04       0.018        5.104
     Final NS sqrt iter    5 1.00000000   0.289E-08

 PAO| Read restart DM 2H2O_ref_LS_DM_SPIN_1_RESTART.dm with checksum:    50.286626224840411     
 PAO| Quickstep energy from restart density:  -34.450138963141043     
 PAO| ======================= Iteration:         1 =============================

     Lanczos converged:  T threshold:   0.100E-02
     Est. extremal eigenvalues:    0.335E+01   0.114E+00
     Est. condition number :    0.294E+02
     NS sqrt iter    1 1.00000000   0.819E+00       0.002       40.871
     NS sqrt iter    2 1.00000000   0.440E+00       0.002       63.340
     NS sqrt iter    3 1.00000000   0.171E+00       0.002       64.903
     NS sqrt iter    4 1.00000000   0.207E-01       0.002       63.290
     NS sqrt iter    5 1.00000000   0.539E-04       0.002       55.048
     Final NS sqrt iter    5 1.00000000   0.289E-08

     Est. extremal eigenvalues     -0.92073     1.89565  converged:  T
     TRS4 it   1 1.00000000   0.883E+00       0.001       16.128   0.100E-07
     TRS4 it   2 1.00000000   0.694E+00       0.003       10.488   0.100E-07
     TRS4 it   3 1.00000000   0.501E+00       0.001       32.256   0.100E-07
     TRS4 it   4 1.00000000   0.314E+00       0.001       32.256   0.100E-07
     TRS4 it   5 1.00000000   0.156E+00       0.001       32.256   0.100E-07
     TRS4 it   6 1.00000000   0.493E-01       0.001       32.256   0.100E-07
     TRS4 it   7 1.00000000   0.695E-02       0.001       32.256   0.100E-07
     TRS4 it   8 1.00000000   0.194E-03       0.001       32.256   0.100E-07
     TRS4 it   9 1.00000000   0.167E-06       0.001       32.256   0.100E-07
     TRS4 it  10 1.00000000   0.126E-12       0.001       32.256   0.100E-07
     Final TRS4 iteration   10 1.00000000   0.126E-12
     Chemical potential (mu):      -0.06650
 
 PAO| energy:  -7.6327797878520398      penalty:   4.3140830754274094E-033
 PAO|CG| warming up with steepest descent
 PAO|CG| beta:    0.0000000000000000     
 PAO| norm of gradient:  0.78327810012990295     
 PAO|LS| adapt:  T F F
 PAO|LS| adapt: scan_steps:    0.0000000000000000        0.0000000000000000        0.0000000000000000     
 PAO|LS| adapt: energies:   -7.6327797878520398        0.0000000000000000        0.0000000000000000     
 PAO| ======================= Iteration:         2 =============================

     Lanczos converged:  T threshold:   0.100E-02
     Est. extremal eigenvalues:    0.326E+01   0.127E+00
     Est. condition number :    0.257E+02
     NS sqrt iter    1 1.00000000   0.803E+00       0.002       41.359
     NS sqrt iter    2 1.00000000   0.425E+00       0.002       64.429
     NS sqrt iter    3 1.00000000   0.153E+00       0.002       63.669
     NS sqrt iter    4 1.00000000   0.143E-01       0.002       64.235
     NS sqrt iter    5 1.00000000   0.171E-04       0.002       51.418
     Final NS sqrt iter    5 1.00000000   0.443E-09

     Est. extremal eigenvalues     -0.92440     1.83975  converged:  T
     TRS4 it   1 1.00000000   0.880E+00       0.001       16.128   0.100E-07
     TRS4 it   2 1.00000000   0.675E+00       0.001       32.256   0.100E-07
     TRS4 it   3 1.00000000   0.485E+00       0.001       32.256   0.100E-07
     TRS4 it   4 1.00000000   0.294E+00       0.001       32.256   0.100E-07
     TRS4 it   5 1.00000000   0.136E+00       0.001       32.256   0.100E-07
     TRS4 it   6 1.00000000   0.380E-01       0.001       32.256   0.100E-07
     TRS4 it   7 1.00000000   0.418E-02       0.001       32.256   0.100E-07
     TRS4 it   8 1.00000000   0.707E-04       0.001       32.256   0.100E-07
     TRS4 it   9 1.00000000   0.222E-07       0.001       32.256   0.100E-07
     Final TRS4 iteration    9 1.00000000   0.222E-07
     Chemical potential (mu):      -0.05445
 
 PAO| energy:  -7.6882543318225434      penalty:   2.2468819317129783E-008
 PAO|LS| adapt:  T T F
 PAO|LS| adapt: scan_steps:    0.0000000000000000       0.10000000000000001        0.0000000000000000     
 PAO|LS| adapt: energies:   -7.6327797878520398       -7.6882543318225434        0.0000000000000000     
 PAO| ======================= Iteration:         3 =============================

     Lanczos converged:  T threshold:   0.100E-02
     Est. extremal eigenvalues:    0.317E+01   0.138E+00
     Est. condition number :    0.229E+02
     NS sqrt iter    1 1.00000000   0.786E+00       0.002       41.243
     NS sqrt iter    2 1.00000000   0.408E+00       0.002       62.731
     NS sqrt iter    3 1.00000000   0.136E+00       0.002       64.588
     NS sqrt iter    4 1.00000000   0.982E-02       0.002       62.804
     NS sqrt iter    5 1.00000000   0.564E-05       0.002       51.329
     Final NS sqrt iter    5 1.00000000   0.485E-10

     Est. extremal eigenvalues     -0.92783     1.79410  converged:  T
     TRS4 it   1 1.00000000   0.876E+00       0.001       16.128   0.100E-07
     TRS4 it   2 1.00000000   0.658E+00       0.001       32.256   0.100E-07
     TRS4 it   3 1.00000000   0.469E+00       0.001       32.256   0.100E-07
     TRS4 it   4 1.00000000   0.274E+00       0.001       32.256   0.100E-07
     TRS4 it   5 1.00000000   0.118E+00       0.001       32.256   0.100E-07
     TRS4 it   6 1.00000000   0.283E-01       0.001       32.256   0.100E-07
     TRS4 it   7 1.00000000   0.232E-02       0.001       32.256   0.100E-07
     TRS4 it   8 1.00000000   0.219E-04       0.001       32.256   0.100E-07
     TRS4 it   9 1.00000000   0.213E-08       0.001       32.256   0.100E-07
     Final TRS4 iteration    9 1.00000000   0.213E-08
     Chemical potential (mu):      -0.04142
 
 PAO| energy:  -7.7313148809697632      penalty:   3.5950110736199060E-007
 PAO|LS| adapt:  T T F
 PAO|LS| adapt: scan_steps:    0.0000000000000000       0.20000000000000001        0.0000000000000000     
 PAO|LS| adapt: energies:   -7.6327797878520398       -7.7313148809697632        0.0000000000000000     
 PAO| ======================= Iteration:         4 =============================

     Lanczos converged:  T threshold:   0.100E-02
     Est. extremal eigenvalues:    0.298E+01   0.157E+00
     Est. condition number :    0.190E+02
     NS sqrt iter    1 1.00000000   0.749E+00       0.002       40.919
     NS sqrt iter    2 1.00000000   0.374E+00       0.002       63.884
     NS sqrt iter    3 1.00000000   0.106E+00       0.002       64.109
     NS sqrt iter    4 1.00000000   0.478E-02       0.002       63.403
     NS sqrt iter    5 1.00000000   0.789E-06       0.002       51.597
     Final NS sqrt iter    5 1.00000000   0.103E-11

     Est. extremal eigenvalues     -0.93317     1.72652  converged:  T
     TRS4 it   1 1.00000000   0.871E+00       0.001       16.128   0.100E-07
     TRS4 it   2 1.00000000   0.630E+00       0.001       32.256   0.100E-07
     TRS4 it   3 1.00000000   0.439E+00       0.001       32.256   0.100E-07
     TRS4 it   4 1.00000000   0.237E+00       0.001       32.256   0.100E-07
     TRS4 it   5 1.00000000   0.861E-01       0.001       32.256   0.100E-07
     TRS4 it   6 1.00000000   0.145E-01       0.001       32.256   0.100E-07
     TRS4 it   7 1.00000000   0.582E-03       0.001       32.256   0.100E-07
     TRS4 it   8 1.00000000   0.134E-05       0.001       32.256   0.100E-07
     TRS4 it   9 1.00000000   0.798E-11       0.001       32.256   0.100E-07
     Final TRS4 iteration    9 1.00000000   0.798E-11
     Chemical potential (mu):      -0.01263
 
 PAO| energy:  -7.7785689753749967      penalty:   5.7520177041078595E-006
 PAO|LS| Need extra step
 PAO|LS| adapt:  T T F
 PAO|LS| adapt: scan_steps:    0.0000000000000000       0.40000000000000002        0.0000000000000000     
 PAO|LS| adapt: energies:   -7.6327797878520398       -7.7785689753749967        0.0000000000000000     
 PAO| ======================= Iteration:         5 =============================

     Lanczos converged:  T threshold:   0.100E-02
     Est. extremal eigenvalues:    0.263E+01   0.184E+00
     Est. condition number :    0.143E+02
     NS sqrt iter    1 1.00000000   0.687E+00       0.002       40.960
     NS sqrt iter    2 1.00000000   0.313E+00       0.002       63.330
     NS sqrt iter    3 1.00000000   0.656E-01       0.002       54.039
     NS sqrt iter    4 1.00000000   0.131E-02       0.002       62.486
     NS sqrt iter    5 1.00000000   0.216E-07       0.002       29.818
     Final NS sqrt iter    5 1.00000000   0.266E-08

     Est. extremal eigenvalues     -0.93443     1.64923  converged:  T
     TRS4 it   1 1.00000000   0.863E+00       0.001       16.128   0.100E-07
     TRS4 it   2 1.00000000   0.592E+00       0.001       26.874   0.100E-07
     TRS4 it   3 1.00000000   0.389E+00       0.001       31.485   0.100E-07
     TRS4 it   4 1.00000000   0.179E+00       0.001       30.870   0.100E-07
     TRS4 it   5 1.00000000   0.457E-01       0.001       28.962   0.100E-07
     TRS4 it   6 1.00000000   0.366E-02       0.001       30.535   0.100E-07
     TRS4 it   7 1.00000000   0.304E-04       0.001       31.648   0.100E-07
     TRS4 it   8 1.00000000   0.265E-08       0.001       26.094   0.100E-07
     Final TRS4 iteration    8 1.00000000   0.265E-08
     Chemical potential (mu):       0.03803
 
 PAO| energy:  -7.7237949174115057      penalty:   9.2032283156303095E-005
 PAO|LS| Need extra step
 PAO|LS| adapt:  T T T
 PAO|LS| adapt: scan_steps:    0.0000000000000000       0.40000000000000002       0.80000000000000004     
 PAO|LS| adapt: energies:   -7.6327797878520398       -7.7785689753749967       -7.7237949174115057     
 PAO|LS| adapt: suggested step_size:   0.49075953008111428     
 PAO|LS| adapt: predicted energy  -7.7837317818681768     
 PAO| ======================= Iteration:         6 =============================

     Lanczos converged:  T threshold:   0.100E-02
     Est. extremal eigenvalues:    0.289E+01   0.164E+00
     Est. condition number :    0.177E+02
     NS sqrt iter    1 1.00000000   0.733E+00       0.002       38.171
     NS sqrt iter    2 1.00000000   0.359E+00       0.003       39.313
     NS sqrt iter    3 1.00000000   0.949E-01       0.002       58.079
     NS sqrt iter    4 1.00000000   0.351E-02       0.002       60.551
     NS sqrt iter    5 1.00000000   0.344E-06       0.002       49.712
     Final NS sqrt iter    5 1.00000000   0.145E-09

     Est. extremal eigenvalues     -0.93466     1.70366  converged:  T
     TRS4 it   1 1.00000000   0.869E+00       0.001       16.128   0.100E-07
     TRS4 it   2 1.00000000   0.620E+00       0.001       32.256   0.100E-07
     TRS4 it   3 1.00000000   0.426E+00       0.001       28.317   0.100E-07
     TRS4 it   4 1.00000000   0.222E+00       0.001       32.256   0.100E-07
     TRS4 it   5 1.00000000   0.742E-01       0.001       32.256   0.100E-07
     TRS4 it   6 1.00000000   0.105E-01       0.001       25.891   0.100E-07
     TRS4 it   7 1.00000000   0.290E-03       0.001       30.243   0.100E-07
     TRS4 it   8 1.00000000   0.318E-06       0.001       25.102   0.100E-07
     TRS4 it   9 1.00000000   0.449E-12       0.001       32.256   0.100E-07
     Final TRS4 iteration    9 1.00000000   0.449E-12
     Chemical potential (mu):       0.00136
 
 PAO| energy:  -7.7830185707181885      penalty:   1.3033324740224034E-005
 PAO|CG| warming up with steepest descent
 PAO|CG| beta:    0.0000000000000000     
 PAO| norm of gradient:  0.41730441251685774     
 PAO| energy improvement: -0.15023878286614867     
 PAO| step      6                   -7.783018571  0.261E-01  0.491E+00     0.137
 PAO|LS| adapt:  T F F
 PAO|LS| adapt: scan_steps:    0.0000000000000000        0.0000000000000000        0.0000000000000000     
 PAO|LS| adapt: energies:   -7.7830185707181885        0.0000000000000000        0.0000000000000000     
 PAO| ======================= Iteration:         7 =============================

     Lanczos converged:  T threshold:   0.100E-02
     Est. extremal eigenvalues:    0.281E+01   0.177E+00
     Est. condition number :    0.158E+02
     NS sqrt iter    1 1.00000000   0.716E+00       0.002       33.144
     NS sqrt iter    2 1.00000000   0.339E+00       0.002       59.928
     NS sqrt iter    3 1.00000000   0.794E-01       0.002       61.272
     NS sqrt iter    4 1.00000000   0.214E-02       0.002       58.232
     NS sqrt iter    5 1.00000000   0.875E-07       0.002       39.783
     Final NS sqrt iter    5 1.00000000   0.995E-09

     Est. extremal eigenvalues     -0.93639     1.69100  converged:  T
     TRS4 it   1 1.00000000   0.868E+00       0.001       16.128   0.100E-07
     TRS4 it   2 1.00000000   0.618E+00       0.001       32.256   0.100E-07
     TRS4 it   3 1.00000000   0.426E+00       0.001       28.984   0.100E-07
     TRS4 it   4 1.00000000   0.222E+00       0.001       32.256   0.100E-07
     TRS4 it   5 1.00000000   0.748E-01       0.001       32.256   0.100E-07
     TRS4 it   6 1.00000000   0.104E-01       0.001       32.256   0.100E-07
     TRS4 it   7 1.00000000   0.270E-03       0.001       32.256   0.100E-07
     TRS4 it   8 1.00000000   0.261E-06       0.001       32.256   0.100E-07
     TRS4 it   9 1.00000000   0.298E-12       0.001       32.256   0.100E-07
     Final TRS4 iteration    9 1.00000000   0.298E-12
     Chemical potential (mu):       0.00347
 
 PAO| energy:  -7.7772138917351343      penalty:   1.9753834727685680E-005
 PAO|LS| adapt:  T F T
 PAO|LS| adapt: scan_steps:    0.0000000000000000        0.0000000000000000       0.49075953008111428     
 PAO|LS| adapt: energies:   -7.7830185707181885        0.0000000000000000       -7.7772138917351343     
 PAO| ======================= Iteration:         8 =============================

     Lanczos converged:  T threshold:   0.100E-02
     Est. extremal eigenvalues:    0.285E+01   0.170E+00
     Est. condition number :    0.167E+02
     NS sqrt iter    1 1.00000000   0.725E+00       0.002       37.052
     NS sqrt iter    2 1.00000000   0.349E+00       0.002       56.005
     NS sqrt iter    3 1.00000000   0.870E-01       0.002       53.308
     NS sqrt iter    4 1.00000000   0.275E-02       0.002       55.074
     NS sqrt iter    5 1.00000000   0.177E-06       0.002       50.003
     Final NS sqrt iter    5 1.00000000   0.118E-08

     Est. extremal eigenvalues     -0.93647     1.69668  converged:  T
     TRS4 it   1 1.00000000   0.867E+00       0.001       16.128   0.100E-07
     TRS4 it   2 1.00000000   0.619E+00       0.001       32.256   0.100E-07
     TRS4 it   3 1.00000000   0.426E+00       0.001       29.327   0.100E-07
     TRS4 it   4 1.00000000   0.221E+00       0.001       32.256   0.100E-07
     TRS4 it   5 1.00000000   0.743E-01       0.001       29.560   0.100E-07
     TRS4 it   6 1.00000000   0.105E-01       0.002       20.667   0.100E-07
     TRS4 it   7 1.00000000   0.287E-03       0.001       32.256   0.100E-07
     TRS4 it   8 1.00000000   0.307E-06       0.001       32.256   0.100E-07
     TRS4 it   9 1.00000000   0.414E-12       0.001       32.256   0.100E-07
     Final TRS4 iteration    9 1.00000000   0.414E-12
     Chemical potential (mu):       0.00192
 
 PAO| energy:  -7.8026935433403919      penalty:   1.4137806711604317E-005
 PAO|LS| adapt:  T T T
 PAO|LS| adapt: scan_steps:    0.0000000000000000       0.24537976504055714       0.49075953008111428     
 PAO|LS| adapt: energies:   -7.7830185707181885       -7.8026935433403919       -7.7772138917351343     
 PAO|LS| adapt: suggested step_size:   0.22960783924816550     
 PAO|LS| adapt: predicted energy  -7.8027868181120041     
 PAO| ======================= Iteration:         9 =============================

     Lanczos converged:  T threshold:   0.100E-02
     Est. extremal eigenvalues:    0.285E+01   0.170E+00
     Est. condition number :    0.168E+02
     NS sqrt iter    1 1.00000000   0.725E+00       0.002       37.747
     NS sqrt iter    2 1.00000000   0.349E+00       0.002       56.209
     NS sqrt iter    3 1.00000000   0.875E-01       0.002       55.779
     NS sqrt iter    4 1.00000000   0.280E-02       0.002       62.384
     NS sqrt iter    5 1.00000000   0.185E-06       0.002       47.736
     Final NS sqrt iter    5 1.00000000   0.123E-08

     Est. extremal eigenvalues     -0.93641     1.69709  converged:  T
     TRS4 it   1 1.00000000   0.868E+00       0.001       16.128   0.100E-07
     TRS4 it   2 1.00000000   0.619E+00       0.001       32.256   0.100E-07
     TRS4 it   3 1.00000000   0.426E+00       0.001       32.256   0.100E-07
     TRS4 it   4 1.00000000   0.221E+00       0.001       32.256   0.100E-07
     TRS4 it   5 1.00000000   0.742E-01       0.001       32.256   0.100E-07
     TRS4 it   6 1.00000000   0.105E-01       0.001       32.256   0.100E-07
     TRS4 it   7 1.00000000   0.288E-03       0.001       29.687   0.100E-07
     TRS4 it   8 1.00000000   0.309E-06       0.001       32.256   0.100E-07
     TRS4 it   9 1.00000000   0.420E-12       0.001       32.256   0.100E-07
     Final TRS4 iteration    9 1.00000000   0.420E-12
     Chemical potential (mu):       0.00186
 
 PAO| energy:  -7.8028103780916220      penalty:   1.3968765216432317E-005
 PAO|CG| trace_G_new    3.6935827906935420E-002
 PAO|CG| trace_G_prev   0.17414297270603976     
 PAO|CG| trace_G_mix   -1.4472766920205363E-003
 PAO|CG| trace_D   0.17414297270603976     
 PAO|CG| trace_D_Gnew   1.4472766920205363E-003
 PAO|CG| beta:   0.22041144699963378     
 PAO| norm of gradient:  0.19218696081403500     
 PAO| energy improvement:  -1.9791807373433556E-002
 PAO| step      9                   -7.802810378  0.120E-01  0.230E+00     0.089
 PAO|LS| adapt:  T F F
 PAO|LS| adapt: scan_steps:    0.0000000000000000        0.0000000000000000        0.0000000000000000     
 PAO|LS| adapt: energies:   -7.8028103780916220        0.0000000000000000        0.0000000000000000     
 PAO| ======================= Iteration:        10 =============================

     Lanczos converged:  T threshold:   0.100E-02
     Est. extremal eigenvalues:    0.282E+01   0.176E+00
     Est. condition number :    0.160E+02
     NS sqrt iter    1 1.00000000   0.717E+00       0.002       39.340
     NS sqrt iter    2 1.00000000   0.341E+00       0.002       54.771
     NS sqrt iter    3 1.00000000   0.818E-01       0.002       64.061
     NS sqrt iter    4 1.00000000   0.230E-02       0.002       58.132
     NS sqrt iter    5 1.00000000   0.103E-06       0.002       46.350
     Final NS sqrt iter    5 1.00000000   0.111E-08

     Est. extremal eigenvalues     -0.93730     1.69196  converged:  T
     TRS4 it   1 1.00000000   0.866E+00       0.001       16.128   0.100E-07
     TRS4 it   2 1.00000000   0.617E+00       0.001       32.256   0.100E-07
     TRS4 it   3 1.00000000   0.424E+00       0.001       32.256   0.100E-07
     TRS4 it   4 1.00000000   0.219E+00       0.001       32.256   0.100E-07
     TRS4 it   5 1.00000000   0.721E-01       0.001       31.522   0.100E-07
     TRS4 it   6 1.00000000   0.986E-02       0.001       32.256   0.100E-07
     TRS4 it   7 1.00000000   0.249E-03       0.001       32.256   0.100E-07
     TRS4 it   8 1.00000000   0.224E-06       0.001       32.256   0.100E-07
     TRS4 it   9 1.00000000   0.219E-12       0.001       31.685   0.100E-07
     Final TRS4 iteration    9 1.00000000   0.219E-12
     Chemical potential (mu):       0.00510
 
 PAO| energy:  -7.8078549592971891      penalty:   1.4512669122102963E-005
 PAO|LS| adapt:  T T F
 PAO|LS| adapt: scan_steps:    0.0000000000000000       0.22960783924816550        0.0000000000000000     
 PAO|LS| adapt: energies:   -7.8028103780916220       -7.8078549592971891        0.0000000000000000     
 PAO| ======================= Iteration:        11 =============================

     Lanczos converged:  T threshold:   0.100E-02
     Est. extremal eigenvalues:    0.278E+01   0.181E+00
     Est. condition number :    0.153E+02
     NS sqrt iter    1 1.00000000   0.710E+00       0.002       40.098
     NS sqrt iter    2 1.00000000   0.333E+00       0.002       63.372
     NS sqrt iter    3 1.00000000   0.764E-01       0.002       64.013
     NS sqrt iter    4 1.00000000   0.188E-02       0.002       61.874
     NS sqrt iter    5 1.00000000   0.563E-07       0.002       46.257
     Final NS sqrt iter    5 1.00000000   0.420E-09

     Est. extremal eigenvalues     -0.93720     1.68831  converged:  T
     TRS4 it   1 1.00000000   0.864E+00       0.001       16.128   0.100E-07
     TRS4 it   2 1.00000000   0.615E+00       0.001       32.256   0.100E-07
     TRS4 it   3 1.00000000   0.422E+00       0.001       32.256   0.100E-07
     TRS4 it   4 1.00000000   0.216E+00       0.001       32.256   0.100E-07
     TRS4 it   5 1.00000000   0.701E-01       0.001       32.256   0.100E-07
     TRS4 it   6 1.00000000   0.925E-02       0.001       32.256   0.100E-07
     TRS4 it   7 1.00000000   0.215E-03       0.001       28.623   0.100E-07
     TRS4 it   8 1.00000000   0.162E-06       0.001       27.054   0.100E-07
     TRS4 it   9 1.00000000   0.112E-12       0.001       31.758   0.100E-07
     Final TRS4 iteration    9 1.00000000   0.112E-12
     Chemical potential (mu):       0.00849
 
 PAO| energy:  -7.8064181065047693      penalty:   1.5729827418988537E-005
 PAO|LS| adapt:  T T T
 PAO|LS| adapt: scan_steps:    0.0000000000000000       0.22960783924816550       0.45921567849633099     
 PAO|LS| adapt: energies:   -7.8028103780916220       -7.8078549592971891       -7.8064181065047693     
 PAO|LS| adapt: suggested step_size:   0.29351057479976189     
 PAO|LS| adapt: predicted energy  -7.8081059782905760     
 PAO| ======================= Iteration:        12 =============================

     Lanczos converged:  T threshold:   0.100E-02
     Est. extremal eigenvalues:    0.281E+01   0.177E+00
     Est. condition number :    0.158E+02
     NS sqrt iter    1 1.00000000   0.715E+00       0.002       40.564
     NS sqrt iter    2 1.00000000   0.339E+00       0.002       59.373
     NS sqrt iter    3 1.00000000   0.803E-01       0.002       63.660
     NS sqrt iter    4 1.00000000   0.218E-02       0.002       60.992
     NS sqrt iter    5 1.00000000   0.871E-07       0.002       47.314
     Final NS sqrt iter    5 1.00000000   0.923E-09

     Est. extremal eigenvalues     -0.93737     1.69080  converged:  T
     TRS4 it   1 1.00000000   0.865E+00       0.001       16.128   0.100E-07
     TRS4 it   2 1.00000000   0.616E+00       0.001       32.256   0.100E-07
     TRS4 it   3 1.00000000   0.423E+00       0.001       32.256   0.100E-07
     TRS4 it   4 1.00000000   0.218E+00       0.001       32.256   0.100E-07
     TRS4 it   5 1.00000000   0.716E-01       0.001       31.946   0.100E-07
     TRS4 it   6 1.00000000   0.969E-02       0.001       32.256   0.100E-07
     TRS4 it   7 1.00000000   0.239E-03       0.001       32.256   0.100E-07
     TRS4 it   8 1.00000000   0.205E-06       0.001       30.831   0.100E-07
     TRS4 it   9 1.00000000   0.183E-12       0.001       32.256   0.100E-07
     Final TRS4 iteration    9 1.00000000   0.183E-12
     Chemical potential (mu):       0.00603
 
 PAO| energy:  -7.8080898714183595      penalty:   1.4776162701105303E-005
 PAO|CG| trace_G_new    1.1842388645653462E-002
 PAO|CG| trace_G_prev    3.6935827906935420E-002
 PAO|CG| trace_G_mix   -4.5884516071776640E-004
 PAO|CG| trace_D    4.4757910832135400E-002
 PAO|CG| trace_D_Gnew   2.1090014436197439E-004
 PAO|CG| beta:   0.33304340266490773     
 PAO| norm of gradient:  0.10882273956142376     
 PAO| energy improvement:  -5.2794933267374944E-003
 PAO| step     12                   -7.808089871  0.680E-02  0.294E+00     0.085
 PAO|LS| adapt:  T F F
 PAO|LS| adapt: scan_steps:    0.0000000000000000        0.0000000000000000        0.0000000000000000     
 PAO|LS| adapt: energies:   -7.8080898714183595        0.0000000000000000        0.0000000000000000     
 PAO| ======================= Iteration:        13 =============================

     Lanczos converged:  T threshold:   0.100E-02
     Est. extremal eigenvalues:    0.277E+01   0.181E+00
     Est. condition number :    0.153E+02
     NS sqrt iter    1 1.00000000   0.708E+00       0.002       39.652
     NS sqrt iter    2 1.00000000   0.332E+00       0.002       63.961
     NS sqrt iter    3 1.00000000   0.760E-01       0.002       64.928
     NS sqrt iter    4 1.00000000   0.186E-02       0.002       64.601
     NS sqrt iter    5 1.00000000   0.549E-07       0.002       45.856
     Final NS sqrt iter    5 1.00000000   0.417E-09

     Est. extremal eigenvalues     -0.93785     1.68438  converged:  T
     TRS4 it   1 1.00000000   0.865E+00       0.001       16.128   0.100E-07
     TRS4 it   2 1.00000000   0.613E+00       0.001       32.256   0.100E-07
     TRS4 it   3 1.00000000   0.419E+00       0.001       32.256   0.100E-07
     TRS4 it   4 1.00000000   0.213E+00       0.001       32.256   0.100E-07
     TRS4 it   5 1.00000000   0.680E-01       0.001       32.256   0.100E-07
     TRS4 it   6 1.00000000   0.869E-02       0.001       32.256   0.100E-07
     TRS4 it   7 1.00000000   0.189E-03       0.001       32.256   0.100E-07
     TRS4 it   8 1.00000000   0.125E-06       0.001       32.256   0.100E-07
     TRS4 it   9 1.00000000   0.672E-13       0.001       32.256   0.100E-07
     Final TRS4 iteration    9 1.00000000   0.672E-13
     Chemical potential (mu):       0.01068
 
 PAO| energy:  -7.8101581721015130      penalty:   1.5085968382552417E-005
 PAO|LS| adapt:  T T F
 PAO|LS| adapt: scan_steps:    0.0000000000000000       0.29351057479976189        0.0000000000000000     
 PAO|LS| adapt: energies:   -7.8080898714183595       -7.8101581721015130        0.0000000000000000     
 PAO| ======================= Iteration:        14 =============================

     Lanczos converged:  T threshold:   0.100E-02
     Est. extremal eigenvalues:    0.274E+01   0.185E+00
     Est. condition number :    0.148E+02
     NS sqrt iter    1 1.00000000   0.702E+00       0.002       38.186
     NS sqrt iter    2 1.00000000   0.325E+00       0.002       62.418
     NS sqrt iter    3 1.00000000   0.719E-01       0.002       63.729
     NS sqrt iter    4 1.00000000   0.158E-02       0.002       61.344
     NS sqrt iter    5 1.00000000   0.345E-07       0.002       38.282
     Final NS sqrt iter    5 1.00000000   0.329E-09

     Est. extremal eigenvalues     -0.93783     1.67833  converged:  T
     TRS4 it   1 1.00000000   0.864E+00       0.001       16.128   0.100E-07
     TRS4 it   2 1.00000000   0.610E+00       0.001       28.842   0.100E-07
     TRS4 it   3 1.00000000   0.415E+00       0.001       32.256   0.100E-07
     TRS4 it   4 1.00000000   0.208E+00       0.001       31.712   0.100E-07
     TRS4 it   5 1.00000000   0.647E-01       0.001       32.256   0.100E-07
     TRS4 it   6 1.00000000   0.780E-02       0.001       32.256   0.100E-07
     TRS4 it   7 1.00000000   0.150E-03       0.001       32.256   0.100E-07
     TRS4 it   8 1.00000000   0.763E-07       0.001       32.256   0.100E-07
     Final TRS4 iteration    8 1.00000000   0.763E-07
     Chemical potential (mu):       0.01270
 
 PAO| energy:  -7.8095020438964875      penalty:   1.5876484773602806E-005
 PAO|LS| adapt:  T T T
 PAO|LS| adapt: scan_steps:    0.0000000000000000       0.29351057479976189       0.58702114959952378     
 PAO|LS| adapt: energies:   -7.8080898714183595       -7.8101581721015130       -7.8095020438964875     
 PAO|LS| adapt: suggested step_size:   0.36957927998237350     
 PAO|LS| adapt: predicted energy  -7.8102496697689983     
 PAO| ======================= Iteration:        15 =============================

     Lanczos converged:  T threshold:   0.100E-02
     Est. extremal eigenvalues:    0.276E+01   0.182E+00
     Est. condition number :    0.151E+02
     NS sqrt iter    1 1.00000000   0.707E+00       0.002       40.834
     NS sqrt iter    2 1.00000000   0.330E+00       0.004       28.026
     NS sqrt iter    3 1.00000000   0.749E-01       0.002       64.585
     NS sqrt iter    4 1.00000000   0.178E-02       0.002       54.581
     NS sqrt iter    5 1.00000000   0.487E-07       0.002       43.279
     Final NS sqrt iter    5 1.00000000   0.388E-09

     Est. extremal eigenvalues     -0.93789     1.68278  converged:  T
     TRS4 it   1 1.00000000   0.864E+00       0.001       16.128   0.100E-07
     TRS4 it   2 1.00000000   0.612E+00       0.001       32.256   0.100E-07
     TRS4 it   3 1.00000000   0.418E+00       0.001       32.256   0.100E-07
     TRS4 it   4 1.00000000   0.212E+00       0.001       32.256   0.100E-07
     TRS4 it   5 1.00000000   0.671E-01       0.001       30.477   0.100E-07
     TRS4 it   6 1.00000000   0.845E-02       0.001       32.185   0.100E-07
     TRS4 it   7 1.00000000   0.178E-03       0.001       32.256   0.100E-07
     TRS4 it   8 1.00000000   0.110E-06       0.001       27.980   0.100E-07
     TRS4 it   9 1.00000000   0.521E-13       0.001       32.256   0.100E-07
     Final TRS4 iteration    9 1.00000000   0.521E-13
     Chemical potential (mu):       0.01187
 
 PAO| energy:  -7.8102466667557895      penalty:   1.5241670705430209E-005
 PAO|CG| trace_G_new    2.6153357164698013E-003
 PAO|CG| trace_G_prev    1.1842388645653462E-002
 PAO|CG| trace_G_mix    6.6537858187404661E-005
 PAO|CG| trace_D    1.6666364680826502E-002
 PAO|CG| trace_D_Gnew   3.3817287593641642E-005
 PAO|CG| beta:   0.21522666875300428     
 PAO| norm of gradient:   5.1140353112486436E-002
 PAO| energy improvement:  -2.1567953374299620E-003
 PAO| step     15                   -7.810246667  0.320E-02  0.370E+00     0.086
 PAO|LS| adapt:  T F F
 PAO|LS| adapt: scan_steps:    0.0000000000000000        0.0000000000000000        0.0000000000000000     
 PAO|LS| adapt: energies:   -7.8102466667557895        0.0000000000000000        0.0000000000000000     
 PAO| ======================= Iteration:        16 =============================

     Lanczos converged:  T threshold:   0.100E-02
     Est. extremal eigenvalues:    0.275E+01   0.183E+00
     Est. condition number :    0.150E+02
     NS sqrt iter    1 1.00000000   0.705E+00       0.002       35.454
     NS sqrt iter    2 1.00000000   0.329E+00       0.002       63.665
     NS sqrt iter    3 1.00000000   0.743E-01       0.002       63.432
     NS sqrt iter    4 1.00000000   0.173E-02       0.002       58.890
     NS sqrt iter    5 1.00000000   0.446E-07       0.002       44.595
     Final NS sqrt iter    5 1.00000000   0.346E-09

     Est. extremal eigenvalues     -0.93792     1.68259  converged:  T
     TRS4 it   1 1.00000000   0.865E+00       0.001       16.128   0.100E-07
     TRS4 it   2 1.00000000   0.612E+00       0.001       32.256   0.100E-07
     TRS4 it   3 1.00000000   0.417E+00       0.001       32.256   0.100E-07
     TRS4 it   4 1.00000000   0.210E+00       0.001       32.256   0.100E-07
     TRS4 it   5 1.00000000   0.660E-01       0.001       32.256   0.100E-07
     TRS4 it   6 1.00000000   0.819E-02       0.001       32.256   0.100E-07
     TRS4 it   7 1.00000000   0.168E-03       0.001       32.256   0.100E-07
     TRS4 it   8 1.00000000   0.988E-07       0.001       32.256   0.100E-07
     TRS4 it   9 1.00000000   0.417E-13       0.001       32.256   0.100E-07
     Final TRS4 iteration    9 1.00000000   0.417E-13
     Chemical potential (mu):       0.01271
 
 PAO| energy:  -7.8103746478741929      penalty:   1.5022882069821831E-005
 PAO|LS| adapt:  T T F
 PAO|LS| adapt: scan_steps:    0.0000000000000000       0.36957927998237350        0.0000000000000000     
 PAO|LS| adapt: energies:   -7.8102466667557895       -7.8103746478741929        0.0000000000000000     
 PAO| ======================= Iteration:        17 =============================

     Lanczos converged:  T threshold:   0.100E-02
     Est. extremal eigenvalues:    0.275E+01   0.184E+00
     Est. condition number :    0.150E+02
     NS sqrt iter    1 1.00000000   0.703E+00       0.002       40.961
     NS sqrt iter    2 1.00000000   0.328E+00       0.002       62.463
     NS sqrt iter    3 1.00000000   0.736E-01       0.002       63.863
     NS sqrt iter    4 1.00000000   0.168E-02       0.002       62.636
     NS sqrt iter    5 1.00000000   0.410E-07       0.002       42.230
     Final NS sqrt iter    5 1.00000000   0.345E-09

     Est. extremal eigenvalues     -0.93783     1.68248  converged:  T
     TRS4 it   1 1.00000000   0.865E+00       0.001       16.128   0.100E-07
     TRS4 it   2 1.00000000   0.611E+00       0.001       32.256   0.100E-07
     TRS4 it   3 1.00000000   0.416E+00       0.001       31.648   0.100E-07
     TRS4 it   4 1.00000000   0.209E+00       0.001       32.256   0.100E-07
     TRS4 it   5 1.00000000   0.650E-01       0.001       32.256   0.100E-07
     TRS4 it   6 1.00000000   0.793E-02       0.001       32.256   0.100E-07
     TRS4 it   7 1.00000000   0.158E-03       0.001       32.256   0.100E-07
     TRS4 it   8 1.00000000   0.889E-07       0.001       31.013   0.100E-07
     TRS4 it   9 1.00000000   0.349E-13       0.001       30.101   0.100E-07
     Final TRS4 iteration    9 1.00000000   0.349E-13
     Chemical potential (mu):       0.01352
 
 PAO| energy:  -7.8088251468121577      penalty:   1.4928821944217873E-005
 PAO|LS| adapt:  T T T
 PAO|LS| adapt: scan_steps:    0.0000000000000000       0.36957927998237350       0.73915855996474700     
 PAO|LS| adapt: energies:   -7.8102466667557895       -7.8103746478741929       -7.8088251468121577     
 PAO|LS| adapt: suggested step_size:   0.21298616579779711     
 PAO|LS| adapt: predicted energy  -7.8105252246562973     
 PAO| ======================= Iteration:        18 =============================

     Lanczos converged:  T threshold:   0.100E-02
     Est. extremal eigenvalues:    0.276E+01   0.183E+00
     Est. condition number :    0.151E+02
     NS sqrt iter    1 1.00000000   0.706E+00       0.002       37.285
     NS sqrt iter    2 1.00000000   0.329E+00       0.002       53.006
     NS sqrt iter    3 1.00000000   0.745E-01       0.002       63.260
     NS sqrt iter    4 1.00000000   0.175E-02       0.002       63.577
     NS sqrt iter    5 1.00000000   0.463E-07       0.002       45.495
     Final NS sqrt iter    5 1.00000000   0.378E-09

     Est. extremal eigenvalues     -0.93793     1.68266  converged:  T
     TRS4 it   1 1.00000000   0.865E+00       0.001       16.128   0.100E-07
     TRS4 it   2 1.00000000   0.612E+00       0.001       32.256   0.100E-07
     TRS4 it   3 1.00000000   0.417E+00       0.001       32.256   0.100E-07
     TRS4 it   4 1.00000000   0.211E+00       0.001       30.639   0.100E-07
     TRS4 it   5 1.00000000   0.665E-01       0.001       32.256   0.100E-07
     TRS4 it   6 1.00000000   0.830E-02       0.001       32.256   0.100E-07
     TRS4 it   7 1.00000000   0.172E-03       0.001       32.019   0.100E-07
     TRS4 it   8 1.00000000   0.103E-06       0.001       32.256   0.100E-07
     TRS4 it   9 1.00000000   0.467E-13       0.001       32.256   0.100E-07
     Final TRS4 iteration    9 1.00000000   0.467E-13
     Chemical potential (mu):       0.01236
 
 PAO| energy:  -7.8105247585181861      penalty:   1.5100623810543036E-005
 PAO|CG| trace_G_new    7.2757501581032782E-004
 PAO|CG| trace_G_prev    2.6153357164698013E-003
 PAO|CG| trace_G_mix    1.6056645947213767E-006
 PAO|CG| trace_D    3.3728069457901735E-003
 PAO|CG| trace_D_Gnew  -1.8040611003244239E-006
 PAO|CG| beta:   0.27758170648758052     
 PAO| norm of gradient:   2.6973598495757437E-002
 PAO| energy improvement:  -2.7809176239657063E-004
 PAO| step     18                   -7.810524759  0.169E-02  0.213E+00     0.089
 PAO|LS| adapt:  T F F
 PAO|LS| adapt: scan_steps:    0.0000000000000000        0.0000000000000000        0.0000000000000000     
 PAO|LS| adapt: energies:   -7.8105247585181861        0.0000000000000000        0.0000000000000000     
 PAO| ======================= Iteration:        19 =============================

     Lanczos converged:  T threshold:   0.100E-02
     Est. extremal eigenvalues:    0.276E+01   0.183E+00
     Est. condition number :    0.151E+02
     NS sqrt iter    1 1.00000000   0.706E+00       0.002       40.253
     NS sqrt iter    2 1.00000000   0.330E+00       0.002       62.943
     NS sqrt iter    3 1.00000000   0.747E-01       0.002       58.669
     NS sqrt iter    4 1.00000000   0.176E-02       0.002       60.577
     NS sqrt iter    5 1.00000000   0.468E-07       0.002       34.874
     Final NS sqrt iter    5 1.00000000   0.379E-09

     Est. extremal eigenvalues     -0.93793     1.68297  converged:  T
     TRS4 it   1 1.00000000   0.865E+00       0.001       16.128   0.100E-07
     TRS4 it   2 1.00000000   0.612E+00       0.001       32.256   0.100E-07
     TRS4 it   3 1.00000000   0.417E+00       0.001       32.256   0.100E-07
     TRS4 it   4 1.00000000   0.211E+00       0.001       32.256   0.100E-07
     TRS4 it   5 1.00000000   0.664E-01       0.001       28.848   0.100E-07
     TRS4 it   6 1.00000000   0.829E-02       0.001       31.080   0.100E-07
     TRS4 it   7 1.00000000   0.173E-03       0.001       32.256   0.100E-07
     TRS4 it   8 1.00000000   0.105E-06       0.001       32.256   0.100E-07
     TRS4 it   9 1.00000000   0.479E-13       0.001       32.256   0.100E-07
     Final TRS4 iteration    9 1.00000000   0.479E-13
     Chemical potential (mu):       0.01207
 
 PAO| energy:  -7.8106430138016725      penalty:   1.4810900026167207E-005
 PAO|LS| adapt:  T T F
 PAO|LS| adapt: scan_steps:    0.0000000000000000       0.21298616579779711        0.0000000000000000     
 PAO|LS| adapt: energies:   -7.8105247585181861       -7.8106430138016725        0.0000000000000000     
 PAO| ======================= Iteration:        20 =============================

     Lanczos converged:  T threshold:   0.100E-02
     Est. extremal eigenvalues:    0.276E+01   0.183E+00
     Est. condition number :    0.151E+02
     NS sqrt iter    1 1.00000000   0.706E+00       0.002       40.806
     NS sqrt iter    2 1.00000000   0.330E+00       0.002       63.451
     NS sqrt iter    3 1.00000000   0.750E-01       0.002       63.278
     NS sqrt iter    4 1.00000000   0.177E-02       0.002       56.261
     NS sqrt iter    5 1.00000000   0.474E-07       0.002       44.347
     Final NS sqrt iter    5 1.00000000   0.386E-09

     Est. extremal eigenvalues     -0.93792     1.68328  converged:  T
     TRS4 it   1 1.00000000   0.865E+00       0.001       16.128   0.100E-07
     TRS4 it   2 1.00000000   0.612E+00       0.001       32.256   0.100E-07
     TRS4 it   3 1.00000000   0.417E+00       0.001       32.256   0.100E-07
     TRS4 it   4 1.00000000   0.210E+00       0.001       32.256   0.100E-07
     TRS4 it   5 1.00000000   0.663E-01       0.001       32.246   0.100E-07
     TRS4 it   6 1.00000000   0.828E-02       0.001       32.256   0.100E-07
     TRS4 it   7 1.00000000   0.173E-03       0.001       32.256   0.100E-07
     TRS4 it   8 1.00000000   0.107E-06       0.001       32.256   0.100E-07
     TRS4 it   9 1.00000000   0.497E-13       0.001       32.256   0.100E-07
     Final TRS4 iteration    9 1.00000000   0.497E-13
     Chemical potential (mu):       0.01179
 
 PAO| energy:  -7.8106872381065493      penalty:   1.4533647271587778E-005
 PAO|LS| adapt:  T T F
 PAO|LS| adapt: scan_steps:    0.0000000000000000       0.42597233159559422        0.0000000000000000     
 PAO|LS| adapt: energies:   -7.8105247585181861       -7.8106872381065493        0.0000000000000000     
 PAO| ======================= Iteration:        21 =============================

     Lanczos converged:  T threshold:   0.100E-02
     Est. extremal eigenvalues:    0.276E+01   0.182E+00
     Est. condition number :    0.151E+02
     NS sqrt iter    1 1.00000000   0.705E+00       0.002       39.184
     NS sqrt iter    2 1.00000000   0.330E+00       0.002       63.098
     NS sqrt iter    3 1.00000000   0.754E-01       0.002       64.095
     NS sqrt iter    4 1.00000000   0.180E-02       0.002       63.424
     NS sqrt iter    5 1.00000000   0.486E-07       0.002       45.570
     Final NS sqrt iter    5 1.00000000   0.402E-09

     Est. extremal eigenvalues     -0.93792     1.68391  converged:  T
     TRS4 it   1 1.00000000   0.865E+00       0.001       16.128   0.100E-07
     TRS4 it   2 1.00000000   0.612E+00       0.001       32.256   0.100E-07
     TRS4 it   3 1.00000000   0.417E+00       0.001       29.681   0.100E-07
     TRS4 it   4 1.00000000   0.210E+00       0.001       32.256   0.100E-07
     TRS4 it   5 1.00000000   0.661E-01       0.001       32.256   0.100E-07
     TRS4 it   6 1.00000000   0.827E-02       0.001       32.256   0.100E-07
     TRS4 it   7 1.00000000   0.175E-03       0.001       32.256   0.100E-07
     TRS4 it   8 1.00000000   0.111E-06       0.001       32.256   0.100E-07
     TRS4 it   9 1.00000000   0.532E-13       0.001       32.256   0.100E-07
     Final TRS4 iteration    9 1.00000000   0.532E-13
     Chemical potential (mu):       0.01122
 
 PAO| energy:  -7.8105511751526029      penalty:   1.4015977374414898E-005
 PAO|LS| Need extra step
 PAO|LS| adapt:  T T T
 PAO|LS| adapt: scan_steps:    0.0000000000000000       0.42597233159559422       0.85194466319118844     
 PAO|LS| adapt: energies:   -7.8105247585181861       -7.8106872381065493       -7.8105511751526029     
 PAO|LS| adapt: suggested step_size:   0.44481848207784641     
 PAO|LS| adapt: predicted energy  -7.8106875302921157     
 PAO| ======================= Iteration:        22 =============================

     Lanczos converged:  T threshold:   0.100E-02
     Est. extremal eigenvalues:    0.276E+01   0.183E+00
     Est. condition number :    0.151E+02
     NS sqrt iter    1 1.00000000   0.706E+00       0.002       40.451
     NS sqrt iter    2 1.00000000   0.330E+00       0.002       61.200
     NS sqrt iter    3 1.00000000   0.750E-01       0.002       63.673
     NS sqrt iter    4 1.00000000   0.177E-02       0.002       62.990
     NS sqrt iter    5 1.00000000   0.474E-07       0.002       45.005
     Final NS sqrt iter    5 1.00000000   0.387E-09

     Est. extremal eigenvalues     -0.93792     1.68331  converged:  T
     TRS4 it   1 1.00000000   0.865E+00       0.001       16.128   0.100E-07
     TRS4 it   2 1.00000000   0.612E+00       0.001       32.256   0.100E-07
     TRS4 it   3 1.00000000   0.417E+00       0.001       32.256   0.100E-07
     TRS4 it   4 1.00000000   0.210E+00       0.001       32.256   0.100E-07
     TRS4 it   5 1.00000000   0.663E-01       0.001       32.256   0.100E-07
     TRS4 it   6 1.00000000   0.828E-02       0.001       32.256   0.100E-07
     TRS4 it   7 1.00000000   0.173E-03       0.001       32.256   0.100E-07
     TRS4 it   8 1.00000000   0.107E-06       0.001       32.256   0.100E-07
     TRS4 it   9 1.00000000   0.491E-13       0.001       32.256   0.100E-07
     Final TRS4 iteration    9 1.00000000   0.491E-13
     Chemical potential (mu):       0.01176
 
 PAO| energy:  -7.8106875659082196      penalty:   1.4509709106299669E-005
 PAO|CG| trace_G_new    2.2448825886239529E-004
 PAO|CG| trace_G_prev    7.2757501581032782E-004
 PAO|CG| trace_G_mix    3.0532848768283053E-006
 PAO|CG| trace_D    9.8845674892984476E-004
 PAO|CG| trace_D_Gnew  -1.8833092416502979E-006
 PAO|CG| beta:   0.30434658856303148     
 PAO| norm of gradient:   1.4982932251812237E-002
 PAO| energy improvement:  -1.6280739003349254E-004
 PAO| step     22                   -7.810687566  0.936E-03  0.445E+00     0.112
 PAO|LS| adapt:  T F F
 PAO|LS| adapt: scan_steps:    0.0000000000000000        0.0000000000000000        0.0000000000000000     
 PAO|LS| adapt: energies:   -7.8106875659082196        0.0000000000000000        0.0000000000000000     
 PAO| ======================= Iteration:        23 =============================

     Lanczos converged:  T threshold:   0.100E-02
     Est. extremal eigenvalues:    0.276E+01   0.183E+00
     Est. condition number :    0.151E+02
     NS sqrt iter    1 1.00000000   0.705E+00       0.002       40.560
     NS sqrt iter    2 1.00000000   0.330E+00       0.002       63.622
     NS sqrt iter    3 1.00000000   0.750E-01       0.002       63.140
     NS sqrt iter    4 1.00000000   0.178E-02       0.002       64.115
     NS sqrt iter    5 1.00000000   0.474E-07       0.002       45.862
     Final NS sqrt iter    5 1.00000000   0.388E-09

     Est. extremal eigenvalues     -0.93792     1.68300  converged:  T
     TRS4 it   1 1.00000000   0.865E+00       0.001       16.128   0.100E-07
     TRS4 it   2 1.00000000   0.612E+00       0.001       32.256   0.100E-07
     TRS4 it   3 1.00000000   0.417E+00       0.001       27.880   0.100E-07
     TRS4 it   4 1.00000000   0.210E+00       0.001       32.256   0.100E-07
     TRS4 it   5 1.00000000   0.664E-01       0.001       32.256   0.100E-07
     TRS4 it   6 1.00000000   0.832E-02       0.001       32.256   0.100E-07
     TRS4 it   7 1.00000000   0.175E-03       0.001       32.256   0.100E-07
     TRS4 it   8 1.00000000   0.110E-06       0.001       32.256   0.100E-07
     TRS4 it   9 1.00000000   0.516E-13       0.001       30.327   0.100E-07
     Final TRS4 iteration    9 1.00000000   0.516E-13
     Chemical potential (mu):       0.01145
 
 PAO| energy:  -7.8107376329613674      penalty:   1.3826067247374128E-005
 PAO|LS| adapt:  T T F
 PAO|LS| adapt: scan_steps:    0.0000000000000000       0.44481848207784641        0.0000000000000000     
 PAO|LS| adapt: energies:   -7.8106875659082196       -7.8107376329613674        0.0000000000000000     
 PAO| ======================= Iteration:        24 =============================

     Lanczos converged:  T threshold:   0.100E-02
     Est. extremal eigenvalues:    0.276E+01   0.183E+00
     Est. condition number :    0.151E+02
     NS sqrt iter    1 1.00000000   0.705E+00       0.002       40.620
     NS sqrt iter    2 1.00000000   0.330E+00       0.002       61.850
     NS sqrt iter    3 1.00000000   0.751E-01       0.002       63.473
     NS sqrt iter    4 1.00000000   0.178E-02       0.002       62.030
     NS sqrt iter    5 1.00000000   0.475E-07       0.002       45.295
     Final NS sqrt iter    5 1.00000000   0.390E-09

     Est. extremal eigenvalues     -0.93792     1.68268  converged:  T
     TRS4 it   1 1.00000000   0.864E+00       0.001       16.128   0.100E-07
     TRS4 it   2 1.00000000   0.612E+00       0.001       30.561   0.100E-07
     TRS4 it   3 1.00000000   0.417E+00       0.001       32.256   0.100E-07
     TRS4 it   4 1.00000000   0.211E+00       0.001       32.256   0.100E-07
     TRS4 it   5 1.00000000   0.665E-01       0.001       32.256   0.100E-07
     TRS4 it   6 1.00000000   0.835E-02       0.001       32.256   0.100E-07
     TRS4 it   7 1.00000000   0.177E-03       0.001       32.256   0.100E-07
     TRS4 it   8 1.00000000   0.112E-06       0.001       32.256   0.100E-07
     TRS4 it   9 1.00000000   0.552E-13       0.001       25.764   0.100E-07
     Final TRS4 iteration    9 1.00000000   0.552E-13
     Chemical potential (mu):       0.01115
 
 PAO| energy:  -7.8106869624741293      penalty:   1.3171022525919840E-005
 PAO|LS| adapt:  T T T
 PAO|LS| adapt: scan_steps:    0.0000000000000000       0.44481848207784641       0.88963696415569282     
 PAO|LS| adapt: energies:   -7.8106875659082196       -7.8107376329613674       -7.8106869624741293     
 PAO|LS| adapt: suggested step_size:   0.44348621490598772     
 PAO|LS| adapt: predicted energy  -7.8107376334132006     
 PAO| ======================= Iteration:        25 =============================

     Lanczos converged:  T threshold:   0.100E-02
     Est. extremal eigenvalues:    0.276E+01   0.183E+00
     Est. condition number :    0.151E+02
     NS sqrt iter    1 1.00000000   0.705E+00       0.002       40.341
     NS sqrt iter    2 1.00000000   0.330E+00       0.002       63.171
     NS sqrt iter    3 1.00000000   0.750E-01       0.002       62.876
     NS sqrt iter    4 1.00000000   0.178E-02       0.002       63.639
     NS sqrt iter    5 1.00000000   0.474E-07       0.002       45.224
     Final NS sqrt iter    5 1.00000000   0.388E-09

     Est. extremal eigenvalues     -0.93792     1.68300  converged:  T
     TRS4 it   1 1.00000000   0.865E+00       0.001       16.128   0.100E-07
     TRS4 it   2 1.00000000   0.612E+00       0.001       32.256   0.100E-07
     TRS4 it   3 1.00000000   0.417E+00       0.001       32.256   0.100E-07
     TRS4 it   4 1.00000000   0.210E+00       0.001       32.256   0.100E-07
     TRS4 it   5 1.00000000   0.664E-01       0.001       32.256   0.100E-07
     TRS4 it   6 1.00000000   0.832E-02       0.001       30.136   0.100E-07
     TRS4 it   7 1.00000000   0.175E-03       0.001       32.256   0.100E-07
     TRS4 it   8 1.00000000   0.110E-06       0.001       32.256   0.100E-07
     TRS4 it   9 1.00000000   0.515E-13       0.001       28.724   0.100E-07
     Final TRS4 iteration    9 1.00000000   0.515E-13
     Chemical potential (mu):       0.01146
 
 PAO| energy:  -7.8107376329273670      penalty:   1.3828071804142559E-005
 PAO|CG| trace_G_new    8.1152522912689222E-005
 PAO|CG| trace_G_prev    2.2448825886239529E-004
 PAO|CG| trace_G_mix    7.3213271669383585E-007
 PAO|CG| trace_D    3.1719224737929353E-004
 PAO|CG| trace_D_Gnew  -3.6474022348975105E-007
 PAO|CG| beta:   0.35823873642002241     
 PAO| norm of gradient:   9.0084695100049721E-003
 PAO| energy improvement:  -5.0067019147448377E-005
 PAO| step     25                   -7.810737633  0.563E-03  0.443E+00     0.085
 PAO|LS| adapt:  T F F
 PAO|LS| adapt: scan_steps:    0.0000000000000000        0.0000000000000000        0.0000000000000000     
 PAO|LS| adapt: energies:   -7.8107376329273670        0.0000000000000000        0.0000000000000000     
 PAO| ======================= Iteration:        26 =============================

     Lanczos converged:  T threshold:   0.100E-02
     Est. extremal eigenvalues:    0.276E+01   0.183E+00
     Est. condition number :    0.151E+02
     NS sqrt iter    1 1.00000000   0.705E+00       0.002       39.159
     NS sqrt iter    2 1.00000000   0.330E+00       0.002       63.235
     NS sqrt iter    3 1.00000000   0.749E-01       0.002       62.534
     NS sqrt iter    4 1.00000000   0.177E-02       0.002       63.603
     NS sqrt iter    5 1.00000000   0.470E-07       0.002       42.084
     Final NS sqrt iter    5 1.00000000   0.383E-09

     Est. extremal eigenvalues     -0.93793     1.68254  converged:  T
     TRS4 it   1 1.00000000   0.865E+00       0.001       16.128   0.100E-07
     TRS4 it   2 1.00000000   0.612E+00       0.001       30.188   0.100E-07
     TRS4 it   3 1.00000000   0.417E+00       0.001       32.256   0.100E-07
     TRS4 it   4 1.00000000   0.210E+00       0.001       32.256   0.100E-07
     TRS4 it   5 1.00000000   0.663E-01       0.001       32.256   0.100E-07
     TRS4 it   6 1.00000000   0.829E-02       0.001       32.256   0.100E-07
     TRS4 it   7 1.00000000   0.174E-03       0.001       32.256   0.100E-07
     TRS4 it   8 1.00000000   0.108E-06       0.001       32.256   0.100E-07
     TRS4 it   9 1.00000000   0.500E-13       0.001       32.256   0.100E-07
     Final TRS4 iteration    9 1.00000000   0.500E-13
     Chemical potential (mu):       0.01159
 
 PAO| energy:  -7.8107419183216624      penalty:   1.3101108612544714E-005
 PAO|LS| adapt:  T T F
 PAO|LS| adapt: scan_steps:    0.0000000000000000       0.44348621490598772        0.0000000000000000     
 PAO|LS| adapt: energies:   -7.8107376329273670       -7.8107419183216624        0.0000000000000000     
 PAO| ======================= Iteration:        27 =============================

     Lanczos converged:  T threshold:   0.100E-02
     Est. extremal eigenvalues:    0.276E+01   0.183E+00
     Est. condition number :    0.151E+02
     NS sqrt iter    1 1.00000000   0.705E+00       0.002       39.211
     NS sqrt iter    2 1.00000000   0.330E+00       0.002       62.592
     NS sqrt iter    3 1.00000000   0.748E-01       0.002       61.750
     NS sqrt iter    4 1.00000000   0.176E-02       0.002       63.024
     NS sqrt iter    5 1.00000000   0.467E-07       0.002       44.942
     Final NS sqrt iter    5 1.00000000   0.378E-09

     Est. extremal eigenvalues     -0.93793     1.68209  converged:  T
     TRS4 it   1 1.00000000   0.864E+00       0.001       16.128   0.100E-07
     TRS4 it   2 1.00000000   0.612E+00       0.001       32.256   0.100E-07
     TRS4 it   3 1.00000000   0.417E+00       0.001       32.256   0.100E-07
     TRS4 it   4 1.00000000   0.210E+00       0.001       32.256   0.100E-07
     TRS4 it   5 1.00000000   0.662E-01       0.001       30.867   0.100E-07
     TRS4 it   6 1.00000000   0.827E-02       0.001       32.256   0.100E-07
     TRS4 it   7 1.00000000   0.173E-03       0.001       32.256   0.100E-07
     TRS4 it   8 1.00000000   0.106E-06       0.001       32.256   0.100E-07
     TRS4 it   9 1.00000000   0.488E-13       0.001       31.272   0.100E-07
     Final TRS4 iteration    9 1.00000000   0.488E-13
     Chemical potential (mu):       0.01173
 
 PAO| energy:  -7.8106825695537889      penalty:   1.2398240138943573E-005
 PAO|LS| adapt:  T T T
 PAO|LS| adapt: scan_steps:    0.0000000000000000       0.44348621490598772       0.88697242981197544     
 PAO|LS| adapt: energies:   -7.8107376329273670       -7.8107419183216624       -7.8106825695537889     
 PAO|LS| adapt: suggested step_size:   0.25160934958896275     
 PAO|LS| adapt: predicted energy  -7.8107478741930976     
 PAO| ======================= Iteration:        28 =============================

     Lanczos converged:  T threshold:   0.100E-02
     Est. extremal eigenvalues:    0.276E+01   0.183E+00
     Est. condition number :    0.151E+02
     NS sqrt iter    1 1.00000000   0.705E+00       0.002       40.452
     NS sqrt iter    2 1.00000000   0.330E+00       0.002       63.092
     NS sqrt iter    3 1.00000000   0.750E-01       0.002       54.697
     NS sqrt iter    4 1.00000000   0.177E-02       0.002       64.015
     NS sqrt iter    5 1.00000000   0.472E-07       0.002       43.945
     Final NS sqrt iter    5 1.00000000   0.385E-09

     Est. extremal eigenvalues     -0.93793     1.68274  converged:  T
     TRS4 it   1 1.00000000   0.865E+00       0.001       16.128   0.100E-07
     TRS4 it   2 1.00000000   0.612E+00       0.001       25.311   0.100E-07
     TRS4 it   3 1.00000000   0.417E+00       0.001       32.256   0.100E-07
     TRS4 it   4 1.00000000   0.210E+00       0.001       32.256   0.100E-07
     TRS4 it   5 1.00000000   0.663E-01       0.001       30.868   0.100E-07
     TRS4 it   6 1.00000000   0.830E-02       0.001       32.256   0.100E-07
     TRS4 it   7 1.00000000   0.174E-03       0.001       32.256   0.100E-07
     TRS4 it   8 1.00000000   0.109E-06       0.001       32.256   0.100E-07
     TRS4 it   9 1.00000000   0.510E-13       0.001       32.256   0.100E-07
     Final TRS4 iteration    9 1.00000000   0.510E-13
     Chemical potential (mu):       0.01154
 
 PAO| energy:  -7.8107478646475910      penalty:   1.3412656352954457E-005
 PAO|CG| trace_G_new    3.3007812742793934E-005
 PAO|CG| trace_G_prev    8.1152522912689222E-005
 PAO|CG| trace_G_mix    5.4963376175378623E-008
 PAO|CG| trace_D    1.2212071568235933E-004
 PAO|CG| trace_D_Gnew  -2.6689532167874127E-008
 PAO|CG| beta:   0.40606068898279390     
 PAO| norm of gradient:   5.7452426182706970E-003
 PAO| energy improvement:  -1.0231720223963237E-005
 PAO| step     28                   -7.810747865  0.359E-03  0.252E+00     0.085
 PAO|LS| adapt:  T F F
 PAO|LS| adapt: scan_steps:    0.0000000000000000        0.0000000000000000        0.0000000000000000     
 PAO|LS| adapt: energies:   -7.8107478646475910        0.0000000000000000        0.0000000000000000     
 PAO| ======================= Iteration:        29 =============================

     Lanczos converged:  T threshold:   0.100E-02
     Est. extremal eigenvalues:    0.276E+01   0.183E+00
     Est. condition number :    0.151E+02
     NS sqrt iter    1 1.00000000   0.705E+00       0.002       33.257
     NS sqrt iter    2 1.00000000   0.330E+00       0.002       56.160
     NS sqrt iter    3 1.00000000   0.749E-01       0.002       59.519
     NS sqrt iter    4 1.00000000   0.177E-02       0.002       46.199
     NS sqrt iter    5 1.00000000   0.471E-07       0.002       46.112
     Final NS sqrt iter    5 1.00000000   0.382E-09

     Est. extremal eigenvalues     -0.93793     1.68260  converged:  T
     TRS4 it   1 1.00000000   0.865E+00       0.001       16.128   0.100E-07
     TRS4 it   2 1.00000000   0.612E+00       0.001       32.256   0.100E-07
     TRS4 it   3 1.00000000   0.417E+00       0.001       32.256   0.100E-07
     TRS4 it   4 1.00000000   0.210E+00       0.001       32.256   0.100E-07
     TRS4 it   5 1.00000000   0.662E-01       0.001       32.256   0.100E-07
     TRS4 it   6 1.00000000   0.828E-02       0.001       32.256   0.100E-07
     TRS4 it   7 1.00000000   0.173E-03       0.001       32.256   0.100E-07
     TRS4 it   8 1.00000000   0.107E-06       0.001       32.256   0.100E-07
     TRS4 it   9 1.00000000   0.498E-13       0.001       25.824   0.100E-07
     Final TRS4 iteration    9 1.00000000   0.498E-13
     Chemical potential (mu):       0.01168
 
 PAO| energy:  -7.8107551669835180      penalty:   1.2974544282395846E-005
 PAO|LS| adapt:  T T F
 PAO|LS| adapt: scan_steps:    0.0000000000000000       0.25160934958896275        0.0000000000000000     
 PAO|LS| adapt: energies:   -7.8107478646475910       -7.8107551669835180        0.0000000000000000     
 PAO| ======================= Iteration:        30 =============================

     Lanczos converged:  T threshold:   0.100E-02
     Est. extremal eigenvalues:    0.276E+01   0.183E+00
     Est. condition number :    0.151E+02
     NS sqrt iter    1 1.00000000   0.705E+00       0.002       39.195
     NS sqrt iter    2 1.00000000   0.330E+00       0.002       55.078
     NS sqrt iter    3 1.00000000   0.748E-01       0.002       63.582
     NS sqrt iter    4 1.00000000   0.177E-02       0.002       63.710
     NS sqrt iter    5 1.00000000   0.470E-07       0.002       45.657
     Final NS sqrt iter    5 1.00000000   0.380E-09

     Est. extremal eigenvalues     -0.93793     1.68246  converged:  T
     TRS4 it   1 1.00000000   0.865E+00       0.001       16.128   0.100E-07
     TRS4 it   2 1.00000000   0.612E+00       0.001       32.256   0.100E-07
     TRS4 it   3 1.00000000   0.417E+00       0.001       31.274   0.100E-07
     TRS4 it   4 1.00000000   0.210E+00       0.001       32.256   0.100E-07
     TRS4 it   5 1.00000000   0.661E-01       0.001       32.256   0.100E-07
     TRS4 it   6 1.00000000   0.825E-02       0.001       32.256   0.100E-07
     TRS4 it   7 1.00000000   0.172E-03       0.001       32.256   0.100E-07
     TRS4 it   8 1.00000000   0.105E-06       0.001       32.256   0.100E-07
     TRS4 it   9 1.00000000   0.487E-13       0.001       30.956   0.100E-07
     Final TRS4 iteration    9 1.00000000   0.487E-13
     Chemical potential (mu):       0.01183
 
 PAO| energy:  -7.8107604588132578      penalty:   1.2544578548582210E-005
 PAO|LS| adapt:  T T F
 PAO|LS| adapt: scan_steps:    0.0000000000000000       0.50321869917792550        0.0000000000000000     
 PAO|LS| adapt: energies:   -7.8107478646475910       -7.8107604588132578        0.0000000000000000     
 PAO| ======================= Iteration:        31 =============================

     Lanczos converged:  T threshold:   0.100E-02
     Est. extremal eigenvalues:    0.276E+01   0.183E+00
     Est. condition number :    0.151E+02
     NS sqrt iter    1 1.00000000   0.704E+00       0.002       41.173
     NS sqrt iter    2 1.00000000   0.329E+00       0.002       60.129
     NS sqrt iter    3 1.00000000   0.747E-01       0.002       64.996
     NS sqrt iter    4 1.00000000   0.176E-02       0.002       63.871
     NS sqrt iter    5 1.00000000   0.467E-07       0.002       44.842
     Final NS sqrt iter    5 1.00000000   0.357E-09

     Est. extremal eigenvalues     -0.93793     1.68218  converged:  T
     TRS4 it   1 1.00000000   0.865E+00       0.001       16.128   0.100E-07
     TRS4 it   2 1.00000000   0.612E+00       0.001       32.256   0.100E-07
     TRS4 it   3 1.00000000   0.416E+00       0.001       32.256   0.100E-07
     TRS4 it   4 1.00000000   0.210E+00       0.001       32.256   0.100E-07
     TRS4 it   5 1.00000000   0.660E-01       0.001       32.256   0.100E-07
     TRS4 it   6 1.00000000   0.821E-02       0.001       32.256   0.100E-07
     TRS4 it   7 1.00000000   0.170E-03       0.001       31.624   0.100E-07
     TRS4 it   8 1.00000000   0.102E-06       0.001       32.256   0.100E-07
     TRS4 it   9 1.00000000   0.452E-13       0.001       32.256   0.100E-07
     Final TRS4 iteration    9 1.00000000   0.452E-13
     Chemical potential (mu):       0.01212
 
 PAO| energy:  -7.8107650117139915      penalty:   1.1708911815993592E-005
 PAO|LS| Need extra step
 PAO|LS| adapt:  T T F
 PAO|LS| adapt: scan_steps:    0.0000000000000000        1.0064373983558510        0.0000000000000000     
 PAO|LS| adapt: energies:   -7.8107478646475910       -7.8107650117139915        0.0000000000000000     
 PAO| ======================= Iteration:        32 =============================

     Lanczos converged:  T threshold:   0.100E-02
     Est. extremal eigenvalues:    0.275E+01   0.182E+00
     Est. condition number :    0.151E+02
     NS sqrt iter    1 1.00000000   0.704E+00       0.002       39.969
     NS sqrt iter    2 1.00000000   0.329E+00       0.002       62.017
     NS sqrt iter    3 1.00000000   0.744E-01       0.002       53.329
     NS sqrt iter    4 1.00000000   0.175E-02       0.002       52.596
     NS sqrt iter    5 1.00000000   0.464E-07       0.002       43.430
     Final NS sqrt iter    5 1.00000000   0.353E-09

     Est. extremal eigenvalues     -0.93794     1.68160  converged:  T
     TRS4 it   1 1.00000000   0.865E+00       0.001       16.128   0.100E-07
     TRS4 it   2 1.00000000   0.611E+00       0.001       32.256   0.100E-07
     TRS4 it   3 1.00000000   0.416E+00       0.001       32.256   0.100E-07
     TRS4 it   4 1.00000000   0.209E+00       0.001       32.256   0.100E-07
     TRS4 it   5 1.00000000   0.656E-01       0.001       32.256   0.100E-07
     TRS4 it   6 1.00000000   0.811E-02       0.001       32.256   0.100E-07
     TRS4 it   7 1.00000000   0.166E-03       0.001       32.256   0.100E-07
     TRS4 it   8 1.00000000   0.966E-07       0.001       32.256   0.100E-07
     TRS4 it   9 1.00000000   0.407E-13       0.001       32.256   0.100E-07
     Final TRS4 iteration    9 1.00000000   0.407E-13
     Chemical potential (mu):       0.01270
 
 PAO| energy:  -7.8107500149325171      penalty:   1.0133429595382760E-005
 PAO|LS| Need extra step
 PAO|LS| adapt:  T T T
 PAO|LS| adapt: scan_steps:    0.0000000000000000        1.0064373983558510        2.0128747967117020     
 PAO|LS| adapt: energies:   -7.8107478646475910       -7.8107650117139915       -7.8107500149325171     
 PAO|LS| adapt: suggested step_size:    1.0401005611355860     
 PAO|LS| adapt: predicted energy  -7.8107650296945907     
 PAO| ======================= Iteration:        33 =============================

     Lanczos converged:  T threshold:   0.100E-02
     Est. extremal eigenvalues:    0.276E+01   0.183E+00
     Est. condition number :    0.151E+02
     NS sqrt iter    1 1.00000000   0.704E+00       0.002       39.246
     NS sqrt iter    2 1.00000000   0.329E+00       0.002       48.438
     NS sqrt iter    3 1.00000000   0.747E-01       0.002       64.270
     NS sqrt iter    4 1.00000000   0.176E-02       0.002       64.319
     NS sqrt iter    5 1.00000000   0.467E-07       0.002       45.016
     Final NS sqrt iter    5 1.00000000   0.357E-09

     Est. extremal eigenvalues     -0.93793     1.68216  converged:  T
     TRS4 it   1 1.00000000   0.865E+00       0.001       16.128   0.100E-07
     TRS4 it   2 1.00000000   0.612E+00       0.001       32.256   0.100E-07
     TRS4 it   3 1.00000000   0.416E+00       0.001       32.256   0.100E-07
     TRS4 it   4 1.00000000   0.210E+00       0.001       27.000   0.100E-07
     TRS4 it   5 1.00000000   0.659E-01       0.001       32.256   0.100E-07
     TRS4 it   6 1.00000000   0.820E-02       0.001       30.756   0.100E-07
     TRS4 it   7 1.00000000   0.170E-03       0.001       32.256   0.100E-07
[...]
     NS sqrt iter    3 1.00000000   0.491E-01       0.002       63.852
     NS sqrt iter    4 1.00000000   0.803E-03       0.002       62.134
     NS sqrt iter    5 1.00000000   0.685E-08       0.001       27.163
     Final NS sqrt iter    5 1.00000000   0.397E-09

     Est. extremal eigenvalues     -0.93762     1.62615  converged:  T
     TRS4 it   1 1.00000000   0.876E+00       0.001       16.128   0.100E-07
     TRS4 it   2 1.00000000   0.631E+00       0.001       32.256   0.100E-07
     TRS4 it   3 1.00000000   0.455E+00       0.001       32.256   0.100E-07
     TRS4 it   4 1.00000000   0.279E+00       0.001       32.256   0.100E-07
     TRS4 it   5 1.00000000   0.138E+00       0.001       32.256   0.100E-07
     TRS4 it   6 1.00000000   0.438E-01       0.001       32.256   0.100E-07
     TRS4 it   7 1.00000000   0.621E-02       0.001       32.256   0.100E-07
     TRS4 it   8 1.00000000   0.165E-03       0.001       32.256   0.100E-07
     TRS4 it   9 1.00000000   0.123E-06       0.001       32.256   0.100E-07
     TRS4 it  10 1.00000000   0.674E-13       0.001       32.256   0.100E-07
     Final TRS4 iteration   10 1.00000000   0.674E-13
     Chemical potential (mu):      -0.07756
 
 PAO| energy:  -7.8100870938046718      penalty:   2.8839764105041677E-008
 PAO|LS| Need extra step
 PAO|LS| adapt:  T T T
 PAO|LS| adapt: scan_steps:    0.0000000000000000       0.20000000000000001       0.40000000000000002     
 PAO|LS| adapt: energies:   -7.8100870904120816       -7.8100870952651791       -7.8100870938046718     
 PAO|LS| adapt: suggested step_size:   0.25373459921921504     
 PAO|LS| adapt: predicted energy  -7.8100870954930537     
 PAO| ======================= Iteration:       422 =============================

     Lanczos converged:  T threshold:   0.100E-02
     Est. extremal eigenvalues:    0.252E+01   0.190E+00
     Est. condition number :    0.132E+02
     NS sqrt iter    1 1.00000000   0.639E+00       0.002       34.641
     NS sqrt iter    2 1.00000000   0.278E+00       0.002       61.756
     NS sqrt iter    3 1.00000000   0.491E-01       0.002       61.424
     NS sqrt iter    4 1.00000000   0.803E-03       0.002       63.344
     NS sqrt iter    5 1.00000000   0.685E-08       0.001       26.777
     Final NS sqrt iter    5 1.00000000   0.397E-09

     Est. extremal eigenvalues     -0.93762     1.62615  converged:  T
     TRS4 it   1 1.00000000   0.876E+00       0.001       16.128   0.100E-07
     TRS4 it   2 1.00000000   0.631E+00       0.001       26.104   0.100E-07
     TRS4 it   3 1.00000000   0.455E+00       0.001       25.945   0.100E-07
     TRS4 it   4 1.00000000   0.279E+00       0.001       27.683   0.100E-07
     TRS4 it   5 1.00000000   0.138E+00       0.001       29.167   0.100E-07
     TRS4 it   6 1.00000000   0.438E-01       0.001       29.649   0.100E-07
     TRS4 it   7 1.00000000   0.621E-02       0.001       28.878   0.100E-07
     TRS4 it   8 1.00000000   0.165E-03       0.001       31.746   0.100E-07
     TRS4 it   9 1.00000000   0.123E-06       0.001       32.054   0.100E-07
     TRS4 it  10 1.00000000   0.684E-13       0.001       24.143   0.100E-07
     Final TRS4 iteration   10 1.00000000   0.684E-13
     Chemical potential (mu):      -0.07756
 
 PAO| energy:  -7.8100870954930599      penalty:   2.9183485040102278E-008
 PAO|CG| warming up with steepest descent
 PAO|CG| beta:    0.0000000000000000     
 PAO| norm of gradient:   1.2390274920376522E-004
 PAO| energy improvement:  -5.0809783047611745E-009
 PAO| step    422                   -7.810087095  0.774E-05  0.254E+00     0.119
 PAO| converged after          422  steps :-)
 PAO| Recalculating energy after mixing.

     Lanczos converged:  T threshold:   0.100E-02
     Est. extremal eigenvalues:    0.252E+01   0.190E+00
     Est. condition number :    0.132E+02
     NS sqrt iter    1 1.00000000   0.639E+00       0.002       36.554
     NS sqrt iter    2 1.00000000   0.278E+00       0.002       60.907
     NS sqrt iter    3 1.00000000   0.491E-01       0.002       59.823
     NS sqrt iter    4 1.00000000   0.803E-03       0.002       61.685
     NS sqrt iter    5 1.00000000   0.685E-08       0.001       26.552
     Final NS sqrt iter    5 1.00000000   0.397E-09

     Est. extremal eigenvalues     -0.93762     1.62614  converged:  T
     TRS4 it   1 1.00000000   0.876E+00       0.001       16.128   0.100E-07
     TRS4 it   2 1.00000000   0.631E+00       0.001       32.158   0.100E-07
     TRS4 it   3 1.00000000   0.455E+00       0.001       32.256   0.100E-07
     TRS4 it   4 1.00000000   0.279E+00       0.001       32.256   0.100E-07
     TRS4 it   5 1.00000000   0.138E+00       0.001       32.256   0.100E-07
     TRS4 it   6 1.00000000   0.438E-01       0.001       32.256   0.100E-07
     TRS4 it   7 1.00000000   0.621E-02       0.001       32.256   0.100E-07
     TRS4 it   8 1.00000000   0.165E-03       0.001       32.256   0.100E-07
     TRS4 it   9 1.00000000   0.123E-06       0.001       32.256   0.100E-07
     TRS4 it  10 1.00000000   0.676E-13       0.001       32.256   0.100E-07
     Final TRS4 iteration   10 1.00000000   0.676E-13
     Chemical potential (mu):      -0.07756
 
 PAO| energy:  -7.8100870942228013      penalty:   2.9483264605644365E-008
 PAO| Writing restart file.
     Est. extremal eigenvalues     -0.93762     1.62614  converged:  T
     TRS4 it   1 1.00000000   0.876E+00       0.001       16.128   0.100E-07
     TRS4 it   2 1.00000000   0.631E+00       0.001       29.664   0.100E-07
     TRS4 it   3 1.00000000   0.455E+00       0.001       29.337   0.100E-07
     TRS4 it   4 1.00000000   0.279E+00       0.001       30.011   0.100E-07
     TRS4 it   5 1.00000000   0.138E+00       0.001       32.256   0.100E-07
     TRS4 it   6 1.00000000   0.438E-01       0.001       32.256   0.100E-07
     TRS4 it   7 1.00000000   0.621E-02       0.001       32.085   0.100E-07
     TRS4 it   8 1.00000000   0.165E-03       0.001       31.678   0.100E-07
     TRS4 it   9 1.00000000   0.123E-06       0.001       28.704   0.100E-07
     TRS4 it  10 1.00000000   0.676E-13       0.001       29.015   0.100E-07
     Final TRS4 iteration   10 1.00000000   0.676E-13
     Chemical potential (mu):      -0.07756

 SCF     1       -34.449589937       -34.449589937    2.493123

*********************************************************
 Using MIXING_FRACTION=0.450 to mix KS matrix:  iscf=  2
 KS_nw=0.450*KS + 0.550*KS_old
*********************************************************
     Est. extremal eigenvalues     -0.93763     1.62615  converged:  T
     TRS4 it   1 1.00000000   0.876E+00       0.001       16.128   0.100E-07
     TRS4 it   2 1.00000000   0.631E+00       0.001       32.256   0.100E-07
     TRS4 it   3 1.00000000   0.455E+00       0.001       32.256   0.100E-07
     TRS4 it   4 1.00000000   0.279E+00       0.001       32.256   0.100E-07
     TRS4 it   5 1.00000000   0.138E+00       0.001       32.256   0.100E-07
     TRS4 it   6 1.00000000   0.438E-01       0.001       32.256   0.100E-07
     TRS4 it   7 1.00000000   0.621E-02       0.001       32.256   0.100E-07
     TRS4 it   8 1.00000000   0.165E-03       0.001       32.256   0.100E-07
     TRS4 it   9 1.00000000   0.123E-06       0.001       32.256   0.100E-07
     TRS4 it  10 1.00000000   0.684E-13       0.001       32.256   0.100E-07
     Final TRS4 iteration   10 1.00000000   0.684E-13
     Chemical potential (mu):      -0.07755

 SCF     2       -34.449589938        -0.000000000    2.198965

 PAO| Storing density matrix for ASPC guess in slot:           1

 ENERGY| Total FORCE_EVAL ( QS ) energy (a.u.):              -34.449589937536558


 -------------------------------------------------------------------------------
 -                                                                             -
 -                                DBCSR STATISTICS                             -
 -                                                                             -
 -------------------------------------------------------------------------------
 COUNTER                                    TOTAL       BLAS       SMM       ACC
 flops     5 x     5 x     4                20000     100.0%      0.0%      0.0%
 flops    13 x     5 x     4                20800     100.0%      0.0%      0.0%
 flops     5 x    13 x     4                20800     100.0%      0.0%      0.0%
 flops    13 x    13 x     4                40560     100.0%      0.0%      0.0%
 flops     4 x     4 x     5              3313920     100.0%      0.0%      0.0%
 flops     5 x     4 x     5              4057600     100.0%      0.0%      0.0%
 flops     4 x     4 x    13              4308096     100.0%      0.0%      0.0%
 flops    13 x     4 x     5              5274880     100.0%      0.0%      0.0%
 flops     5 x     4 x    13              5274880     100.0%      0.0%      0.0%
 flops     5 x     4 x     4              6455200     100.0%      0.0%      0.0%
 flops    13 x     4 x    13              6857344     100.0%      0.0%      0.0%
 flops    13 x     4 x     4              8559616     100.0%      0.0%      0.0%
 flops     4 x     4 x     4            429386624     100.0%      0.0%      0.0%
 flops inhomo. stacks                           0       0.0%      0.0%      0.0%
 flops total                       473.590320E+06     100.0%      0.0%      0.0%
 flops max/rank                    473.590320E+06     100.0%      0.0%      0.0%
 matmuls inhomo. stacks                         0       0.0%      0.0%      0.0%
 matmuls total                            3492430     100.0%      0.0%      0.0%
 number of processed stacks                 27834     100.0%      0.0%      0.0%
 average stack size                                   125.5       0.0       0.0
 marketing flops                   770.587776E+06
 -------------------------------------------------------------------------------
 # multiplications                          23283
 max memory usage/rank             330.096640E+06
 # max total images/rank                        1
 # max 3D layers                                1
 # MPI messages exchanged                       0
 MPI messages size (bytes):
  total size                         0.000000E+00
  min size                           0.000000E+00
  max size                           0.000000E+00
  average size                       0.000000E+00
 MPI breakdown and total messages size (bytes):
             size <=      128                   0                        0
       128 < size <=     8192                   0                        0
      8192 < size <=    32768                   0                        0
     32768 < size <=   131072                   0                        0
    131072 < size <=  4194304                   0                        0
   4194304 < size <= 16777216                   0                        0
  16777216 < size                               0                        0
 -------------------------------------------------------------------------------

 MEMORY| Estimated peak process memory [MiB]                                 315

 -------------------------------------------------------------------------------
 -                                                                             -
 -                           R E F E R E N C E S                               -
 -                                                                             -
 -------------------------------------------------------------------------------
 
 CP2K version 7.0 (Development Version), the CP2K developers group (2018).
 CP2K is freely available from https://www.cp2k.org/ .

 Schuett, O; VandeVondele, J. 
 Journal of Chemical Theory and Computation, 14, (2018). 
 Machine Learning Adaptive Basis Sets for Efficient Large Scale Density Functional Theory Simulation.
 https://dx.doi.org/10.1021/acs.jctc.8b00378


 Schuett, Ole; Messmer, Peter; Hutter, Juerg; VandeVondele, Joost. 
 Electronic Structure Calculations on Graphics Processing Units, John Wiley & Sons, Ltd, 173-190 (2016). 
 GPU-Accelerated Sparse Matrix-Matrix Multiplication for Linear Scaling Density Functional Theory.
 https://dx.doi.org/10.1002/9781118670712.ch8


 Borstnik, U; VandeVondele, J; Weber, V; Hutter, J. 
 PARALLEL COMPUTING, 40 (5-6), 47-58 (2014). 
 Sparse matrix multiplication: The distributed block-compressed sparse
 row library.
 https://dx.doi.org/10.1016/j.parco.2014.03.012


 Hutter, J; Iannuzzi, M; Schiffmann, F; VandeVondele, J. 
 WILEY INTERDISCIPLINARY REVIEWS-COMPUTATIONAL MOLECULAR SCIENCE, 4 (1), 15-25 (2014). 
 CP2K: atomistic simulations of condensed matter systems.
 https://dx.doi.org/10.1002/wcms.1159


 VandeVondele, J; Borstnik, U; Hutter, J. 
 JOURNAL OF CHEMICAL THEORY AND COMPUTATION, 8 (10), 3565-3573 (2012). 
 Linear Scaling Self-Consistent Field Calculations with Millions of Atoms
 in the Condensed Phase.
 https://dx.doi.org/10.1021/ct200897x


 VandeVondele, J; Hutter, J. 
 JOURNAL OF CHEMICAL PHYSICS, 127 (11), 114105 (2007). 
 Gaussian basis sets for accurate calculations on molecular systems in
 gas and condensed phases.
 https://dx.doi.org/10.1063/1.2770708


 Krack, M. 
 THEORETICAL CHEMISTRY ACCOUNTS, 114 (1-3), 145-152 (2005). 
 Pseudopotentials for H to Kr optimized for gradient-corrected
 exchange-correlation functionals.
 https://dx.doi.org/10.1007/s00214-005-0655-y


 VandeVondele, J; Krack, M; Mohamed, F; Parrinello, M; Chassaing, T;
 Hutter, J. COMPUTER PHYSICS COMMUNICATIONS, 167 (2), 103-128 (2005). 
 QUICKSTEP: Fast and accurate density functional calculations using a
 mixed Gaussian and plane waves approach.
 https://dx.doi.org/10.1016/j.cpc.2004.12.014


 Frigo, M; Johnson, SG. 
 PROCEEDINGS OF THE IEEE, 93 (2), 216-231 (2005). 
 The design and implementation of FFTW3.
 https://dx.doi.org/10.1109/JPROC.2004.840301


 Niklasson, AMN; Tymczak, CJ; Challacombe, M. 
 JOURNAL OF CHEMICAL PHYSICS, 118 (19), 8611-8620 (2003). 
 Trace resetting density matrix purification in O(N)
 self-consistent-field theory.
 https://dx.doi.org/10.1063/1.1559913


 Hartwigsen, C; Goedecker, S; Hutter, J. 
 PHYSICAL REVIEW B, 58 (7), 3641-3662 (1998). 
 Relativistic separable dual-space Gaussian pseudopotentials from H to Rn.
 https://dx.doi.org/10.1103/PhysRevB.58.3641


 Lippert, G; Hutter, J; Parrinello, M. 
 MOLECULAR PHYSICS, 92 (3), 477-487 (1997). 
 A hybrid Gaussian and plane wave density functional scheme.
 https://dx.doi.org/10.1080/002689797170220


 Perdew, JP; Burke, K; Ernzerhof, M. 
 PHYSICAL REVIEW LETTERS, 77 (18), 3865-3868 (1996). 
 Generalized gradient approximation made simple.
 https://dx.doi.org/10.1103/PhysRevLett.77.3865


 Goedecker, S; Teter, M; Hutter, J. 
 PHYSICAL REVIEW B, 54 (3), 1703-1710 (1996). 
 Separable dual-space Gaussian pseudopotentials.
 https://dx.doi.org/10.1103/PhysRevB.54.1703


 -------------------------------------------------------------------------------
 -                                                                             -
 -                                T I M I N G                                  -
 -                                                                             -
 -------------------------------------------------------------------------------
 SUBROUTINE                       CALLS  ASD         SELF TIME        TOTAL TIME
                                MAXIMUM       AVERAGE  MAXIMUM  AVERAGE  MAXIMUM
 CP2K                                 1  1.0    0.012    0.012   35.934   35.934
 qs_energies                          1  2.0    0.000    0.000   35.439   35.439
 ls_scf                               1  3.0    0.000    0.000   35.282   35.282
 ls_scf_main                          4  4.0    0.001    0.001   21.049   21.049
 ls_scf_dm_to_ks                      9  5.0    0.000    0.000   20.918   20.918
 qs_ks_update_qs_env                 10  6.0    0.000    0.000   16.614   16.614
 rebuild_ks_matrix                   10  7.0    0.000    0.000   16.614   16.614
 qs_ks_build_kohn_sham_matrix        10  8.0    0.001    0.001   16.614   16.614
 pao_update                           4  4.0    0.011    0.011   11.557   11.557
 pao_calc_energy                    425  5.0    0.005    0.005   10.394   10.394
 qs_vxc_create                       10  9.0    0.000    0.000   10.034   10.034
 xc_vxc_pw_create                    10 10.0    0.130    0.130   10.034   10.034
 dbcsr_multiply_generic           23283  8.4    0.540    0.540    8.965    8.965
 xc_rho_set_and_dset_create          10 11.0    0.037    0.037    7.184    7.184
 qs_rho_update_rho                   10  6.0    0.000    0.000    6.878    6.878
 calculate_rho_elec                  10  7.0    5.509    5.509    6.878    6.878
 pw_transfer                        191 10.6    0.014    0.014    6.760    6.760
 fft_wrap_pw1pw2                    171 11.7    0.002    0.002    6.669    6.669
 fft_wrap_pw1pw2_200                111 12.8    0.338    0.338    6.375    6.375
 sum_up_and_integrate                10  9.0    0.020    0.020    5.672    5.672
 integrate_v_rspace                  10 10.0    4.821    4.821    5.652    5.652
 pao_dm_trs4                        425  6.0    0.003    0.003    5.406    5.406
 density_matrix_trs4                434  7.0    0.195    0.195    5.230    5.230
 xc_functional_eval                  10 12.0    0.000    0.000    5.168    5.168
 pbe_lda_eval                        10 13.0    5.168    5.168    5.168    5.168
 ls_scf_init_matrix_S               429  7.0    0.004    0.004    5.009    5.009
 pao_rebuild_S                      425  6.0    0.002    0.002    4.941    4.941
 matrix_sqrt_Newton_Schulz          429  8.0    0.118    0.118    4.529    4.529
 multiply_cannon                  23283  9.4    1.437    1.437    4.247    4.247
 fft3d_s                            172 13.6    3.519    3.519    3.535    3.535
 make_m2s                         46566  9.4    0.204    0.204    2.847    2.847
 pao_guess_initial_P                  1  4.0    0.000    0.000    2.582    2.582
 pao_read_preopt_dm                   1  5.0    0.000    0.000    2.582    2.582
 make_images                      46566 10.4    0.676    0.676    2.512    2.512
 pw_gather_s                         81 13.1    1.725    1.725    1.725    1.725
 multiply_cannon_multrec          23283 10.4    1.492    1.492    1.635    1.635
 density_rs2pw                       10  8.0    0.001    0.001    1.353    1.353
 arnoldi_extremal                   863  8.5    0.005    0.005    1.258    1.258
 arnoldi_normal_ev                  863  9.5    0.013    0.013    1.253    1.253
 pao_calc_AB                        561  5.8    0.001    0.001    1.138    1.138
 pao_calc_AB_direct                 561  6.8    0.031    0.031    1.137    1.137
 pao_calc_grad_lnv_wrt_AB           135  7.0    0.008    0.008    1.074    1.074
 pw_scatter_s                        90 14.2    1.054    1.054    1.054    1.054
 build_subspace                     863 10.5    0.065    0.065    0.945    0.945
 dbcsr_matrix_vector_mult         20679 11.5    0.129    0.129    0.849    0.849
 potential_pw2rs                     10 11.0    0.003    0.003    0.830    0.830
 dbcsr_finalize                   55496  9.6    0.133    0.133    0.822    0.822
 dbcsr_create_new                178047 10.7    0.403    0.403    0.767    0.767
 -------------------------------------------------------------------------------

 The number of warnings for this run is : 0
 
 -------------------------------------------------------------------------------
  **** **** ******  **  PROGRAM ENDED AT                 2019-03-28 17:32:21.814
 ***** ** ***  *** **   PROGRAM RAN ON            oleschuett.zrh.corp.google.com
 **    ****   ******    PROGRAM RAN BY                                oleschuett
 ***** **    ** ** **   PROGRAM PROCESS ID                                 29191
  **** **  *******  **  PROGRAM STOPPED IN /usr/local/google/home/oleschuett/git
                                           /pao_ml_equivar/2H2O_rotations/phi_01
