 DBCSR| CPU Multiplication driver                                           XSMM (U)
 DBCSR| Multrec recursion limit                                              512 (U)
 DBCSR| Multiplication stack size                                           1000 (D)
 DBCSR| Maximum elements for images                                    UNLIMITED (U)
 DBCSR| Multiplicative factor virtual images                                   1 (U)
 DBCSR| Use multiplication densification                                       T (D)
 DBCSR| Multiplication size stacks                                             3 (U)
 DBCSR| Use memory pool for CPU allocation                                     F (U)
 DBCSR| OMP: Current number of threads                                         1
 DBCSR| OMP: Max number of threads                                             1
 DBCSR| Split modifier for TAS multiplication algorithm                  1.0E+00 (U)


  **** **** ******  **  PROGRAM STARTED AT               2023-02-01 10:47:55.406
 ***** ** ***  *** **   PROGRAM STARTED ON                                moritz
 **    ****   ******    PROGRAM STARTED BY                                   ole
 ***** **    ** ** **   PROGRAM PROCESS ID                                148791
  **** **  *******  **  PROGRAM STARTED IN /home/ole/git/pao_ml_equivar/2H2O_MD/
                                           frame_1525

 CP2K| version string:                 CP2K version 2023.1 (Development Version)
 CP2K| source code revision number:                                  git:03b4147
 CP2K| cp2kflags: omp libint fftw3 libxc quip xsmm spglib libvori libbqb libtorc
 CP2K|            h
 CP2K| is freely available from                            https://www.cp2k.org/
 CP2K| Program compiled at                           Mi 01 Feb 2023 10:36:52 CET
 CP2K| Program compiled on                                                moritz
 CP2K| Program compiled for                                                local
 CP2K| Data directory path                               /home/ole/git/cp2k/data
 CP2K| Input file name                                            2H2O_pao44.inp

 GLOBAL| Force Environment number                                              1
 GLOBAL| Basis set file name                                        BASIS_MOLOPT
 GLOBAL| Potential file name                                      GTH_POTENTIALS
 GLOBAL| MM Potential file name                                     MM_POTENTIAL
 GLOBAL| Coordinate file name                                         coords.xyz
 GLOBAL| Method name                                                        CP2K
 GLOBAL| Project name                                                 2H2O_pao44
 GLOBAL| Run type                                                         ENERGY
 GLOBAL| FFT library                                                       FFTW3
 GLOBAL| Diagonalization library                                       ScaLAPACK
 GLOBAL| DGEMM library                                                      BLAS
 GLOBAL| Orthonormality check for eigenvectors                          DISABLED
 GLOBAL| Matrix multiplication library                                 ScaLAPACK
 GLOBAL| All-to-all communication in single precision                          F
 GLOBAL| FFTs using library dependent lengths                                  F
 GLOBAL| Grid backend                                                       AUTO
 GLOBAL| Global print level                                                  LOW
 GLOBAL| MPI I/O enabled                                                       T
 GLOBAL| Total number of message passing processes                             1
 GLOBAL| Number of threads for this process                                    1
 GLOBAL| This output is from process                                           0
 GLOBAL| Stack size for threads created by OpenMP (OMP_STACKSIZE)        default
 GLOBAL| CPU model name           AMD Ryzen Threadripper 3970X 32-Core Processor
 GLOBAL| CPUID                                                              1002
 GLOBAL| Compiled for CPUID                                                    0

 *** HINT in environment.F:884 :: The compiler target flags (generic) used ***
 *** to build this binary cannot exploit all extensions of this CPU model  ***
 *** (x86_avx2). Consider compiler target flags as part of FCFLAGS and     ***
 *** CFLAGS (ARCH file).                                                   ***


 MEMORY| system memory details [Kb]
 MEMORY|                        rank 0           min           max       average
 MEMORY| MemTotal            131773860     131773860     131773860     131773860
 MEMORY| MemFree             114237544     114237544     114237544     114237544
 MEMORY| Buffers                302624        302624        302624        302624
 MEMORY| Cached                7056636       7056636       7056636       7056636
 MEMORY| Slab                   780228        780228        780228        780228
 MEMORY| SReclaimable           332704        332704        332704        332704
 MEMORY| MemLikelyFree       121929508     121929508     121929508     121929508


 GENERATE|  Preliminary Number of Bonds generated:                             0
 GENERATE|  Achieved consistency in connectivity generation.

 *******************************************************************************
 *******************************************************************************
 **                                                                           **
 **     #####                         ##              ##                      **
 **    ##   ##            ##          ##              ##                      **
 **   ##     ##                       ##            ######                    **
 **   ##     ##  ##   ##  ##   #####  ##  ##   ####   ##    #####    #####    **
 **   ##     ##  ##   ##  ##  ##      ## ##   ##      ##   ##   ##  ##   ##   **
 **   ##  ## ##  ##   ##  ##  ##      ####     ###    ##   ######   ######    **
 **    ##  ###   ##   ##  ##  ##      ## ##      ##   ##   ##       ##        **
 **     #######   #####   ##   #####  ##  ##  ####    ##    #####   ##        **
 **           ##                                                    ##        **
 **                                                                           **
 **                                                ... make the atoms dance   **
 **                                                                           **
 **            Copyright (C) by CP2K developers group (2000-2023)             **
 **                      J. Chem. Phys. 152, 194103 (2020)                    **
 **                                                                           **
 *******************************************************************************


 TOTAL NUMBERS AND MAXIMUM NUMBERS

  Total number of            - Atomic kinds:                                   2
                             - Atoms:                                          6
                             - Shell sets:                                     6
                             - Shells:                                        22
                             - Primitive Cartesian functions:                 42
                             - Cartesian basis functions:                     48
                             - Spherical basis functions:                     46

  Maximum angular momentum of- Orbital basis functions:                        2
                             - Local part of the GTH pseudopotential:          2
                             - Non-local part of the GTH pseudopotential:      0

 ------------------------------ Linear scaling SCF -----------------------------
 eps_scf:                                                              0.100E-07
 eps_filter:                                                           0.100E-07
 mixing_fraction:                                                      0.450E+00
 max_scf:                                                                     25
 fixed chemical potential (mu)                                                 F
 has unit metric:                                                              F
 Computing inv(S):                                                             T
 Computing sqrt(S):                                                            T
 Computing S preconditioner                                                    F
 S sqrt method:                                                     NEWTONSCHULZ
 S sqrt order:                                                                 3
 Extrapolation order:                                                          1
 Use single precision matrices                                                 F
 S preconditioner type                                                      NONE
 Polarized Atomic Orbitals (PAO)                                               T
 Purification method                                   Trace resetting 4th order
 Cluster type                                                             ATOMIC
 Computing Chebyshev                                                       FALSE
 Using PAO                                                                     T
 -------------------------------------------------------------------------------

 
 PAO|                                  EPS_PAO                           0.5E-06
 PAO|                                  MIXING                            0.5E+00
 PAO|                                  MAX_PAO                              1500
 PAO|                                  MAX_CYCLES                           1000
 PAO|                                  PARAMETERIZATION              EQUIVARIANT
 PAO|                                  PRECONDITION                            F
 PAO|                                  REGULARIZATION                    0.0E+00
 PAO|                                  EPS_PGF                           0.1E-09
 PAO|                                  PENALTY_DISTANCE                  0.1E+00
 PAO|                                  PENALTY_STRENGTH                  0.5E-02
 PAO|                                  LINPOT_PRECONDITION_DELTA         0.0E+00
 PAO|                                  LINPOT_INITGUESS_DELT             0.0E+00
 PAO|                                  LINPOT_REGULARIZATION_DELTA       0.0E+00
 PAO|                                  LINPOT_REGULARIZATION_STRENGTH    0.0E+00
 PAO|                                  OPTIMIZER                              CG
 PAO|                                  CG_INIT_STEPS                           2
 PAO|                                  CG_RESET_LIMIT                    0.1E+00
 PAO|                                  CHECK_UNITARY_TOL                -0.1E+01
 PAO|                                  CHECK_GRADIENT_TOL               -0.1E+01
 PAO|                                  NUM_GRADIENT_ORDER                      2
 PAO|                                  NUM_GRADIENT_EPS                  0.1E-07
 PAO|                                  PRINT%RESTART%WRITE_CYCLES            100
 PAO|                                  RESTART_FILE 
 PAO|                                  PREOPT_DM_FILE 2H2O_ref_LS_DM_SPIN_1_RESTART.dm
 PAO|                                  MACHINE_LEARNING%METHOD       GAUSSIAN_PR
 PAO|                                  MACHINE_LEARNING%PRIOR               ZERO
 PAO|                                  MACHINE_LEARNING%DESCRIPTOR     POTENTIAL
 PAO|                                  MACHINE_LEARNING%TOLERANCE        0.1E-01
 PAO|                                  MACHINE_LEARNING%GP_NOISE_VAR     0.1E+00
 PAO|                                  MACHINE_LEARNING%GP_SCALE         0.5E-01
 

 Calculating atomic Fock matrix for atomic kind: O

 Electronic structure
    Total number of core electrons                                          2.00
    Total number of valence electrons                                       6.00
    Total number of electrons                                               8.00
    Multiplicity                                                   not specified
    S   [  2.00] 2.00
    P      4.00


 *******************************************************************************
                  Iteration          Convergence                     Energy [au]
 *******************************************************************************
                          1        0.708315                     -15.576645311500
                          2        0.608879                     -15.587933561584
                          3        0.102828E-01                 -15.656849565404
                          4        0.113889E-02                 -15.656866888140
                          5        0.434197E-03                 -15.656867072159
                          6        0.263771E-03                 -15.656867091904
                          7        0.478536E-06                 -15.656867103452

 Energy components [Hartree]           Total Energy ::          -15.656867103452
                                        Band Energy ::           -3.000198112285
                                     Kinetic Energy ::           11.759971203220
                                   Potential Energy ::          -27.416838306672
                                      Virial (-V/T) ::            2.331369510426
                                        Core Energy ::          -26.140716385623
                                          XC Energy ::           -3.154051012914
                                     Coulomb Energy ::           13.637900295084
                       Total Pseudopotential Energy ::          -37.935781716540
                       Local Pseudopotential Energy ::          -39.218907440693
                    Nonlocal Pseudopotential Energy ::            1.283125724153
                                        Confinement ::            0.350941276976

 Orbital energies  State     L     Occupation   Energy[a.u.]          Energy[eV]

                       1     0          2.000      -0.864471          -23.523463

                       1     1          4.000      -0.317814           -8.648154


 Total Electron Density at R=0:                                         0.000068

 Calculating atomic Fock matrix for atomic kind: H

 Electronic structure
    Total number of core electrons                                          0.00
    Total number of valence electrons                                       1.00
    Total number of electrons                                               1.00
    Multiplicity                                                   not specified
    S      1.00


 *******************************************************************************
                  Iteration          Convergence                     Energy [au]
 *******************************************************************************
                          1        0.437545E-02                  -0.424159432110
                          2        0.531356E-03                  -0.424178438213
                          3        0.259176E-06                  -0.424178722480

 Energy components [Hartree]           Total Energy ::           -0.424178722480
                                        Band Energy ::           -0.199015229016
                                     Kinetic Energy ::            0.464007633961
                                   Potential Energy ::           -0.888186356441
                                      Virial (-V/T) ::            1.914163240935
                                        Core Energy ::           -0.479160803564
                                          XC Energy ::           -0.244352904054
                                     Coulomb Energy ::            0.299334985138
                       Total Pseudopotential Energy ::           -0.962295316385
                       Local Pseudopotential Energy ::           -0.962295316385
                    Nonlocal Pseudopotential Energy ::            0.000000000000
                                        Confinement ::            0.191268788606

 Orbital energies  State     L     Occupation   Energy[a.u.]          Energy[eV]

                       1     0          1.000      -0.199015           -5.415480


 Total Electron Density at R=0:                                         0.242907
 PAO| Made initial guess for matrix_X with norm:   4.8989794855663558     

     Lanczos converged:  T threshold:   0.100E-02
     Est. extremal eigenvalues:    0.321E+01   0.119E+00
     Est. condition number :    0.269E+02

 Order=           3
     NS sqrt iter    1 1.00000000   0.782E+00       0.001       56.447
     NS sqrt iter    2 1.00000000   0.413E+00       0.001      110.592
     NS sqrt iter    3 1.00000000   0.155E+00       0.001      110.592
     NS sqrt iter    4 1.00000000   0.161E-01       0.001      110.592
     NS sqrt iter    5 1.00000000   0.265E-04       0.001       83.328
     Symmetrizing Results
     Final NS sqrt iter    5 1.00000000   0.113E-08

 PAO| Read restart DM 2H2O_ref_LS_DM_SPIN_1_RESTART.dm with checksum:    69.164351406787873     
 PAO| Quickstep energy from restart density:  -34.445353859762662     
 PAO| ======================= Iteration:         1 =============================

     Lanczos converged:  T threshold:   0.100E-02
     Est. extremal eigenvalues:    0.321E+01   0.119E+00
     Est. condition number :    0.269E+02

 Order=           3
     NS sqrt iter    1 1.00000000   0.782E+00       0.001       64.512
     NS sqrt iter    2 1.00000000   0.413E+00       0.001      110.592
     NS sqrt iter    3 1.00000000   0.155E+00       0.001      110.592
     NS sqrt iter    4 1.00000000   0.161E-01       0.001      110.592
     NS sqrt iter    5 1.00000000   0.265E-04       0.001       83.328
     Symmetrizing Results
     Final NS sqrt iter    5 1.00000000   0.113E-08

     Est. extremal eigenvalues     -0.90397     1.66573  converged:  T
     TRS4 it   1 1.00000000   0.849E+00       0.000       16.128   0.100E-07
     TRS4 it   2 1.00000000   0.645E+00       0.017        1.942   0.100E-07
     TRS4 it   3 1.00000000   0.473E+00       0.001       32.256   0.100E-07
     TRS4 it   4 1.00000000   0.295E+00       0.001       32.256   0.100E-07
     TRS4 it   5 1.00000000   0.142E+00       0.001       32.256   0.100E-07
     TRS4 it   6 1.00000000   0.386E-01       0.001       32.256   0.100E-07
     TRS4 it   7 1.00000000   0.365E-02       0.001       32.256   0.100E-07
     TRS4 it   8 1.00000000   0.418E-04       0.001       32.256   0.100E-07
     TRS4 it   9 1.00000000   0.685E-08       0.001       32.256   0.100E-07
     Final TRS4 iteration    9 1.00000000   0.685E-08
     Chemical potential (mu):      -0.06502
 
 PAO| energy:  -7.5376287758550884      penalty:   3.3280069439011431E-033
 PAO|CG| warming up with steepest descent
 PAO|CG| beta:    0.0000000000000000     
 PAO| norm of gradient:  0.78967958536835403     
 PAO|LS| adapt:  T F F
 PAO|LS| adapt: scan_steps:    0.0000000000000000        0.0000000000000000        0.0000000000000000     
 PAO|LS| adapt: energies:   -7.5376287758550884        0.0000000000000000        0.0000000000000000     
 PAO| ======================= Iteration:         2 =============================

     Lanczos converged:  T threshold:   0.100E-02
     Est. extremal eigenvalues:    0.314E+01   0.136E+00
     Est. condition number :    0.230E+02

 Order=           3
     NS sqrt iter    1 1.00000000   0.770E+00       0.001       64.512
     NS sqrt iter    2 1.00000000   0.400E+00       0.001      110.592
     NS sqrt iter    3 1.00000000   0.138E+00       0.001      110.592
     NS sqrt iter    4 1.00000000   0.107E-01       0.001      110.592
     NS sqrt iter    5 1.00000000   0.697E-05       0.017        4.886
     Symmetrizing Results
     Final NS sqrt iter    5 1.00000000   0.749E-10

     Est. extremal eigenvalues     -0.90771     1.61269  converged:  T
     TRS4 it   1 1.00000000   0.840E+00       0.000       16.128   0.100E-07
     TRS4 it   2 1.00000000   0.624E+00       0.001       32.256   0.100E-07
     TRS4 it   3 1.00000000   0.451E+00       0.001       32.256   0.100E-07
     TRS4 it   4 1.00000000   0.269E+00       0.001       32.256   0.100E-07
     TRS4 it   5 1.00000000   0.118E+00       0.001       32.256   0.100E-07
     TRS4 it   6 1.00000000   0.270E-01       0.001       32.256   0.100E-07
     TRS4 it   7 1.00000000   0.180E-02       0.001       32.256   0.100E-07
     TRS4 it   8 1.00000000   0.103E-04       0.001       32.256   0.100E-07
     TRS4 it   9 1.00000000   0.422E-09       0.001       32.256   0.100E-07
     Final TRS4 iteration    9 1.00000000   0.422E-09
     Chemical potential (mu):      -0.05290
 
 PAO| energy:  -7.5938481425042283      penalty:   2.3250672081581418E-008
 PAO|LS| adapt:  T T F
 PAO|LS| adapt: scan_steps:    0.0000000000000000       0.10000000000000001        0.0000000000000000     
 PAO|LS| adapt: energies:   -7.5376287758550884       -7.5938481425042283        0.0000000000000000     
 PAO| ======================= Iteration:         3 =============================

     Lanczos converged:  T threshold:   0.100E-02
     Est. extremal eigenvalues:    0.306E+01   0.154E+00
     Est. condition number :    0.199E+02

 Order=           3
     NS sqrt iter    1 1.00000000   0.757E+00       0.001       64.304
     NS sqrt iter    2 1.00000000   0.385E+00       0.001      110.592
     NS sqrt iter    3 1.00000000   0.122E+00       0.001      110.592
     NS sqrt iter    4 1.00000000   0.711E-02       0.001      110.592
     NS sqrt iter    5 1.00000000   0.180E-05       0.013        6.326
     Symmetrizing Results
     Final NS sqrt iter    5 1.00000000   0.448E-09

     Est. extremal eigenvalues     -0.91119     1.57522  converged:  T
     TRS4 it   1 1.00000000   0.835E+00       0.000       16.128   0.100E-07
     TRS4 it   2 1.00000000   0.607E+00       0.001       32.256   0.100E-07
     TRS4 it   3 1.00000000   0.430E+00       0.001       32.256   0.100E-07
     TRS4 it   4 1.00000000   0.244E+00       0.001       32.256   0.100E-07
     TRS4 it   5 1.00000000   0.974E-01       0.001       32.256   0.100E-07
     TRS4 it   6 1.00000000   0.183E-01       0.001       32.256   0.100E-07
     TRS4 it   7 1.00000000   0.818E-03       0.001       32.256   0.100E-07
     TRS4 it   8 1.00000000   0.213E-05       0.001       32.256   0.100E-07
     TRS4 it   9 1.00000000   0.184E-10       0.001       32.256   0.100E-07
     Final TRS4 iteration    9 1.00000000   0.184E-10
     Chemical potential (mu):      -0.03973
 
 PAO| energy:  -7.6371188934752716      penalty:   3.7201076299116769E-007
 PAO|LS| adapt:  T T F
 PAO|LS| adapt: scan_steps:    0.0000000000000000       0.20000000000000001        0.0000000000000000     
 PAO|LS| adapt: energies:   -7.5376287758550884       -7.6371188934752716        0.0000000000000000     
 PAO| ======================= Iteration:         4 =============================

     Lanczos converged:  T threshold:   0.100E-02
     Est. extremal eigenvalues:    0.289E+01   0.173E+00
     Est. condition number :    0.167E+02

 Order=           3
     NS sqrt iter    1 1.00000000   0.726E+00       0.001       64.401
     NS sqrt iter    2 1.00000000   0.353E+00       0.001      110.592
     NS sqrt iter    3 1.00000000   0.943E-01       0.001      110.071
     NS sqrt iter    4 1.00000000   0.324E-02       0.001      110.060
     NS sqrt iter    5 1.00000000   0.188E-06       0.017        4.513
     Symmetrizing Results
     Final NS sqrt iter    5 1.00000000   0.778E-09

     Est. extremal eigenvalues     -0.91650     1.53271  converged:  T
     TRS4 it   1 1.00000000   0.832E+00       0.000       16.128   0.100E-07
     TRS4 it   2 1.00000000   0.583E+00       0.001       32.256   0.100E-07
     TRS4 it   3 1.00000000   0.394E+00       0.001       32.256   0.100E-07
     TRS4 it   4 1.00000000   0.203E+00       0.001       32.256   0.100E-07
     TRS4 it   5 1.00000000   0.654E-01       0.001       32.256   0.100E-07
     TRS4 it   6 1.00000000   0.787E-02       0.001       32.256   0.100E-07
     TRS4 it   7 1.00000000   0.142E-03       0.001       32.256   0.100E-07
     TRS4 it   8 1.00000000   0.640E-07       0.001       32.256   0.100E-07
     Final TRS4 iteration    8 1.00000000   0.640E-07
     Chemical potential (mu):      -0.01132
 
 PAO| energy:  -7.6832387851960018      penalty:   5.9521722853462117E-006
 PAO|LS| Need extra step
 PAO|LS| adapt:  T T F
 PAO|LS| adapt: scan_steps:    0.0000000000000000       0.40000000000000002        0.0000000000000000     
 PAO|LS| adapt: energies:   -7.5376287758550884       -7.6832387851960018        0.0000000000000000     
 PAO| ======================= Iteration:         5 =============================

     Lanczos converged:  T threshold:   0.100E-02
     Est. extremal eigenvalues:    0.256E+01   0.197E+00
     Est. condition number :    0.130E+02

 Order=           3
     NS sqrt iter    1 1.00000000   0.666E+00       0.001       64.512
     NS sqrt iter    2 1.00000000   0.293E+00       0.017        6.501
     NS sqrt iter    3 1.00000000   0.565E-01       0.001      110.592
     NS sqrt iter    4 1.00000000   0.827E-03       0.001      110.592
     NS sqrt iter    5 1.00000000   0.317E-08       0.001       36.864
     Symmetrizing Results
     Final NS sqrt iter    5 1.00000000   0.224E-08

     Est. extremal eigenvalues     -0.91726     1.50447  converged:  T
     TRS4 it   1 1.00000000   0.837E+00       0.000       16.128   0.100E-07
     TRS4 it   2 1.00000000   0.555E+00       0.001       32.256   0.100E-07
     TRS4 it   3 1.00000000   0.344E+00       0.001       32.256   0.100E-07
     TRS4 it   4 1.00000000   0.146E+00       0.001       32.256   0.100E-07
     TRS4 it   5 1.00000000   0.316E-01       0.001       32.256   0.100E-07
     TRS4 it   6 1.00000000   0.164E-02       0.001       32.256   0.100E-07
     TRS4 it   7 1.00000000   0.534E-05       0.001       32.256   0.100E-07
     TRS4 it   8 1.00000000   0.797E-10       0.001       32.256   0.100E-07
     Final TRS4 iteration    8 1.00000000   0.797E-10
     Chemical potential (mu):       0.03497
 
 PAO| energy:  -7.6210419882388694      penalty:   9.5234757185441683E-005
 PAO|LS| Need extra step
 PAO|LS| adapt:  T T T
 PAO|LS| adapt: scan_steps:    0.0000000000000000       0.40000000000000002       0.80000000000000004     
 PAO|LS| adapt: energies:   -7.5376287758550884       -7.6832387851960018       -7.6210419882388694     
 PAO|LS| adapt: suggested step_size:   0.48027957685288336     
 PAO|LS| adapt: predicted energy  -7.6874240210673204     
 PAO| ======================= Iteration:         6 =============================

     Lanczos converged:  T threshold:   0.100E-02
     Est. extremal eigenvalues:    0.282E+01   0.178E+00
     Est. condition number :    0.159E+02

 Order=           3
     NS sqrt iter    1 1.00000000   0.712E+00       0.001       64.512
     NS sqrt iter    2 1.00000000   0.340E+00       0.001      110.537
     NS sqrt iter    3 1.00000000   0.848E-01       0.017        6.464
     NS sqrt iter    4 1.00000000   0.241E-02       0.001       98.097
     NS sqrt iter    5 1.00000000   0.913E-07       0.001       64.195
     Symmetrizing Results
     Final NS sqrt iter    5 1.00000000   0.356E-09

     Est. extremal eigenvalues     -0.91779     1.52325  converged:  T
     TRS4 it   1 1.00000000   0.833E+00       0.000       16.128   0.100E-07
     TRS4 it   2 1.00000000   0.576E+00       0.001       32.256   0.100E-07
     TRS4 it   3 1.00000000   0.382E+00       0.001       32.256   0.100E-07
     TRS4 it   4 1.00000000   0.189E+00       0.001       32.256   0.100E-07
     TRS4 it   5 1.00000000   0.559E-01       0.001       32.256   0.100E-07
     TRS4 it   6 1.00000000   0.558E-02       0.001       32.256   0.100E-07
     TRS4 it   7 1.00000000   0.685E-04       0.001       32.256   0.100E-07
     TRS4 it   8 1.00000000   0.145E-07       0.001       32.256   0.100E-07
     Final TRS4 iteration    8 1.00000000   0.145E-07
     Chemical potential (mu):      -0.00002
 
 PAO| energy:  -7.6867131152675441      penalty:   1.2371205078789109E-005
 PAO|CG| warming up with steepest descent
 PAO|CG| beta:    0.0000000000000000     
 PAO| norm of gradient:  0.41389449990677146     
 PAO| energy improvement: -0.14908433941245569     
 PAO| step      6                   -7.686713115  0.259E-01  0.480E+00     0.176
 PAO|LS| adapt:  T F F
 PAO|LS| adapt: scan_steps:    0.0000000000000000        0.0000000000000000        0.0000000000000000     
 PAO|LS| adapt: energies:   -7.6867131152675441        0.0000000000000000        0.0000000000000000     
 PAO| ======================= Iteration:         7 =============================

     Lanczos converged:  T threshold:   0.100E-02
     Est. extremal eigenvalues:    0.274E+01   0.194E+00
     Est. condition number :    0.141E+02

 Order=           3
     NS sqrt iter    1 1.00000000   0.697E+00       0.001       58.447
     NS sqrt iter    2 1.00000000   0.320E+00       0.001       98.654
     NS sqrt iter    3 1.00000000   0.702E-01       0.001       98.231
     NS sqrt iter    4 1.00000000   0.139E-02       0.001      101.183
     NS sqrt iter    5 1.00000000   0.178E-07       0.001       47.616
     Symmetrizing Results
     Final NS sqrt iter    5 1.00000000   0.251E-08

     Est. extremal eigenvalues     -0.91954     1.51642  converged:  T
     TRS4 it   1 1.00000000   0.833E+00       0.000       16.128   0.100E-07
     TRS4 it   2 1.00000000   0.575E+00       0.001       32.256   0.100E-07
     TRS4 it   3 1.00000000   0.383E+00       0.001       32.256   0.100E-07
     TRS4 it   4 1.00000000   0.190E+00       0.001       32.256   0.100E-07
     TRS4 it   5 1.00000000   0.565E-01       0.001       32.256   0.100E-07
     TRS4 it   6 1.00000000   0.562E-02       0.001       32.256   0.100E-07
     TRS4 it   7 1.00000000   0.667E-04       0.001       32.256   0.100E-07
     TRS4 it   8 1.00000000   0.125E-07       0.001       32.256   0.100E-07
     Final TRS4 iteration    8 1.00000000   0.125E-07
     Chemical potential (mu):       0.00012
 
 PAO| energy:  -7.6838185811215025      penalty:   1.8500420195949991E-005
 PAO|LS| adapt:  T F T
 PAO|LS| adapt: scan_steps:    0.0000000000000000        0.0000000000000000       0.48027957685288336     
 PAO|LS| adapt: energies:   -7.6867131152675441        0.0000000000000000       -7.6838185811215025     
 PAO| ======================= Iteration:         8 =============================

     Lanczos converged:  T threshold:   0.100E-02
     Est. extremal eigenvalues:    0.278E+01   0.186E+00
     Est. condition number :    0.150E+02

 Order=           3
     NS sqrt iter    1 1.00000000   0.705E+00       0.001       64.512
     NS sqrt iter    2 1.00000000   0.330E+00       0.001      110.592
     NS sqrt iter    3 1.00000000   0.773E-01       0.001      110.592
     NS sqrt iter    4 1.00000000   0.184E-02       0.001      110.592
     NS sqrt iter    5 1.00000000   0.419E-07       0.001       58.534
     Symmetrizing Results
     Final NS sqrt iter    5 1.00000000   0.218E-08

     Est. extremal eigenvalues     -0.91952     1.51921  converged:  T
     TRS4 it   1 1.00000000   0.832E+00       0.000       16.128   0.100E-07
     TRS4 it   2 1.00000000   0.575E+00       0.001       32.256   0.100E-07
     TRS4 it   3 1.00000000   0.382E+00       0.001       32.256   0.100E-07
     TRS4 it   4 1.00000000   0.189E+00       0.001       32.256   0.100E-07
     TRS4 it   5 1.00000000   0.562E-01       0.001       32.256   0.100E-07
     TRS4 it   6 1.00000000   0.569E-02       0.001       32.256   0.100E-07
     TRS4 it   7 1.00000000   0.704E-04       0.001       32.256   0.100E-07
     TRS4 it   8 1.00000000   0.146E-07       0.001       32.256   0.100E-07
     Final TRS4 iteration    8 1.00000000   0.146E-07
     Chemical potential (mu):      -0.00038
 
 PAO| energy:  -7.7063620838393918      penalty:   1.3385398447946303E-005
 PAO|LS| adapt:  T T T
 PAO|LS| adapt: scan_steps:    0.0000000000000000       0.24013978842644168       0.48027957685288336     
 PAO|LS| adapt: energies:   -7.6867131152675441       -7.7063620838393918       -7.6838185811215025     
 PAO|LS| adapt: suggested step_size:   0.23190262198209777     
 PAO|LS| adapt: predicted energy  -7.7063869055897731     
 PAO| ======================= Iteration:         9 =============================

     Lanczos converged:  T threshold:   0.100E-02
     Est. extremal eigenvalues:    0.278E+01   0.186E+00
     Est. condition number :    0.150E+02

 Order=           3
     NS sqrt iter    1 1.00000000   0.705E+00       0.001       57.312
     NS sqrt iter    2 1.00000000   0.330E+00       0.001       98.136
     NS sqrt iter    3 1.00000000   0.776E-01       0.001       98.446
     NS sqrt iter    4 1.00000000   0.186E-02       0.001       98.726
     NS sqrt iter    5 1.00000000   0.431E-07       0.001       58.752
     Symmetrizing Results
     Final NS sqrt iter    5 1.00000000   0.366E-08

     Est. extremal eigenvalues     -0.91949     1.51933  converged:  T
     TRS4 it   1 1.00000000   0.832E+00       0.000       16.128   0.100E-07
     TRS4 it   2 1.00000000   0.575E+00       0.001       32.256   0.100E-07
     TRS4 it   3 1.00000000   0.382E+00       0.001       32.256   0.100E-07
     TRS4 it   4 1.00000000   0.189E+00       0.001       32.256   0.100E-07
     TRS4 it   5 1.00000000   0.562E-01       0.001       32.256   0.100E-07
     TRS4 it   6 1.00000000   0.569E-02       0.001       32.256   0.100E-07
     TRS4 it   7 1.00000000   0.705E-04       0.001       32.256   0.100E-07
     TRS4 it   8 1.00000000   0.147E-07       0.001       32.256   0.100E-07
     Final TRS4 iteration    8 1.00000000   0.147E-07
     Chemical potential (mu):      -0.00038
 
 PAO| energy:  -7.7063978475048067      penalty:   1.3300787909263898E-005
 PAO|CG| trace_G_new    3.7572884681190702E-002
 PAO|CG| trace_G_prev   0.17130865705307644     
 PAO|CG| trace_G_mix   -1.3079574970368691E-003
 PAO|CG| trace_D   0.17130865705307644     
 PAO|CG| trace_D_Gnew   1.3079574970368691E-003
 PAO|CG| beta:   0.22696367391509670     
 PAO| norm of gradient:  0.19383726339687810     
 PAO| energy improvement:  -1.9684732237262637E-002
 PAO| step      9                   -7.706397848  0.121E-01  0.232E+00     0.053
 PAO|LS| adapt:  T F F
 PAO|LS| adapt: scan_steps:    0.0000000000000000        0.0000000000000000        0.0000000000000000     
 PAO|LS| adapt: energies:   -7.7063978475048067        0.0000000000000000        0.0000000000000000     
 PAO| ======================= Iteration:        10 =============================

     Lanczos converged:  T threshold:   0.100E-02
     Est. extremal eigenvalues:    0.275E+01   0.191E+00
     Est. condition number :    0.144E+02

 Order=           3
     NS sqrt iter    1 1.00000000   0.697E+00       0.001       59.002
     NS sqrt iter    2 1.00000000   0.322E+00       0.001      101.843
     NS sqrt iter    3 1.00000000   0.722E-01       0.001       99.111
     NS sqrt iter    4 1.00000000   0.151E-02       0.001       97.603
     NS sqrt iter    5 1.00000000   0.234E-07       0.001       48.503
     Symmetrizing Results
     Final NS sqrt iter    5 1.00000000   0.324E-08

     Est. extremal eigenvalues     -0.92043     1.52372  converged:  T
     TRS4 it   1 1.00000000   0.834E+00       0.000       16.128   0.100E-07
     TRS4 it   2 1.00000000   0.576E+00       0.001       32.256   0.100E-07
     TRS4 it   3 1.00000000   0.382E+00       0.001       32.256   0.100E-07
     TRS4 it   4 1.00000000   0.188E+00       0.001       32.256   0.100E-07
     TRS4 it   5 1.00000000   0.553E-01       0.001       32.256   0.100E-07
     TRS4 it   6 1.00000000   0.546E-02       0.001       32.256   0.100E-07
     TRS4 it   7 1.00000000   0.634E-04       0.001       32.256   0.100E-07
     TRS4 it   8 1.00000000   0.115E-07       0.001       32.256   0.100E-07
     Final TRS4 iteration    8 1.00000000   0.115E-07
     Chemical potential (mu):       0.00238
 
 PAO| energy:  -7.7114310258425691      penalty:   1.3866936357458628E-005
 PAO|LS| adapt:  T T F
 PAO|LS| adapt: scan_steps:    0.0000000000000000       0.23190262198209777        0.0000000000000000     
 PAO|LS| adapt: energies:   -7.7063978475048067       -7.7114310258425691        0.0000000000000000     
 PAO| ======================= Iteration:        11 =============================

     Lanczos converged:  T threshold:   0.100E-02
     Est. extremal eigenvalues:    0.271E+01   0.197E+00
     Est. condition number :    0.138E+02

 Order=           3
     NS sqrt iter    1 1.00000000   0.689E+00       0.001       64.512
     NS sqrt iter    2 1.00000000   0.313E+00       0.001      110.592
     NS sqrt iter    3 1.00000000   0.670E-01       0.001      110.592
     NS sqrt iter    4 1.00000000   0.121E-02       0.001      109.871
     NS sqrt iter    5 1.00000000   0.117E-07       0.001       42.880
     Symmetrizing Results
     Final NS sqrt iter    5 1.00000000   0.499E-08

     Est. extremal eigenvalues     -0.92014     1.52991  converged:  T
     TRS4 it   1 1.00000000   0.836E+00       0.000       16.128   0.100E-07
     TRS4 it   2 1.00000000   0.577E+00       0.001       32.256   0.100E-07
     TRS4 it   3 1.00000000   0.382E+00       0.001       32.256   0.100E-07
     TRS4 it   4 1.00000000   0.187E+00       0.001       32.256   0.100E-07
     TRS4 it   5 1.00000000   0.546E-01       0.001       32.256   0.100E-07
     TRS4 it   6 1.00000000   0.526E-02       0.001       32.256   0.100E-07
     TRS4 it   7 1.00000000   0.576E-04       0.001       32.256   0.100E-07
     TRS4 it   8 1.00000000   0.909E-08       0.001       32.256   0.100E-07
     Final TRS4 iteration    8 1.00000000   0.909E-08
     Chemical potential (mu):       0.00519
 
 PAO| energy:  -7.7095138866922888      penalty:   1.5117035501626283E-005
 PAO|LS| adapt:  T T T
 PAO|LS| adapt: scan_steps:    0.0000000000000000       0.23190262198209777       0.46380524396419553     
 PAO|LS| adapt: energies:   -7.7063978475048067       -7.7114310258425691       -7.7095138866922888     
 PAO|LS| adapt: suggested step_size:   0.28388712909412783     
 PAO|LS| adapt: predicted energy  -7.7116056527613148     
 PAO| ======================= Iteration:        12 =============================

     Lanczos converged:  T threshold:   0.100E-02
     Est. extremal eigenvalues:    0.274E+01   0.192E+00
     Est. condition number :    0.142E+02

 Order=           3
     NS sqrt iter    1 1.00000000   0.695E+00       0.001       59.128
     NS sqrt iter    2 1.00000000   0.320E+00       0.001       97.222
     NS sqrt iter    3 1.00000000   0.710E-01       0.001       99.484
     NS sqrt iter    4 1.00000000   0.144E-02       0.001      100.387
     NS sqrt iter    5 1.00000000   0.204E-07       0.001       48.280
     Symmetrizing Results
     Final NS sqrt iter    5 1.00000000   0.232E-09

     Est. extremal eigenvalues     -0.92047     1.52496  converged:  T
     TRS4 it   1 1.00000000   0.834E+00       0.000       16.128   0.100E-07
     TRS4 it   2 1.00000000   0.576E+00       0.001       32.256   0.100E-07
     TRS4 it   3 1.00000000   0.382E+00       0.001       32.256   0.100E-07
     TRS4 it   4 1.00000000   0.188E+00       0.001       32.256   0.100E-07
     TRS4 it   5 1.00000000   0.551E-01       0.001       32.256   0.100E-07
     TRS4 it   6 1.00000000   0.541E-02       0.001       32.256   0.100E-07
     TRS4 it   7 1.00000000   0.620E-04       0.001       32.256   0.100E-07
     TRS4 it   8 1.00000000   0.109E-07       0.001       32.256   0.100E-07
     Final TRS4 iteration    8 1.00000000   0.109E-07
     Chemical potential (mu):       0.00300
 
 PAO| energy:  -7.7115908156696982      penalty:   1.4080819299111396E-005
 PAO|CG| trace_G_new    1.2166139610611113E-002
 PAO|CG| trace_G_prev    3.7572884681190702E-002
 PAO|CG| trace_G_mix   -5.2608769205745914E-004
 PAO|CG| trace_D    4.5803705789169709E-002
 PAO|CG| trace_D_Gnew   2.5621576120475175E-004
 PAO|CG| beta:   0.33780284400208449     
 PAO| norm of gradient:  0.11030022488921368     
 PAO| energy improvement:  -5.1929681648914539E-003
 PAO| step     12                   -7.711590816  0.689E-02  0.284E+00     0.053
 PAO|LS| adapt:  T F F
 PAO|LS| adapt: scan_steps:    0.0000000000000000        0.0000000000000000        0.0000000000000000     
 PAO|LS| adapt: energies:   -7.7115908156696982        0.0000000000000000        0.0000000000000000     
 PAO| ======================= Iteration:        13 =============================

     Lanczos converged:  T threshold:   0.100E-02
     Est. extremal eigenvalues:    0.270E+01   0.197E+00
     Est. condition number :    0.138E+02

 Order=           3
     NS sqrt iter    1 1.00000000   0.688E+00       0.001       59.566
     NS sqrt iter    2 1.00000000   0.313E+00       0.001      100.988
     NS sqrt iter    3 1.00000000   0.669E-01       0.001       97.872
     NS sqrt iter    4 1.00000000   0.121E-02       0.001       99.188
     NS sqrt iter    5 1.00000000   0.116E-07       0.001       40.772
     Symmetrizing Results
     Final NS sqrt iter    5 1.00000000   0.491E-08

     Est. extremal eigenvalues     -0.92098     1.52614  converged:  T
     TRS4 it   1 1.00000000   0.836E+00       0.000       16.128   0.100E-07
     TRS4 it   2 1.00000000   0.575E+00       0.001       32.256   0.100E-07
     TRS4 it   3 1.00000000   0.379E+00       0.001       32.256   0.100E-07
     TRS4 it   4 1.00000000   0.184E+00       0.001       32.256   0.100E-07
     TRS4 it   5 1.00000000   0.526E-01       0.001       32.256   0.100E-07
     TRS4 it   6 1.00000000   0.488E-02       0.001       32.256   0.100E-07
     TRS4 it   7 1.00000000   0.495E-04       0.001       32.256   0.100E-07
     TRS4 it   8 1.00000000   0.675E-08       0.001       32.256   0.100E-07
     Final TRS4 iteration    8 1.00000000   0.675E-08
     Chemical potential (mu):       0.00705
 
 PAO| energy:  -7.7136681067888064      penalty:   1.4386796886260568E-005
 PAO|LS| adapt:  T T F
 PAO|LS| adapt: scan_steps:    0.0000000000000000       0.28388712909412783        0.0000000000000000     
 PAO|LS| adapt: energies:   -7.7115908156696982       -7.7136681067888064        0.0000000000000000     
 PAO| ======================= Iteration:        14 =============================

     Lanczos converged:  T threshold:   0.100E-02
     Est. extremal eigenvalues:    0.267E+01   0.201E+00
     Est. condition number :    0.133E+02

 Order=           3
     NS sqrt iter    1 1.00000000   0.681E+00       0.001       58.052
     NS sqrt iter    2 1.00000000   0.306E+00       0.001       95.494
     NS sqrt iter    3 1.00000000   0.630E-01       0.001       97.893
     NS sqrt iter    4 1.00000000   0.102E-02       0.001       98.873
     NS sqrt iter    5 1.00000000   0.575E-08       0.001       36.975
     Symmetrizing Results
     Final NS sqrt iter    5 1.00000000   0.239E-08

     Est. extremal eigenvalues     -0.92096     1.52742  converged:  T
     TRS4 it   1 1.00000000   0.838E+00       0.000       16.128   0.100E-07
     TRS4 it   2 1.00000000   0.574E+00       0.001       32.256   0.100E-07
     TRS4 it   3 1.00000000   0.377E+00       0.001       32.256   0.100E-07
     TRS4 it   4 1.00000000   0.180E+00       0.001       32.256   0.100E-07
     TRS4 it   5 1.00000000   0.502E-01       0.001       32.256   0.100E-07
     TRS4 it   6 1.00000000   0.441E-02       0.001       32.256   0.100E-07
     TRS4 it   7 1.00000000   0.398E-04       0.001       32.256   0.100E-07
     TRS4 it   8 1.00000000   0.422E-08       0.001       32.256   0.100E-07
     Final TRS4 iteration    8 1.00000000   0.422E-08
     Chemical potential (mu):       0.01096
 
 PAO| energy:  -7.7130901865142549      penalty:   1.5142957193720053E-005
 PAO|LS| adapt:  T T T
 PAO|LS| adapt: scan_steps:    0.0000000000000000       0.28388712909412783       0.56777425818825566     
 PAO|LS| adapt: energies:   -7.7115908156696982       -7.7136681067888064       -7.7130901865142549     
 PAO|LS| adapt: suggested step_size:   0.36404121504092818     
 PAO|LS| adapt: predicted energy  -7.7137739417203903     
 PAO| ======================= Iteration:        15 =============================

     Lanczos converged:  T threshold:   0.100E-02
     Est. extremal eigenvalues:    0.270E+01   0.198E+00
     Est. condition number :    0.136E+02

 Order=           3
     NS sqrt iter    1 1.00000000   0.686E+00       0.001       58.688
     NS sqrt iter    2 1.00000000   0.311E+00       0.001      100.892
     NS sqrt iter    3 1.00000000   0.658E-01       0.001      100.915
     NS sqrt iter    4 1.00000000   0.115E-02       0.001       98.597
     NS sqrt iter    5 1.00000000   0.101E-07       0.001       40.612
     Symmetrizing Results
     Final NS sqrt iter    5 1.00000000   0.480E-08

     Est. extremal eigenvalues     -0.92103     1.52649  converged:  T
     TRS4 it   1 1.00000000   0.837E+00       0.000       16.128   0.100E-07
     TRS4 it   2 1.00000000   0.575E+00       0.001       32.256   0.100E-07
     TRS4 it   3 1.00000000   0.379E+00       0.001       32.256   0.100E-07
     TRS4 it   4 1.00000000   0.183E+00       0.001       32.256   0.100E-07
     TRS4 it   5 1.00000000   0.519E-01       0.001       32.256   0.100E-07
     TRS4 it   6 1.00000000   0.474E-02       0.001       32.256   0.100E-07
     TRS4 it   7 1.00000000   0.465E-04       0.001       32.256   0.100E-07
     TRS4 it   8 1.00000000   0.590E-08       0.001       32.256   0.100E-07
     Final TRS4 iteration    8 1.00000000   0.590E-08
     Chemical potential (mu):       0.00816
 
 PAO| energy:  -7.7137707542708309      penalty:   1.4551560335116477E-005
 PAO|CG| trace_G_new    2.5662556790553639E-003
 PAO|CG| trace_G_prev    1.2166139610611113E-002
 PAO|CG| trace_G_mix    9.3257171381978574E-005
 PAO|CG| trace_D    1.7219734528256730E-002
 PAO|CG| trace_D_Gnew   3.2938503986006468E-005
 PAO|CG| beta:   0.20326895686093191     
 PAO| norm of gradient:   5.0658224199584455E-002
 PAO| energy improvement:  -2.1799386011327471E-003
 PAO| step     15                   -7.713770754  0.317E-02  0.364E+00     0.056
 PAO|LS| adapt:  T F F
 PAO|LS| adapt: scan_steps:    0.0000000000000000        0.0000000000000000        0.0000000000000000     
 PAO|LS| adapt: energies:   -7.7137707542708309        0.0000000000000000        0.0000000000000000     
 PAO| ======================= Iteration:        16 =============================

     Lanczos converged:  T threshold:   0.100E-02
     Est. extremal eigenvalues:    0.269E+01   0.199E+00
     Est. condition number :    0.135E+02

 Order=           3
     NS sqrt iter    1 1.00000000   0.684E+00       0.001       58.715
     NS sqrt iter    2 1.00000000   0.310E+00       0.001       99.887
     NS sqrt iter    3 1.00000000   0.652E-01       0.017        6.435
     NS sqrt iter    4 1.00000000   0.111E-02       0.001       97.970
     NS sqrt iter    5 1.00000000   0.804E-08       0.001       38.801
     Symmetrizing Results
     Final NS sqrt iter    5 1.00000000   0.224E-08

     Est. extremal eigenvalues     -0.92106     1.52639  converged:  T
     TRS4 it   1 1.00000000   0.837E+00       0.000       16.128   0.100E-07
     TRS4 it   2 1.00000000   0.574E+00       0.001       32.256   0.100E-07
     TRS4 it   3 1.00000000   0.377E+00       0.001       32.256   0.100E-07
     TRS4 it   4 1.00000000   0.181E+00       0.001       32.256   0.100E-07
     TRS4 it   5 1.00000000   0.509E-01       0.001       32.256   0.100E-07
     TRS4 it   6 1.00000000   0.457E-02       0.001       32.256   0.100E-07
     TRS4 it   7 1.00000000   0.433E-04       0.001       32.256   0.100E-07
     TRS4 it   8 1.00000000   0.513E-08       0.001       32.256   0.100E-07
     Final TRS4 iteration    8 1.00000000   0.513E-08
     Chemical potential (mu):       0.00915
 
 PAO| energy:  -7.7139122719544231      penalty:   1.4342894246485254E-005
 PAO|LS| adapt:  T T F
 PAO|LS| adapt: scan_steps:    0.0000000000000000       0.36404121504092818        0.0000000000000000     
 PAO|LS| adapt: energies:   -7.7137707542708309       -7.7139122719544231        0.0000000000000000     
 PAO| ======================= Iteration:        17 =============================

     Lanczos converged:  T threshold:   0.100E-02
     Est. extremal eigenvalues:    0.268E+01   0.200E+00
     Est. condition number :    0.134E+02

 Order=           3
     NS sqrt iter    1 1.00000000   0.683E+00       0.001       58.335
     NS sqrt iter    2 1.00000000   0.308E+00       0.017        6.442
     NS sqrt iter    3 1.00000000   0.646E-01       0.001       98.504
     NS sqrt iter    4 1.00000000   0.108E-02       0.001       99.893
     NS sqrt iter    5 1.00000000   0.706E-08       0.001       37.954
     Symmetrizing Results
     Final NS sqrt iter    5 1.00000000   0.703E-09

     Est. extremal eigenvalues     -0.92092     1.52644  converged:  T
     TRS4 it   1 1.00000000   0.838E+00       0.000       16.128   0.100E-07
     TRS4 it   2 1.00000000   0.573E+00       0.001       32.256   0.100E-07
     TRS4 it   3 1.00000000   0.376E+00       0.001       32.256   0.100E-07
     TRS4 it   4 1.00000000   0.180E+00       0.001       32.256   0.100E-07
     TRS4 it   5 1.00000000   0.500E-01       0.001       32.256   0.100E-07
     TRS4 it   6 1.00000000   0.440E-02       0.001       32.256   0.100E-07
     TRS4 it   7 1.00000000   0.404E-04       0.001       32.256   0.100E-07
     TRS4 it   8 1.00000000   0.447E-08       0.001       32.256   0.100E-07
     Final TRS4 iteration    8 1.00000000   0.447E-08
     Chemical potential (mu):       0.01011
 
 PAO| energy:  -7.7124681750968129      penalty:   1.4245776329032491E-005
 PAO|LS| adapt:  T T T
 PAO|LS| adapt: scan_steps:    0.0000000000000000       0.36404121504092818       0.72808243008185636     
 PAO|LS| adapt: energies:   -7.7137707542708309       -7.7139122719544231       -7.7124681750968129     
 PAO|LS| adapt: suggested step_size:   0.21451165004433251     
 PAO|LS| adapt: predicted energy  -7.7140460302276743     
 PAO| ======================= Iteration:        18 =============================

     Lanczos converged:  T threshold:   0.100E-02
     Est. extremal eigenvalues:    0.269E+01   0.198E+00
     Est. condition number :    0.136E+02

 Order=           3
     NS sqrt iter    1 1.00000000   0.685E+00       0.009        7.035
     NS sqrt iter    2 1.00000000   0.310E+00       0.001      101.206
     NS sqrt iter    3 1.00000000   0.654E-01       0.001      100.335
     NS sqrt iter    4 1.00000000   0.113E-02       0.001       99.628
     NS sqrt iter    5 1.00000000   0.900E-08       0.001       39.292
     Symmetrizing Results
     Final NS sqrt iter    5 1.00000000   0.346E-08

     Est. extremal eigenvalues     -0.92106     1.52642  converged:  T
     TRS4 it   1 1.00000000   0.837E+00       0.000       16.128   0.100E-07
     TRS4 it   2 1.00000000   0.574E+00       0.001       32.256   0.100E-07
     TRS4 it   3 1.00000000   0.378E+00       0.001       32.256   0.100E-07
     TRS4 it   4 1.00000000   0.182E+00       0.001       32.256   0.100E-07
     TRS4 it   5 1.00000000   0.513E-01       0.001       32.256   0.100E-07
     TRS4 it   6 1.00000000   0.464E-02       0.001       32.256   0.100E-07
     TRS4 it   7 1.00000000   0.446E-04       0.001       32.256   0.100E-07
     TRS4 it   8 1.00000000   0.544E-08       0.001       32.256   0.100E-07
     Final TRS4 iteration    8 1.00000000   0.544E-08
     Chemical potential (mu):       0.00875
 
 PAO| energy:  -7.7140456215819180      penalty:   1.4415357650088888E-005
 PAO|CG| trace_G_new    7.3493122372711840E-004
 PAO|CG| trace_G_prev    2.5662556790553639E-003
 PAO|CG| trace_G_mix    1.2832726194363932E-006
 PAO|CG| trace_D    3.2643545486686874E-003
 PAO|CG| trace_D_Gnew  -1.7590652688532650E-006
 PAO|CG| beta:   0.28588264103822153     
 PAO| norm of gradient:   2.7109614968256528E-002
 PAO| energy improvement:  -2.7486731108705698E-004
 PAO| step     18                   -7.714045622  0.169E-02  0.215E+00     0.112
 PAO|LS| adapt:  T F F
 PAO|LS| adapt: scan_steps:    0.0000000000000000        0.0000000000000000        0.0000000000000000     
 PAO|LS| adapt: energies:   -7.7140456215819180        0.0000000000000000        0.0000000000000000     
 PAO| ======================= Iteration:        19 =============================

     Lanczos converged:  T threshold:   0.100E-02
     Est. extremal eigenvalues:    0.269E+01   0.198E+00
     Est. condition number :    0.136E+02

 Order=           3
     NS sqrt iter    1 1.00000000   0.685E+00       0.001       59.038
     NS sqrt iter    2 1.00000000   0.310E+00       0.001       99.049
     NS sqrt iter    3 1.00000000   0.656E-01       0.001       97.365
     NS sqrt iter    4 1.00000000   0.114E-02       0.001       99.935
     NS sqrt iter    5 1.00000000   0.899E-08       0.001       40.673
     Symmetrizing Results
     Final NS sqrt iter    5 1.00000000   0.347E-08

     Est. extremal eigenvalues     -0.92106     1.52676  converged:  T
     TRS4 it   1 1.00000000   0.837E+00       0.000       16.128   0.100E-07
     TRS4 it   2 1.00000000   0.574E+00       0.001       32.256   0.100E-07
     TRS4 it   3 1.00000000   0.378E+00       0.013        2.537   0.100E-07
     TRS4 it   4 1.00000000   0.182E+00       0.001       32.256   0.100E-07
     TRS4 it   5 1.00000000   0.513E-01       0.001       32.256   0.100E-07
     TRS4 it   6 1.00000000   0.464E-02       0.001       32.256   0.100E-07
     TRS4 it   7 1.00000000   0.447E-04       0.001       32.256   0.100E-07
     TRS4 it   8 1.00000000   0.550E-08       0.001       32.256   0.100E-07
     Final TRS4 iteration    8 1.00000000   0.550E-08
     Chemical potential (mu):       0.00865
 
 PAO| energy:  -7.7141644590343992      penalty:   1.4135863110753895E-005
 PAO|LS| adapt:  T T F
 PAO|LS| adapt: scan_steps:    0.0000000000000000       0.21451165004433251        0.0000000000000000     
 PAO|LS| adapt: energies:   -7.7140456215819180       -7.7141644590343992        0.0000000000000000     
 PAO| ======================= Iteration:        20 =============================

     Lanczos converged:  T threshold:   0.100E-02
     Est. extremal eigenvalues:    0.269E+01   0.198E+00
     Est. condition number :    0.136E+02

 Order=           3
     NS sqrt iter    1 1.00000000   0.685E+00       0.001       59.058
     NS sqrt iter    2 1.00000000   0.310E+00       0.001       98.023
     NS sqrt iter    3 1.00000000   0.658E-01       0.001      100.159
     NS sqrt iter    4 1.00000000   0.114E-02       0.001      101.149
     NS sqrt iter    5 1.00000000   0.899E-08       0.001       39.749
     Symmetrizing Results
     Final NS sqrt iter    5 1.00000000   0.348E-08

     Est. extremal eigenvalues     -0.92106     1.52710  converged:  T
     TRS4 it   1 1.00000000   0.837E+00       0.000       16.128   0.100E-07
     TRS4 it   2 1.00000000   0.574E+00       0.017        1.928   0.100E-07
     TRS4 it   3 1.00000000   0.377E+00       0.001       32.256   0.100E-07
     TRS4 it   4 1.00000000   0.182E+00       0.001       32.256   0.100E-07
     TRS4 it   5 1.00000000   0.512E-01       0.001       32.256   0.100E-07
     TRS4 it   6 1.00000000   0.463E-02       0.001       32.256   0.100E-07
     TRS4 it   7 1.00000000   0.449E-04       0.001       32.256   0.100E-07
     TRS4 it   8 1.00000000   0.556E-08       0.001       32.256   0.100E-07
     Final TRS4 iteration    8 1.00000000   0.556E-08
     Chemical potential (mu):       0.00855
 
 PAO| energy:  -7.7142050326611642      penalty:   1.3868791738675635E-005
 PAO|LS| adapt:  T T F
 PAO|LS| adapt: scan_steps:    0.0000000000000000       0.42902330008866502        0.0000000000000000     
 PAO|LS| adapt: energies:   -7.7140456215819180       -7.7142050326611642        0.0000000000000000     
 PAO| ======================= Iteration:        21 =============================

     Lanczos converged:  T threshold:   0.100E-02
     Est. extremal eigenvalues:    0.269E+01   0.198E+00
     Est. condition number :    0.136E+02

 Order=           3
     NS sqrt iter    1 1.00000000   0.685E+00       0.001       57.366
     NS sqrt iter    2 1.00000000   0.311E+00       0.001       99.632
     NS sqrt iter    3 1.00000000   0.662E-01       0.001      101.783
     NS sqrt iter    4 1.00000000   0.116E-02       0.001       99.440
     NS sqrt iter    5 1.00000000   0.902E-08       0.001       40.093
     Symmetrizing Results
     Final NS sqrt iter    5 1.00000000   0.350E-08

     Est. extremal eigenvalues     -0.92105     1.52781  converged:  T
     TRS4 it   1 1.00000000   0.837E+00       0.000       16.128   0.100E-07
     TRS4 it   2 1.00000000   0.574E+00       0.001       32.256   0.100E-07
     TRS4 it   3 1.00000000   0.377E+00       0.001       32.256   0.100E-07
     TRS4 it   4 1.00000000   0.181E+00       0.001       32.256   0.100E-07
     TRS4 it   5 1.00000000   0.511E-01       0.001       32.256   0.100E-07
     TRS4 it   6 1.00000000   0.463E-02       0.001       32.256   0.100E-07
     TRS4 it   7 1.00000000   0.452E-04       0.001       32.256   0.100E-07
     TRS4 it   8 1.00000000   0.569E-08       0.001       32.256   0.100E-07
     Final TRS4 iteration    8 1.00000000   0.569E-08
     Chemical potential (mu):       0.00832
 
 PAO| energy:  -7.7140488666734628      penalty:   1.3371380145651683E-005
 PAO|LS| Need extra step
 PAO|LS| adapt:  T T T
 PAO|LS| adapt: scan_steps:    0.0000000000000000       0.42902330008866502       0.85804660017733003     
 PAO|LS| adapt: energies:   -7.7140456215819180       -7.7142050326611642       -7.7140488666734628     
 PAO|LS| adapt: suggested step_size:   0.43122913192732054     
 PAO|LS| adapt: predicted energy  -7.7142050368323405     
 PAO| ======================= Iteration:        22 =============================

     Lanczos converged:  T threshold:   0.100E-02
     Est. extremal eigenvalues:    0.269E+01   0.198E+00
     Est. condition number :    0.136E+02

 Order=           3
     NS sqrt iter    1 1.00000000   0.685E+00       0.001       57.430
     NS sqrt iter    2 1.00000000   0.310E+00       0.001       98.470
     NS sqrt iter    3 1.00000000   0.658E-01       0.001       98.952
     NS sqrt iter    4 1.00000000   0.114E-02       0.001       97.172
     NS sqrt iter    5 1.00000000   0.899E-08       0.001       39.871
     Symmetrizing Results
     Final NS sqrt iter    5 1.00000000   0.348E-08

     Est. extremal eigenvalues     -0.92106     1.52711  converged:  T
     TRS4 it   1 1.00000000   0.837E+00       0.000       16.128   0.100E-07
     TRS4 it   2 1.00000000   0.574E+00       0.001       32.256   0.100E-07
     TRS4 it   3 1.00000000   0.377E+00       0.001       32.256   0.100E-07
     TRS4 it   4 1.00000000   0.182E+00       0.001       32.256   0.100E-07
     TRS4 it   5 1.00000000   0.512E-01       0.001       32.256   0.100E-07
     TRS4 it   6 1.00000000   0.463E-02       0.001       32.256   0.100E-07
     TRS4 it   7 1.00000000   0.449E-04       0.001       32.256   0.100E-07
     TRS4 it   8 1.00000000   0.556E-08       0.001       32.256   0.100E-07
     Final TRS4 iteration    8 1.00000000   0.556E-08
     Chemical potential (mu):       0.00854
 
 PAO| energy:  -7.7142050411542860      penalty:   1.3866109366995592E-005
 PAO|CG| trace_G_new    2.0884153280319200E-004
 PAO|CG| trace_G_prev    7.3493122372711840E-004
 PAO|CG| trace_G_mix    3.1811361933842059E-006
 PAO|CG| trace_D    1.0027290518788998E-003
 PAO|CG| trace_D_Gnew  -1.9585504915727737E-006
 PAO|CG| beta:   0.27983624857687356     
 PAO| norm of gradient:   1.4451350552913455E-002
 PAO| energy improvement:  -1.5941957236798032E-004
 PAO| step     22                   -7.714205041  0.903E-03  0.431E+00     0.133
 PAO|LS| adapt:  T F F
 PAO|LS| adapt: scan_steps:    0.0000000000000000        0.0000000000000000        0.0000000000000000     
 PAO|LS| adapt: energies:   -7.7142050411542860        0.0000000000000000        0.0000000000000000     
 PAO| ======================= Iteration:        23 =============================

     Lanczos converged:  T threshold:   0.100E-02
     Est. extremal eigenvalues:    0.269E+01   0.198E+00
     Est. condition number :    0.136E+02

 Order=           3
     NS sqrt iter    1 1.00000000   0.685E+00       0.001       58.415
     NS sqrt iter    2 1.00000000   0.310E+00       0.017        6.431
     NS sqrt iter    3 1.00000000   0.658E-01       0.001       99.074
     NS sqrt iter    4 1.00000000   0.114E-02       0.001       99.380
     NS sqrt iter    5 1.00000000   0.889E-08       0.001       39.320
     Symmetrizing Results
     Final NS sqrt iter    5 1.00000000   0.345E-08

     Est. extremal eigenvalues     -0.92106     1.52756  converged:  T
     TRS4 it   1 1.00000000   0.837E+00       0.000       16.128   0.100E-07
     TRS4 it   2 1.00000000   0.575E+00       0.001       32.256   0.100E-07
     TRS4 it   3 1.00000000   0.378E+00       0.001       32.256   0.100E-07
     TRS4 it   4 1.00000000   0.182E+00       0.001       32.256   0.100E-07
     TRS4 it   5 1.00000000   0.514E-01       0.001       32.256   0.100E-07
     TRS4 it   6 1.00000000   0.467E-02       0.001       32.256   0.100E-07
     TRS4 it   7 1.00000000   0.457E-04       0.001       32.256   0.100E-07
     TRS4 it   8 1.00000000   0.575E-08       0.001       32.256   0.100E-07
     Final TRS4 iteration    8 1.00000000   0.575E-08
     Chemical potential (mu):       0.00833
 
 PAO| energy:  -7.7142461528628585      penalty:   1.3244046922211419E-005
 PAO|LS| adapt:  T T F
 PAO|LS| adapt: scan_steps:    0.0000000000000000       0.43122913192732054        0.0000000000000000     
 PAO|LS| adapt: energies:   -7.7142050411542860       -7.7142461528628585        0.0000000000000000     
 PAO| ======================= Iteration:        24 =============================

     Lanczos converged:  T threshold:   0.100E-02
     Est. extremal eigenvalues:    0.269E+01   0.199E+00
     Est. condition number :    0.135E+02

 Order=           3
     NS sqrt iter    1 1.00000000   0.685E+00       0.017        3.758
     NS sqrt iter    2 1.00000000   0.311E+00       0.001       99.162
     NS sqrt iter    3 1.00000000   0.659E-01       0.001       98.392
     NS sqrt iter    4 1.00000000   0.114E-02       0.001       98.872
     NS sqrt iter    5 1.00000000   0.879E-08       0.001       39.683
     Symmetrizing Results
     Final NS sqrt iter    5 1.00000000   0.342E-08

     Est. extremal eigenvalues     -0.92106     1.52801  converged:  T
     TRS4 it   1 1.00000000   0.838E+00       0.000       16.128   0.100E-07
     TRS4 it   2 1.00000000   0.575E+00       0.001       32.256   0.100E-07
     TRS4 it   3 1.00000000   0.378E+00       0.001       32.256   0.100E-07
     TRS4 it   4 1.00000000   0.182E+00       0.001       32.256   0.100E-07
     TRS4 it   5 1.00000000   0.516E-01       0.001       32.256   0.100E-07
     TRS4 it   6 1.00000000   0.471E-02       0.001       32.256   0.100E-07
     TRS4 it   7 1.00000000   0.464E-04       0.001       32.256   0.100E-07
     TRS4 it   8 1.00000000   0.594E-08       0.001       32.256   0.100E-07
     Final TRS4 iteration    8 1.00000000   0.594E-08
     Chemical potential (mu):       0.00812
 
 PAO| energy:  -7.7141883890321399      penalty:   1.2646060470410226E-005
 PAO|LS| adapt:  T T T
 PAO|LS| adapt: scan_steps:    0.0000000000000000       0.43122913192732054       0.86245826385464108     
 PAO|LS| adapt: energies:   -7.7142050411542860       -7.7142461528628585       -7.7141883890321399     
 PAO|LS| adapt: suggested step_size:   0.39491640873371847     
 PAO|LS| adapt: predicted energy  -7.7142465034212142     
 PAO| ======================= Iteration:        25 =============================

     Lanczos converged:  T threshold:   0.100E-02
     Est. extremal eigenvalues:    0.269E+01   0.198E+00
     Est. condition number :    0.136E+02

 Order=           3
     NS sqrt iter    1 1.00000000   0.685E+00       0.001       57.631
     NS sqrt iter    2 1.00000000   0.310E+00       0.001      100.189
     NS sqrt iter    3 1.00000000   0.658E-01       0.001       99.458
     NS sqrt iter    4 1.00000000   0.114E-02       0.001       98.592
     NS sqrt iter    5 1.00000000   0.890E-08       0.001       41.216
     Symmetrizing Results
     Final NS sqrt iter    5 1.00000000   0.345E-08

     Est. extremal eigenvalues     -0.92106     1.52752  converged:  T
     TRS4 it   1 1.00000000   0.837E+00       0.000       16.128   0.100E-07
     TRS4 it   2 1.00000000   0.575E+00       0.001       32.256   0.100E-07
     TRS4 it   3 1.00000000   0.378E+00       0.001       32.256   0.100E-07
     TRS4 it   4 1.00000000   0.182E+00       0.001       32.256   0.100E-07
     TRS4 it   5 1.00000000   0.514E-01       0.001       32.256   0.100E-07
     TRS4 it   6 1.00000000   0.467E-02       0.001       32.256   0.100E-07
     TRS4 it   7 1.00000000   0.456E-04       0.001       32.256   0.100E-07
     TRS4 it   8 1.00000000   0.573E-08       0.001       32.256   0.100E-07
     Final TRS4 iteration    8 1.00000000   0.573E-08
     Chemical potential (mu):       0.00835
 
 PAO| energy:  -7.7142464927804539      penalty:   1.3295494215381461E-005
 PAO|CG| trace_G_new    7.2122895343879967E-005
 PAO|CG| trace_G_prev    2.0884153280319200E-004
 PAO|CG| trace_G_mix    3.8502538952261933E-007
 PAO|CG| trace_D    2.8845971314944171E-004
 PAO|CG| trace_D_Gnew  -2.8942122168293338E-007
 PAO|CG| beta:   0.34350384711053455     
 PAO| norm of gradient:   8.4925199642909271E-003
 PAO| energy improvement:  -4.1451626167976485E-005
 PAO| step     25                   -7.714246493  0.531E-03  0.395E+00     0.120
 PAO|LS| adapt:  T F F
 PAO|LS| adapt: scan_steps:    0.0000000000000000        0.0000000000000000        0.0000000000000000     
 PAO|LS| adapt: energies:   -7.7142464927804539        0.0000000000000000        0.0000000000000000     
 PAO| ======================= Iteration:        26 =============================

     Lanczos converged:  T threshold:   0.100E-02
     Est. extremal eigenvalues:    0.269E+01   0.199E+00
     Est. condition number :    0.135E+02

 Order=           3
     NS sqrt iter    1 1.00000000   0.685E+00       0.001       59.039
     NS sqrt iter    2 1.00000000   0.310E+00       0.001       99.920
     NS sqrt iter    3 1.00000000   0.657E-01       0.001      100.323
     NS sqrt iter    4 1.00000000   0.114E-02       0.001       99.548
     NS sqrt iter    5 1.00000000   0.876E-08       0.001       39.898
     Symmetrizing Results
     Final NS sqrt iter    5 1.00000000   0.341E-08

     Est. extremal eigenvalues     -0.92106     1.52734  converged:  T
     TRS4 it   1 1.00000000   0.837E+00       0.000       16.128   0.100E-07
     TRS4 it   2 1.00000000   0.575E+00       0.017        1.928   0.100E-07
     TRS4 it   3 1.00000000   0.378E+00       0.001       32.256   0.100E-07
     TRS4 it   4 1.00000000   0.182E+00       0.001       32.256   0.100E-07
     TRS4 it   5 1.00000000   0.513E-01       0.001       32.256   0.100E-07
     TRS4 it   6 1.00000000   0.466E-02       0.001       32.256   0.100E-07
     TRS4 it   7 1.00000000   0.454E-04       0.001       32.256   0.100E-07
     TRS4 it   8 1.00000000   0.567E-08       0.001       32.256   0.100E-07
     Final TRS4 iteration    8 1.00000000   0.567E-08
     Chemical potential (mu):       0.00841
 
 PAO| energy:  -7.7142490022193302      penalty:   1.2683734956492699E-005
 PAO|LS| adapt:  T T F
 PAO|LS| adapt: scan_steps:    0.0000000000000000       0.39491640873371847        0.0000000000000000     
 PAO|LS| adapt: energies:   -7.7142464927804539       -7.7142490022193302        0.0000000000000000     
 PAO| ======================= Iteration:        27 =============================

     Lanczos converged:  T threshold:   0.100E-02
     Est. extremal eigenvalues:    0.269E+01   0.199E+00
     Est. condition number :    0.135E+02

 Order=           3
     NS sqrt iter    1 1.00000000   0.685E+00       0.001       58.517
     NS sqrt iter    2 1.00000000   0.310E+00       0.001      101.305
     NS sqrt iter    3 1.00000000   0.657E-01       0.001       99.819
     NS sqrt iter    4 1.00000000   0.113E-02       0.001       99.097
     NS sqrt iter    5 1.00000000   0.863E-08       0.001       39.429
     Symmetrizing Results
     Final NS sqrt iter    5 1.00000000   0.337E-08

     Est. extremal eigenvalues     -0.92106     1.52715  converged:  T
     TRS4 it   1 1.00000000   0.837E+00       0.000       16.128   0.100E-07
     TRS4 it   2 1.00000000   0.575E+00       0.001       32.256   0.100E-07
     TRS4 it   3 1.00000000   0.378E+00       0.001       32.256   0.100E-07
     TRS4 it   4 1.00000000   0.182E+00       0.001       32.256   0.100E-07
     TRS4 it   5 1.00000000   0.513E-01       0.001       32.256   0.100E-07
     TRS4 it   6 1.00000000   0.465E-02       0.001       32.256   0.100E-07
     TRS4 it   7 1.00000000   0.452E-04       0.001       32.256   0.100E-07
     TRS4 it   8 1.00000000   0.561E-08       0.001       32.256   0.100E-07
     Final TRS4 iteration    8 1.00000000   0.561E-08
     Chemical potential (mu):       0.00848
 
 PAO| energy:  -7.7141994025116816      penalty:   1.2089261122653991E-005
 PAO|LS| adapt:  T T T
 PAO|LS| adapt: scan_steps:    0.0000000000000000       0.39491640873371847       0.78983281746743694     
 PAO|LS| adapt: energies:   -7.7142464927804539       -7.7142490022193302       -7.7141994025116816     
 PAO|LS| adapt: suggested step_size:   0.21647633563626026     
 PAO|LS| adapt: predicted energy  -7.7142543215671822     
 PAO| ======================= Iteration:        28 =============================

     Lanczos converged:  T threshold:   0.100E-02
     Est. extremal eigenvalues:    0.269E+01   0.199E+00
     Est. condition number :    0.135E+02

 Order=           3
     NS sqrt iter    1 1.00000000   0.685E+00       0.001       58.736
     NS sqrt iter    2 1.00000000   0.310E+00       0.001       99.387
     NS sqrt iter    3 1.00000000   0.658E-01       0.001      101.726
     NS sqrt iter    4 1.00000000   0.114E-02       0.017        6.444
     NS sqrt iter    5 1.00000000   0.883E-08       0.001       39.958
     Symmetrizing Results
     Final NS sqrt iter    5 1.00000000   0.343E-08

     Est. extremal eigenvalues     -0.92106     1.52742  converged:  T
     TRS4 it   1 1.00000000   0.837E+00       0.000       16.128   0.100E-07
     TRS4 it   2 1.00000000   0.575E+00       0.001       32.256   0.100E-07
     TRS4 it   3 1.00000000   0.378E+00       0.001       32.256   0.100E-07
     TRS4 it   4 1.00000000   0.182E+00       0.001       32.256   0.100E-07
     TRS4 it   5 1.00000000   0.513E-01       0.001       32.256   0.100E-07
     TRS4 it   6 1.00000000   0.466E-02       0.001       32.256   0.100E-07
     TRS4 it   7 1.00000000   0.455E-04       0.001       32.256   0.100E-07
     TRS4 it   8 1.00000000   0.570E-08       0.001       32.256   0.100E-07
     Final TRS4 iteration    8 1.00000000   0.570E-08
     Chemical potential (mu):       0.00839
 
 PAO| energy:  -7.7142543140057684      penalty:   1.2958001880248692E-005
 PAO|CG| trace_G_new    1.5793862963010539E-005
 PAO|CG| trace_G_prev    7.2122895343879967E-005
 PAO|CG| trace_G_mix    3.1186326740122530E-008
 PAO|CG| trace_D    1.0635850293208115E-004
 PAO|CG| trace_D_Gnew  -2.0639282730646644E-008
 PAO|CG| beta:   0.21855302066166937     
 PAO| norm of gradient:   3.9741493382874455E-003
 PAO| energy improvement:  -7.8212253145082400E-006
 PAO| step     28                   -7.714254314  0.248E-03  0.216E+00     0.128
 PAO|LS| adapt:  T F F
 PAO|LS| adapt: scan_steps:    0.0000000000000000        0.0000000000000000        0.0000000000000000     
 PAO|LS| adapt: energies:   -7.7142543140057684        0.0000000000000000        0.0000000000000000     
 PAO| ======================= Iteration:        29 =============================

     Lanczos converged:  T threshold:   0.100E-02
     Est. extremal eigenvalues:    0.269E+01   0.199E+00
     Est. condition number :    0.135E+02

 Order=           3
     NS sqrt iter    1 1.00000000   0.685E+00       0.001       58.406
     NS sqrt iter    2 1.00000000   0.310E+00       0.001       96.040
     NS sqrt iter    3 1.00000000   0.657E-01       0.001       98.642
     NS sqrt iter    4 1.00000000   0.114E-02       0.001       97.404
     NS sqrt iter    5 1.00000000   0.880E-08       0.001       39.756
     Symmetrizing Results
     Final NS sqrt iter    5 1.00000000   0.342E-08

     Est. extremal eigenvalues     -0.92106     1.52744  converged:  T
     TRS4 it   1 1.00000000   0.838E+00       0.000       16.128   0.100E-07
     TRS4 it   2 1.00000000   0.575E+00       0.001       32.256   0.100E-07
     TRS4 it   3 1.00000000   0.378E+00       0.001       32.256   0.100E-07
     TRS4 it   4 1.00000000   0.182E+00       0.001       32.256   0.100E-07
     TRS4 it   5 1.00000000   0.513E-01       0.001       32.256   0.100E-07
     TRS4 it   6 1.00000000   0.465E-02       0.001       32.256   0.100E-07
     TRS4 it   7 1.00000000   0.453E-04       0.001       32.256   0.100E-07
     TRS4 it   8 1.00000000   0.564E-08       0.001       32.256   0.100E-07
     Final TRS4 iteration    8 1.00000000   0.564E-08
     Chemical potential (mu):       0.00847
 
 PAO| energy:  -7.7142572994025240      penalty:   1.2658103218228942E-005
 PAO|LS| adapt:  T T F
 PAO|LS| adapt: scan_steps:    0.0000000000000000       0.21647633563626026        0.0000000000000000     
 PAO|LS| adapt: energies:   -7.7142543140057684       -7.7142572994025240        0.0000000000000000     
 PAO| ======================= Iteration:        30 =============================

     Lanczos converged:  T threshold:   0.100E-02
     Est. extremal eigenvalues:    0.269E+01   0.199E+00
     Est. condition number :    0.135E+02

 Order=           3
     NS sqrt iter    1 1.00000000   0.685E+00       0.021        3.048
     NS sqrt iter    2 1.00000000   0.310E+00       0.001       98.709
     NS sqrt iter    3 1.00000000   0.657E-01       0.001      101.405
     NS sqrt iter    4 1.00000000   0.114E-02       0.001       99.826
     NS sqrt iter    5 1.00000000   0.877E-08       0.001       39.637
     Symmetrizing Results
     Final NS sqrt iter    5 1.00000000   0.342E-08

     Est. extremal eigenvalues     -0.92106     1.52745  converged:  T
     TRS4 it   1 1.00000000   0.838E+00       0.000       16.128   0.100E-07
     TRS4 it   2 1.00000000   0.575E+00       0.001       32.256   0.100E-07
     TRS4 it   3 1.00000000   0.378E+00       0.001       32.256   0.100E-07
     TRS4 it   4 1.00000000   0.182E+00       0.001       32.256   0.100E-07
     TRS4 it   5 1.00000000   0.513E-01       0.001       32.256   0.100E-07
     TRS4 it   6 1.00000000   0.465E-02       0.001       32.256   0.100E-07
     TRS4 it   7 1.00000000   0.451E-04       0.001       32.256   0.100E-07
     TRS4 it   8 1.00000000   0.559E-08       0.001       32.256   0.100E-07
     Final TRS4 iteration    8 1.00000000   0.559E-08
     Chemical potential (mu):       0.00855
 
 PAO| energy:  -7.7142594154223492      penalty:   1.2361929175230533E-005
 PAO|LS| adapt:  T T F
 PAO|LS| adapt: scan_steps:    0.0000000000000000       0.43295267127252052        0.0000000000000000     
 PAO|LS| adapt: energies:   -7.7142543140057684       -7.7142594154223492        0.0000000000000000     
 PAO| ======================= Iteration:        31 =============================

     Lanczos converged:  T threshold:   0.100E-02
     Est. extremal eigenvalues:    0.269E+01   0.199E+00
     Est. condition number :    0.135E+02

 Order=           3
     NS sqrt iter    1 1.00000000   0.684E+00       0.001       56.859
     NS sqrt iter    2 1.00000000   0.310E+00       0.001       99.738
     NS sqrt iter    3 1.00000000   0.656E-01       0.001      100.229
     NS sqrt iter    4 1.00000000   0.113E-02       0.001       97.491
     NS sqrt iter    5 1.00000000   0.872E-08       0.001       39.726
     Symmetrizing Results
     Final NS sqrt iter    5 1.00000000   0.341E-08

     Est. extremal eigenvalues     -0.92107     1.52748  converged:  T
     TRS4 it   1 1.00000000   0.838E+00       0.000       16.128   0.100E-07
     TRS4 it   2 1.00000000   0.575E+00       0.001       32.256   0.100E-07
     TRS4 it   3 1.00000000   0.378E+00       0.001       32.256   0.100E-07
     TRS4 it   4 1.00000000   0.182E+00       0.001       32.256   0.100E-07
     TRS4 it   5 1.00000000   0.512E-01       0.001       32.256   0.100E-07
     TRS4 it   6 1.00000000   0.463E-02       0.001       32.256   0.100E-07
     TRS4 it   7 1.00000000   0.447E-04       0.001       32.256   0.100E-07
     TRS4 it   8 1.00000000   0.548E-08       0.001       32.256   0.100E-07
     Final TRS4 iteration    8 1.00000000   0.548E-08
     Chemical potential (mu):       0.00871
 
 PAO| energy:  -7.7142610386140049      penalty:   1.1780724616026838E-005
 PAO|LS| Need extra step
 PAO|LS| adapt:  T T F
 PAO|LS| adapt: scan_steps:    0.0000000000000000       0.86590534254504103        0.0000000000000000     
 PAO|LS| adapt: energies:   -7.7142543140057684       -7.7142610386140049        0.0000000000000000     
 PAO| ======================= Iteration:        32 =============================

     Lanczos converged:  T threshold:   0.100E-02
     Est. extremal eigenvalues:    0.269E+01   0.199E+00
     Est. condition number :    0.135E+02

 Order=           3
     NS sqrt iter    1 1.00000000   0.684E+00       0.001       58.201
     NS sqrt iter    2 1.00000000   0.310E+00       0.001       98.558
     NS sqrt iter    3 1.00000000   0.654E-01       0.001       97.796
     NS sqrt iter    4 1.00000000   0.112E-02       0.001       98.850
     NS sqrt iter    5 1.00000000   0.863E-08       0.001       41.216
     Symmetrizing Results
     Final NS sqrt iter    5 1.00000000   0.339E-08

     Est. extremal eigenvalues     -0.92107     1.52755  converged:  T
     TRS4 it   1 1.00000000   0.838E+00       0.000       16.128   0.100E-07
     TRS4 it   2 1.00000000   0.575E+00       0.001       32.256   0.100E-07
     TRS4 it   3 1.00000000   0.377E+00       0.001       32.256   0.100E-07
     TRS4 it   4 1.00000000   0.181E+00       0.001       32.256   0.100E-07
     TRS4 it   5 1.00000000   0.510E-01       0.001       32.256   0.100E-07
     TRS4 it   6 1.00000000   0.459E-02       0.001       32.256   0.100E-07
     TRS4 it   7 1.00000000   0.439E-04       0.001       32.256   0.100E-07
     TRS4 it   8 1.00000000   0.528E-08       0.001       32.256   0.100E-07
     Final TRS4 iteration    8 1.00000000   0.528E-08
     Chemical potential (mu):       0.00904
 
 PAO| energy:  -7.7142538445172679      penalty:   1.0662677796477045E-005
 PAO|LS| Need extra step
 PAO|LS| adapt:  T T T
 PAO|LS| adapt: scan_steps:    0.0000000000000000       0.86590534254504103        1.7318106850900821     
 PAO|LS| adapt: energies:   -7.7142543140057684       -7.7142610386140049       -7.7142538445172679     
 PAO|LS| adapt: suggested step_size:   0.85130151978856849     
 PAO|LS| adapt: predicted energy  -7.7142610405935308     
 PAO| ======================= Iteration:        33 =============================

     Lanczos converged:  T threshold:   0.100E-02
     Est. extremal eigenvalues:    0.269E+01   0.199E+00
     Est. condition number :    0.135E+02

 Order=           3
     NS sqrt iter    1 1.00000000   0.684E+00       0.001       57.936
     NS sqrt iter    2 1.00000000   0.310E+00       0.001       97.399
     NS sqrt iter    3 1.00000000   0.656E-01       0.001       98.737
[...]
     NS sqrt iter    5 1.00000000   0.199E-09       0.001       36.864
     Symmetrizing Results
     Final NS sqrt iter    5 1.00000000   0.422E-10

     Est. extremal eigenvalues     -0.92081     1.35967  converged:  T
     TRS4 it   1 1.00000000   0.802E+00       0.000       16.128   0.100E-07
     TRS4 it   2 1.00000000   0.568E+00       0.001       32.256   0.100E-07
     TRS4 it   3 1.00000000   0.400E+00       0.001       32.256   0.100E-07
     TRS4 it   4 1.00000000   0.239E+00       0.001       32.256   0.100E-07
     TRS4 it   5 1.00000000   0.103E+00       0.001       32.256   0.100E-07
     TRS4 it   6 1.00000000   0.231E-01       0.001       32.256   0.100E-07
     TRS4 it   7 1.00000000   0.151E-02       0.001       32.256   0.100E-07
     TRS4 it   8 1.00000000   0.800E-05       0.001       32.256   0.100E-07
     TRS4 it   9 1.00000000   0.266E-09       0.001       32.256   0.100E-07
     Final TRS4 iteration    9 1.00000000   0.266E-09
     Chemical potential (mu):      -0.07493
 
 PAO| energy:  -7.7135140274020211      penalty:   1.0408327818435438E-011
 PAO|CG| warming up with steepest descent
 PAO|CG| beta:    0.0000000000000000     
 PAO| norm of gradient:   6.6672991715525680E-006
 PAO| energy improvement:  -8.9990237484016689E-012
 PAO| step    814                   -7.713514027  0.417E-06  0.272E+00     0.079
 PAO| converged after          814  steps :-)
 PAO| Recalculating energy after mixing.

     Lanczos converged:  T threshold:   0.100E-02
     Est. extremal eigenvalues:    0.247E+01   0.240E+00
     Est. condition number :    0.103E+02

 Order=           3
     NS sqrt iter    1 1.00000000   0.624E+00       0.001       58.582
     NS sqrt iter    2 1.00000000   0.259E+00       0.001      104.194
     NS sqrt iter    3 1.00000000   0.393E-01       0.001      109.949
     NS sqrt iter    4 1.00000000   0.244E-03       0.001      107.491
     NS sqrt iter    5 1.00000000   0.199E-09       0.001       36.864
     Symmetrizing Results
     Final NS sqrt iter    5 1.00000000   0.422E-10

     Est. extremal eigenvalues     -0.92081     1.35967  converged:  T
     TRS4 it   1 1.00000000   0.802E+00       0.000       16.128   0.100E-07
     TRS4 it   2 1.00000000   0.568E+00       0.001       32.256   0.100E-07
     TRS4 it   3 1.00000000   0.400E+00       0.001       32.256   0.100E-07
     TRS4 it   4 1.00000000   0.239E+00       0.001       32.256   0.100E-07
     TRS4 it   5 1.00000000   0.103E+00       0.001       32.256   0.100E-07
     TRS4 it   6 1.00000000   0.231E-01       0.001       32.256   0.100E-07
     TRS4 it   7 1.00000000   0.151E-02       0.001       32.256   0.100E-07
     TRS4 it   8 1.00000000   0.800E-05       0.001       32.256   0.100E-07
     TRS4 it   9 1.00000000   0.266E-09       0.001       32.256   0.100E-07
     Final TRS4 iteration    9 1.00000000   0.266E-09
     Chemical potential (mu):      -0.07493
 
 PAO| energy:  -7.7135140273997695      penalty:   1.0523248438186532E-011
 PAO| Writing restart file.
     Est. extremal eigenvalues     -0.92081     1.35967  converged:  T
     TRS4 it   1 1.00000000   0.802E+00       0.000       16.128   0.100E-07
     TRS4 it   2 1.00000000   0.568E+00       0.001       32.256   0.100E-07
     TRS4 it   3 1.00000000   0.400E+00       0.001       32.256   0.100E-07
     TRS4 it   4 1.00000000   0.239E+00       0.001       32.256   0.100E-07
     TRS4 it   5 1.00000000   0.103E+00       0.001       32.256   0.100E-07
     TRS4 it   6 1.00000000   0.231E-01       0.001       32.256   0.100E-07
     TRS4 it   7 1.00000000   0.151E-02       0.001       32.256   0.100E-07
     TRS4 it   8 1.00000000   0.800E-05       0.001       32.256   0.100E-07
     TRS4 it   9 1.00000000   0.266E-09       0.001       32.256   0.100E-07
     Final TRS4 iteration    9 1.00000000   0.266E-09
     Chemical potential (mu):      -0.07493

 SCF     1       -34.445218881       -34.445218881    3.548712

*********************************************************
 Using MIXING_FRACTION=0.450 to mix KS matrix:  iscf=  2
 KS_nw=0.450*KS + 0.550*KS_old
*********************************************************
     Est. extremal eigenvalues     -0.92081     1.35967  converged:  T
     TRS4 it   1 1.00000000   0.802E+00       0.000       16.128   0.100E-07
     TRS4 it   2 1.00000000   0.568E+00       0.001       32.256   0.100E-07
     TRS4 it   3 1.00000000   0.400E+00       0.001       32.256   0.100E-07
     TRS4 it   4 1.00000000   0.239E+00       0.001       32.256   0.100E-07
     TRS4 it   5 1.00000000   0.103E+00       0.001       32.256   0.100E-07
     TRS4 it   6 1.00000000   0.231E-01       0.001       32.256   0.100E-07
     TRS4 it   7 1.00000000   0.151E-02       0.001       32.256   0.100E-07
     TRS4 it   8 1.00000000   0.800E-05       0.001       32.256   0.100E-07
     TRS4 it   9 1.00000000   0.266E-09       0.001       32.256   0.100E-07
     Final TRS4 iteration    9 1.00000000   0.266E-09
     Chemical potential (mu):      -0.07493

 SCF     2       -34.445218881        -0.000000000    3.089016


 SCF run converged in     2 steps.

 PAO| Storing density matrix for ASPC guess in slot:           1

 ENERGY| Total FORCE_EVAL ( QS ) energy [a.u.]:              -34.445218880736945

 -------------------------------------------------------------------------------
 -                                                                             -
 -                                DBCSR STATISTICS                             -
 -                                                                             -
 -------------------------------------------------------------------------------
 COUNTER                                    TOTAL       BLAS       SMM       ACC
 flops     5 x     5 x     4                30000       0.0%    100.0%      0.0%
 flops    13 x     5 x     4                31200       0.0%    100.0%      0.0%
 flops     5 x    13 x     4                31200       0.0%    100.0%      0.0%
 flops    13 x    13 x     4                60840       0.0%    100.0%      0.0%
 flops     4 x     4 x     5              6378240       0.0%    100.0%      0.0%
 flops     5 x     4 x     5              7811200       0.0%    100.0%      0.0%
 flops     4 x     4 x    13              8291712       0.0%    100.0%      0.0%
 flops    13 x     4 x     5             10154560       0.0%    100.0%      0.0%
 flops     5 x     4 x    13             10154560       0.0%    100.0%      0.0%
 flops     5 x     4 x     4             12183200       0.0%    100.0%      0.0%
 flops    13 x     4 x    13             13200928       0.0%    100.0%      0.0%
 flops    13 x     4 x     4             15918656       0.0%    100.0%      0.0%
 flops     4 x     4 x     4            806895488       0.0%    100.0%      0.0%
 flops inhomo. stacks                           0       0.0%      0.0%      0.0%
 flops total                       891.141784E+06       0.0%    100.0%      0.0%
 flops max/rank                    891.141784E+06       0.0%    100.0%      0.0%
 matmuls inhomo. stacks                         0       0.0%      0.0%      0.0%
 matmuls total                            6566269       0.0%    100.0%      0.0%
 number of processed stacks                 52427       0.0%    100.0%      0.0%
 average stack size                                     0.0     125.2       0.0
 marketing flops                     1.457360E+09
 -------------------------------------------------------------------------------
 # multiplications                          43892
 max memory usage/rank             506.716160E+06
 # max total images/rank                        1
 # max 3D layers                                1
 # MPI messages exchanged                       0
 -------------------------------------------------------------------------------

 -------------------------------------------------------------------------------
 -                                                                             -
 -                                DBM STATISTICS                               -
 -                                                                             -
 -------------------------------------------------------------------------------
    M  x    N  x    K                                          COUNT     PERCENT
 -------------------------------------------------------------------------------

 -------------------------------------------------------------------------------
 -                                                                             -
 -                                GRID STATISTICS                              -
 -                                                                             -
 -------------------------------------------------------------------------------
 LP    KERNEL             BACKEND                              COUNT     PERCENT
 2     collocate ortho    REF                                  56925      30.66%
 2     integrate ortho    REF                                  56925      30.66%
 3     collocate ortho    REF                                  29370      15.82%
 3     integrate ortho    REF                                  29370      15.82%
 4     collocate ortho    REF                                   6540       3.52%
 4     integrate ortho    REF                                   6540       3.52%
 0     collocate general  REF                                      6       0.00%
 -------------------------------------------------------------------------------

 MEMORY| Estimated peak process memory [MiB]                                 484

 -------------------------------------------------------------------------------
 -                                                                             -
 -                           R E F E R E N C E S                               -
 -                                                                             -
 -------------------------------------------------------------------------------
 
 CP2K version 2023.1 (Development Version), the CP2K developers group (2023).
 CP2K is freely available from https://www.cp2k.org/ .

 Kuehne,Thomas D.; Iannuzzi,Marcella; Del Ben,Mauro;
 Rybkin,Vladimir V.; Seewald,Patrick; Stein,Frederick; Laino,Teodoro;
 Khaliullin,Rustam Z.; Schuett,Ole; Schiffmann,Florian; Golze,Dorothea;
 Wilhelm,Jan; Chulkov,Sergey; Bani-Hashemian,Mohammad Hossein;
 Weber,Valery; Borstnik,Urban; Taillefumier,Mathieu;
 Jakobovits,Alice Shoshana; Lazzaro,Alfio; Pabst,Hans; Mueller,Tiziano;
 Schade,Robert; Guidon,Manuel; Andermatt,Samuel; Holmberg,Nico;
 Schenter,Gregory K.; Hehn,Anna; Bussy,Augustin; Belleflamme,Fabian;
 Tabacchi,Gloria; Gloess,Andreas; Lass,Michael; Bethune,Iain;
 Mundy,Christopher J.; Plessl,Christian; Watkins,Matt;
 VandeVondele,Joost; Krack,Matthias; Hutter,Juerg. 
 The Journal of Chemical Physics, 152 (19), (2020). 
 CP2K: An electronic structure and molecular dynamics software package -
 Quickstep: Efficient and accurate electronic structure calculations.
 https://doi.org/10.1063/5.0007045

 Schuett, O; VandeVondele, J. 
 Journal of Chemical Theory and Computation, 14, (2018). 
 Machine Learning Adaptive Basis Sets for Efficient Large Scale
 Density Functional Theory Simulation.
 https://doi.org/10.1021/acs.jctc.8b00378

 Schuett, Ole; Messmer, Peter; Hutter, Juerg; VandeVondele, Joost. 
 Electronic Structure Calculations on Graphics Processing Units, John
 Wiley & Sons, Ltd, 173-190 (2016). 
 GPU-Accelerated Sparse Matrix-Matrix Multiplication for
 Linear Scaling Density Functional Theory.
 https://doi.org/10.1002/9781118670712.ch8

 Heinecke, A; Henry, G; Hutchinson, M; Pabst, H. 
 Proceedings of Intl. Supercomputing Conference, 981-991 (2016). 
 LIBXSMM: Accelerating Small Matrix Multiplications
 by Runtime Code Generation.
 https://doi.org/10.1109/SC.2016.83

 Borstnik, U; VandeVondele, J; Weber, V; Hutter, J. 
 PARALLEL COMPUTING, 40 (5-6), 47-58 (2014). 
 Sparse matrix multiplication: The distributed block-compressed sparse
 row library.
 https://doi.org/10.1016/j.parco.2014.03.012

 Hutter, J; Iannuzzi, M; Schiffmann, F; VandeVondele, J. 
 WIREs Comput Mol Sci., 4 (1), 15-25 (2014). 
 CP2K: atomistic simulations of condensed matter systems.
 https://doi.org/10.1002/wcms.1159

 VandeVondele, J; Borstnik, U; Hutter, J. 
 JOURNAL OF CHEMICAL THEORY AND COMPUTATION, 8 (10), 3565-3573 (2012). 
 Linear Scaling Self-Consistent Field Calculations with Millions of Atoms
 in the Condensed Phase.
 https://doi.org/10.1021/ct200897x

 VandeVondele, J; Hutter, J. 
 JOURNAL OF CHEMICAL PHYSICS, 127 (11), 114105 (2007). 
 Gaussian basis sets for accurate calculations on molecular systems in
 gas and condensed phases.
 https://doi.org/10.1063/1.2770708

 Krack, M. 
 THEORETICAL CHEMISTRY ACCOUNTS, 114 (1-3), 145-152 (2005). 
 Pseudopotentials for H to Kr optimized for gradient-corrected
 exchange-correlation functionals.
 https://doi.org/10.1007/s00214-005-0655-y

 VandeVondele, J; Krack, M; Mohamed, F; Parrinello, M; Chassaing, T;
 Hutter, J. COMPUTER PHYSICS COMMUNICATIONS, 167 (2), 103-128 (2005). 
 QUICKSTEP: Fast and accurate density functional calculations using a
 mixed Gaussian and plane waves approach.
 https://doi.org/10.1016/j.cpc.2004.12.014

 Frigo, M; Johnson, SG. 
 PROCEEDINGS OF THE IEEE, 93 (2), 216-231 (2005). 
 The design and implementation of FFTW3.
 https://doi.org/10.1109/JPROC.2004.840301

 Niklasson, AMN; Tymczak, CJ; Challacombe, M. 
 JOURNAL OF CHEMICAL PHYSICS, 118 (19), 8611-8620 (2003). 
 Trace resetting density matrix purification in O(N)
 self-consistent-field theory.
 https://doi.org/10.1063/1.1559913

 Hartwigsen, C; Goedecker, S; Hutter, J. 
 PHYSICAL REVIEW B, 58 (7), 3641-3662 (1998). 
 Relativistic separable dual-space Gaussian pseudopotentials from H to Rn.
 https://doi.org/10.1103/PhysRevB.58.3641

 Lippert, G; Hutter, J; Parrinello, M. 
 MOLECULAR PHYSICS, 92 (3), 477-487 (1997). 
 A hybrid Gaussian and plane wave density functional scheme.
 https://doi.org/10.1080/002689797170220

 Perdew, JP; Burke, K; Ernzerhof, M. 
 PHYSICAL REVIEW LETTERS, 77 (18), 3865-3868 (1996). 
 Generalized gradient approximation made simple.
 https://doi.org/10.1103/PhysRevLett.77.3865

 Goedecker, S; Teter, M; Hutter, J. 
 PHYSICAL REVIEW B, 54 (3), 1703-1710 (1996). 
 Separable dual-space Gaussian pseudopotentials.
 https://doi.org/10.1103/PhysRevB.54.1703


 -------------------------------------------------------------------------------
 -                                                                             -
 -                                T I M I N G                                  -
 -                                                                             -
 -------------------------------------------------------------------------------
 SUBROUTINE                       CALLS  ASD         SELF TIME        TOTAL TIME
                                MAXIMUM       AVERAGE  MAXIMUM  AVERAGE  MAXIMUM
 CP2K                                 1  1.0    0.016    0.016   84.345   84.345
 qs_energies                          1  2.0    0.000    0.000   83.636   83.636
 ls_scf                               1  3.0    0.000    0.000   83.420   83.420
 ls_scf_main                          7  4.0    0.002    0.002   55.916   55.916
 ls_scf_dm_to_ks                     14  5.0    0.001    0.001   55.683   55.683
 qs_ks_update_qs_env                 15  6.0    0.000    0.000   46.814   46.814
 rebuild_ks_matrix                   15  7.0    0.000    0.000   46.813   46.813
 qs_ks_build_kohn_sham_matrix        15  8.0    0.005    0.005   46.813   46.813
 qs_vxc_create                       15  9.0    0.001    0.001   28.823   28.823
 xc_vxc_pw_create                    15 10.0    0.529    0.529   28.822   28.822
 pw_transfer                        286 11.1    0.046    0.046   24.052   24.052
 fft_wrap_pw1pw2                    256 12.3    0.007    0.007   23.399   23.399
 fft_wrap_pw1pw2_200                166 13.7    2.432    2.432   22.533   22.533
 pao_update                           7  4.0    0.035    0.035   21.728   21.728
 pao_calc_energy                    820  5.0    0.007    0.007   19.681   19.681
 xc_pw_derive                        90 12.0    0.003    0.003   17.047   17.047
 xc_rho_set_and_dset_create          15 11.0    0.622    0.622   16.129   16.129
 dbcsr_multiply_generic           43892  8.4    0.936    0.936   15.578   15.578
 qs_rho_update_rho_low               15  6.0    0.000    0.000   14.514   14.514
 calculate_rho_elec                  15  7.0    0.073    0.073   14.513   14.513
 sum_up_and_integrate                15  9.0    0.411    0.411   13.810   13.810
 integrate_v_rspace                  15 10.0    0.002    0.002   13.399   13.399
 xc_pw_divergence                    15 11.0    0.001    0.001   11.755   11.755
 grid_integrate_task_list            15 11.0   10.366   10.366   10.366   10.366
 pao_dm_trs4                        820  6.0    0.023    0.023   10.057   10.057
 fft3d_s                            257 14.2   10.010   10.010   10.031   10.031
 grid_collocate_task_list            15  8.0    9.696    9.696    9.696    9.696
 density_matrix_trs4                834  7.0    0.295    0.295    9.616    9.616
 ls_scf_init_matrix_S               827  7.0    0.007    0.007    9.539    9.539
 pao_rebuild_S                      820  6.0    0.003    0.003    9.445    9.445
 matrix_sqrt_Newton_Schulz          827  8.0    0.199    0.199    8.622    8.622
 xc_functional_eval                  15 12.0    0.000    0.000    6.508    6.508
 pbe_lda_eval                        15 13.0    6.507    6.507    6.507    6.507
 multiply_cannon                  43892  9.4    2.453    2.453    5.877    5.877
 make_m2s                         87784  9.4    0.331    0.331    5.784    5.784
 pao_guess_initial_P                  1  4.0    0.000    0.000    5.661    5.661
 pao_read_preopt_dm                   1  5.0    0.000    0.000    5.661    5.661
 pw_gather_s                        121 13.8    5.466    5.466    5.466    5.466
 pw_scatter_s                       135 14.7    5.313    5.313    5.313    5.313
 make_images                      87784 10.4    1.468    1.468    5.163    5.163
 density_rs2pw                       15  8.0    0.002    0.002    4.745    4.745
 pw_derive                           90 13.0    3.311    3.311    3.311    3.311
 arnoldi_extremal                  1661  8.5    0.008    0.008    3.219    3.219
 arnoldi_normal_ev                 1661  9.5    0.027    0.027    3.211    3.211
 potential_pw2rs                     15 11.0    0.007    0.007    3.031    3.031
 build_subspace                    1661 10.5    0.115    0.115    2.455    2.455
 pw_copy                            180 11.8    2.449    2.449    2.449    2.449
 dbcsr_matrix_vector_mult         39853 11.5    0.249    0.249    2.335    2.335
 pao_calc_AB                       1081  5.8    0.002    0.002    2.048    2.048
 pao_calc_AB_equi                  1081  6.8    0.069    0.069    2.046    2.046
 pao_calc_grad_lnv_wrt_AB           260  7.0    0.012    0.012    1.837    1.837
 pw_axpy                            135 10.3    1.697    1.697    1.697    1.697
 dbcsr_finalize                  104992  9.6    0.349    0.349    1.695    1.695
 -------------------------------------------------------------------------------

 The number of warnings for this run is : 0
 
 -------------------------------------------------------------------------------
  **** **** ******  **  PROGRAM ENDED AT                 2023-02-01 10:49:20.032
 ***** ** ***  *** **   PROGRAM RAN ON                                    moritz
 **    ****   ******    PROGRAM RAN BY                                       ole
 ***** **    ** ** **   PROGRAM PROCESS ID                                148791
  **** **  *******  **  PROGRAM STOPPED IN /home/ole/git/pao_ml_equivar/2H2O_MD/
                                           frame_1525
