 DBCSR| CPU Multiplication driver                                           XSMM
 DBCSR| Multrec recursion limit                                              512
 DBCSR| Multiplication stack size                                           1000
 DBCSR| Maximum elements for images                                    UNLIMITED
 DBCSR| Multiplicative factor virtual images                                   1
 DBCSR| Use multiplication densification                                       T
 DBCSR| Multiplication size stacks                                             3


  **** **** ******  **  PROGRAM STARTED AT               2019-02-14 11:09:25.173
 ***** ** ***  *** **   PROGRAM STARTED ON                                  otto
 **    ****   ******    PROGRAM STARTED BY                                   ole
 ***** **    ** ** **   PROGRAM PROCESS ID                                  7763
  **** **  *******  **  PROGRAM STARTED IN /home/ole/git/pao_ml_equivar/2H2O_MD/
                                           frame_1525

 CP2K| version string:                    CP2K version 7.0 (Development Version)
 CP2K| source code revision number:                                git:8bf305913
 CP2K| cp2kflags: libint fftw3 libxc xsmm libderiv_max_am1=5 libint_max_am=6    
 CP2K| is freely available from                            https://www.cp2k.org/
 CP2K| Program compiled at                           So Jan 13 00:02:37 CET 2019
 CP2K| Program compiled on                                                  otto
 CP2K| Program compiled for                                                local
 CP2K| Data directory path                               /home/ole/git/cp2k/data
 CP2K| Input file name                                            2H2O_pao44.inp

 GLOBAL| Force Environment number                                              1
 GLOBAL| Basis set file name                                        BASIS_MOLOPT
 GLOBAL| Potential file name                                      GTH_POTENTIALS
 GLOBAL| MM Potential file name                                     MM_POTENTIAL
 GLOBAL| Coordinate file name                                         coords.xyz
 GLOBAL| Method name                                                        CP2K
 GLOBAL| Project name                                                 2H2O_pao44
 GLOBAL| Preferred FFT library                                             FFTW3
 GLOBAL| Preferred diagonalization lib.                                       SL
 GLOBAL| Run type                                                         ENERGY
 GLOBAL| All-to-all communication in single precision                          F
 GLOBAL| FFTs using library dependent lengths                                  F
 GLOBAL| Global print level                                                  LOW
 GLOBAL| MPI I/O enabled                                                       T
 GLOBAL| Total number of message passing processes                             1
 GLOBAL| Number of threads for this process                                    1
 GLOBAL| This output is from process                                           0
 GLOBAL| CPU model name :  Intel(R) Core(TM) i5-3320M CPU @ 2.60GHz

 MEMORY| system memory details [Kb]
 MEMORY|                        rank 0           min           max       average
 MEMORY| MemTotal              7860772       7860772       7860772       7860772
 MEMORY| MemFree                624860        624860        624860        624860
 MEMORY| Buffers               1047884       1047884       1047884       1047884
 MEMORY| Cached                2077228       2077228       2077228       2077228
 MEMORY| Slab                   280272        280272        280272        280272
 MEMORY| SReclaimable           155756        155756        155756        155756
 MEMORY| MemLikelyFree         3905728       3905728       3905728       3905728


 GENERATE|  Preliminary Number of Bonds generated:                             0
 GENERATE|  Achieved consistency in connectivity generation.

 *******************************************************************************
 *******************************************************************************
 **                                                                           **
 **     #####                         ##              ##                      **
 **    ##   ##            ##          ##              ##                      **
 **   ##     ##                       ##            ######                    **
 **   ##     ##  ##   ##  ##   #####  ##  ##   ####   ##    #####    #####    **
 **   ##     ##  ##   ##  ##  ##      ## ##   ##      ##   ##   ##  ##   ##   **
 **   ##  ## ##  ##   ##  ##  ##      ####     ###    ##   ######   ######    **
 **    ##  ###   ##   ##  ##  ##      ## ##      ##   ##   ##       ##        **
 **     #######   #####   ##   #####  ##  ##  ####    ##    #####   ##        **
 **           ##                                                    ##        **
 **                                                                           **
 **                                                ... make the atoms dance   **
 **                                                                           **
 **            Copyright (C) by CP2K developers group (2000 - 2018)           **
 **                                                                           **
 *******************************************************************************


 TOTAL NUMBERS AND MAXIMUM NUMBERS

  Total number of            - Atomic kinds:                                   2
                             - Atoms:                                          6
                             - Shell sets:                                     6
                             - Shells:                                        22
                             - Primitive Cartesian functions:                 42
                             - Cartesian basis functions:                     48
                             - Spherical basis functions:                     46

  Maximum angular momentum of- Orbital basis functions:                        2
                             - Local part of the GTH pseudopotential:          2
                             - Non-local part of the GTH pseudopotential:      0

 ------------------------------ Linear scaling SCF -----------------------------
 eps_scf:                                       0.100E-07
 eps_filter:                                    0.100E-07
 mixing_fraction:                               0.450E+00
 max_scf:                                              25
 fixed chemical potential (mu)                          F
 has unit metric:                                       F
 Computing inv(S):                                      T
 Computing sqrt(S):                                     T
 Computing s preconditioner                             F
 sign sqrt order:                                       3
 Extrapolation order:                                   1
 Use single precision matrices                          F
 S preconditioner type                               NONE
 Polarized Atomic Orbitals (PAO)                        T
 Purification method                      Trace resetting 4th order
 Cluster type                                      ATOMIC
 Computing Chebyshev                                FALSE
 Using PAO                                              T
 -------------------------------------------------------------------------------

 
 PAO|                                  EPS_PAO                           0.5E-06
 PAO|                                  MIXING                            0.5E+00
 PAO|                                  MAX_PAO                              1000
 PAO|                                  MAX_CYCLES                           1000
 PAO|                                  PARAMETERIZATION                   DIRECT
 PAO|                                  PRECONDITION                            F
 PAO|                                  REGULARIZATION                    0.0E+00
 PAO|                                  EPS_PGF                           0.1E-09
 PAO|                                  PENALTY_DISTANCE                  0.1E+00
 PAO|                                  PENALTY_STRENGTH                  0.5E-02
 PAO|                                  LINPOT_PRECONDITION_DELTA         0.0E+00
 PAO|                                  LINPOT_INITGUESS_DELT             0.0E+00
 PAO|                                  LINPOT_REGULARIZATION_DELTA       0.0E+00
 PAO|                                  LINPOT_REGULARIZATION_STRENGTH    0.0E+00
 PAO|                                  OPTIMIZER                              CG
 PAO|                                  CG_INIT_STEPS                           2
 PAO|                                  CG_RESET_LIMIT                    0.1E+00
 PAO|                                  CHECK_UNITARY_TOL                -0.1E+01
 PAO|                                  CHECK_GRADIENT_TOL               -0.1E+01
 PAO|                                  NUM_GRADIENT_ORDER                      2
 PAO|                                  NUM_GRADIENT_EPS                  0.1E-07
 PAO|                                  PRINT%RESTART%WRITE_CYCLES            100
 PAO|                                  RESTART_FILE 
 PAO|                                  PREOPT_DM_FILE 2H2O_ref_LS_DM_SPIN_1_RESTART.dm
 PAO|                                  MACHINE_LEARNING%METHOD        GAUSSIAN_P
 PAO|                                  MACHINE_LEARNING%PRIOR               ZERO
 PAO|                                  MACHINE_LEARNING%DESCRIPTOR     POTENTIAL
 PAO|                                  MACHINE_LEARNING%TOLERANCE        0.1E-01
 PAO|                                  MACHINE_LEARNING%GP_NOISE_VAR     0.1E+00
 PAO|                                  MACHINE_LEARNING%GP_SCALE         0.5E-01
 

 Calculating atomic Fock matrix for atomic kind: O

 Electronic structure
    Total number of core electrons                                          2.00
    Total number of valence electrons                                       6.00
    Total number of electrons                                               8.00
    Multiplicity                                                   not specified
    S   [  2.00] 2.00
    P      4.00


 *******************************************************************************
                  Iteration          Convergence                     Energy [au]
 *******************************************************************************
                          1        0.708315                     -15.576645311500
                          2        0.608879                     -15.587933561584
                          3        0.102828E-01                 -15.656849565404
                          4        0.113889E-02                 -15.656866888140
                          5        0.434197E-03                 -15.656867072159
                          6        0.263771E-03                 -15.656867091904
                          7        0.478536E-06                 -15.656867103452

 Energy components [Hartree]           Total Energy ::          -15.656867103452
                                        Band Energy ::           -3.000198112285
                                     Kinetic Energy ::           11.759971203220
                                   Potential Energy ::          -27.416838306672
                                      Virial (-V/T) ::            2.331369510426
                                        Core Energy ::          -26.140716385623
                                          XC Energy ::           -3.154051012914
                                     Coulomb Energy ::           13.637900295084
                       Total Pseudopotential Energy ::          -37.935781716540
                       Local Pseudopotential Energy ::          -39.218907440693
                    Nonlocal Pseudopotential Energy ::            1.283125724153
                                        Confinement ::            0.350941276976

 Orbital energies  State     L     Occupation   Energy[a.u.]          Energy[eV]

                       1     0          2.000      -0.864471          -23.523463

                       1     1          4.000      -0.317814           -8.648154


 Total Electron Density at R=0:                                         0.000068

 Calculating atomic Fock matrix for atomic kind: H

 Electronic structure
    Total number of core electrons                                          0.00
    Total number of valence electrons                                       1.00
    Total number of electrons                                               1.00
    Multiplicity                                                   not specified
    S      1.00


 *******************************************************************************
                  Iteration          Convergence                     Energy [au]
 *******************************************************************************
                          1        0.437545E-02                  -0.424159432110
                          2        0.531356E-03                  -0.424178438213
                          3        0.259176E-06                  -0.424178722480

 Energy components [Hartree]           Total Energy ::           -0.424178722480
                                        Band Energy ::           -0.199015229016
                                     Kinetic Energy ::            0.464007633961
                                   Potential Energy ::           -0.888186356441
                                      Virial (-V/T) ::            1.914163240935
                                        Core Energy ::           -0.479160803564
                                          XC Energy ::           -0.244352904054
                                     Coulomb Energy ::            0.299334985138
                       Total Pseudopotential Energy ::           -0.962295316385
                       Local Pseudopotential Energy ::           -0.962295316385
                    Nonlocal Pseudopotential Energy ::            0.000000000000
                                        Confinement ::            0.191268788606

 Orbital energies  State     L     Occupation   Energy[a.u.]          Energy[eV]

                       1     0          1.000      -0.199015           -5.415480


 Total Electron Density at R=0:                                         0.242907
 PAO| Made initial guess for matrix_X with norm:   4.8989794855663558     

     Lanczos converged:  T threshold:   0.100E-02
     Est. extremal eigenvalues:    0.321E+01   0.119E+00
     Est. condition number :    0.269E+02
     NS sqrt iter    1 1.00000000   0.782E+00       0.001       47.905
     NS sqrt iter    2 1.00000000   0.413E+00       0.001       84.254
     NS sqrt iter    3 1.00000000   0.155E+00       0.001       85.442
     NS sqrt iter    4 1.00000000   0.161E-01       0.001       85.838
     NS sqrt iter    5 1.00000000   0.265E-04       0.001       66.023
     Final NS sqrt iter    5 1.00000000   0.113E-08

 PAO| Read restart DM 2H2O_ref_LS_DM_SPIN_1_RESTART.dm with checksum:    69.164351406705904     
 PAO| Quickstep energy from restart density:  -34.445353859829687     
 PAO| ======================= Iteration:         1 =============================

     Lanczos converged:  T threshold:   0.100E-02
     Est. extremal eigenvalues:    0.321E+01   0.119E+00
     Est. condition number :    0.269E+02
     NS sqrt iter    1 1.00000000   0.782E+00       0.001       64.512
     NS sqrt iter    2 1.00000000   0.413E+00       0.001      110.592
     NS sqrt iter    3 1.00000000   0.155E+00       0.001      110.592
     NS sqrt iter    4 1.00000000   0.161E-01       0.001      110.592
     NS sqrt iter    5 1.00000000   0.265E-04       0.001       83.328
     Final NS sqrt iter    5 1.00000000   0.113E-08

     Est. extremal eigenvalues     -0.90397     1.66573  converged:  T
     TRS4 it   1 1.00000000   0.849E+00       0.000       16.128   0.100E-07
     TRS4 it   2 1.00000000   0.645E+00       0.001       32.256   0.100E-07
     TRS4 it   3 1.00000000   0.473E+00       0.001       32.256   0.100E-07
     TRS4 it   4 1.00000000   0.295E+00       0.001       32.256   0.100E-07
     TRS4 it   5 1.00000000   0.142E+00       0.001       32.256   0.100E-07
     TRS4 it   6 1.00000000   0.386E-01       0.001       32.256   0.100E-07
     TRS4 it   7 1.00000000   0.365E-02       0.001       32.256   0.100E-07
     TRS4 it   8 1.00000000   0.418E-04       0.001       32.256   0.100E-07
     TRS4 it   9 1.00000000   0.685E-08       0.001       32.256   0.100E-07
     Final TRS4 iteration    9 1.00000000   0.685E-08
     Chemical potential (mu):      -0.06502
 
 PAO| energy:  -7.5376287758690639      penalty:   8.6897959090752077E-033
 PAO|CG| warming up with steepest descent
 PAO|CG| beta:    0.0000000000000000     
 PAO| norm of gradient:  0.78967958210444078     
 PAO|LS| adapt:  T F F
 PAO|LS| adapt: scan_steps:    0.0000000000000000        0.0000000000000000        0.0000000000000000     
 PAO|LS| adapt: energies:   -7.5376287758690639        0.0000000000000000        0.0000000000000000     
 PAO| ======================= Iteration:         2 =============================

     Lanczos converged:  T threshold:   0.100E-02
     Est. extremal eigenvalues:    0.314E+01   0.136E+00
     Est. condition number :    0.230E+02
     NS sqrt iter    1 1.00000000   0.770E+00       0.001       64.512
     NS sqrt iter    2 1.00000000   0.400E+00       0.001      110.592
     NS sqrt iter    3 1.00000000   0.138E+00       0.001      110.592
     NS sqrt iter    4 1.00000000   0.107E-01       0.001      110.592
     NS sqrt iter    5 1.00000000   0.697E-05       0.001       82.944
     Final NS sqrt iter    5 1.00000000   0.749E-10

     Est. extremal eigenvalues     -0.90771     1.61269  converged:  T
     TRS4 it   1 1.00000000   0.840E+00       0.000       16.128   0.100E-07
     TRS4 it   2 1.00000000   0.624E+00       0.001       32.256   0.100E-07
     TRS4 it   3 1.00000000   0.451E+00       0.001       32.256   0.100E-07
     TRS4 it   4 1.00000000   0.269E+00       0.001       32.256   0.100E-07
     TRS4 it   5 1.00000000   0.118E+00       0.001       32.256   0.100E-07
     TRS4 it   6 1.00000000   0.270E-01       0.001       32.256   0.100E-07
     TRS4 it   7 1.00000000   0.180E-02       0.001       32.256   0.100E-07
     TRS4 it   8 1.00000000   0.103E-04       0.001       32.256   0.100E-07
     TRS4 it   9 1.00000000   0.422E-09       0.001       32.256   0.100E-07
     Final TRS4 iteration    9 1.00000000   0.422E-09
     Chemical potential (mu):      -0.05290
 
 PAO| energy:  -7.5938481423003124      penalty:   2.3250690629183552E-008
 PAO|LS| adapt:  T T F
 PAO|LS| adapt: scan_steps:    0.0000000000000000       0.10000000000000001        0.0000000000000000     
 PAO|LS| adapt: energies:   -7.5376287758690639       -7.5938481423003124        0.0000000000000000     
 PAO| ======================= Iteration:         3 =============================

     Lanczos converged:  T threshold:   0.100E-02
     Est. extremal eigenvalues:    0.306E+01   0.154E+00
     Est. condition number :    0.199E+02
     NS sqrt iter    1 1.00000000   0.757E+00       0.001       64.512
     NS sqrt iter    2 1.00000000   0.385E+00       0.001      110.592
     NS sqrt iter    3 1.00000000   0.122E+00       0.001      110.592
     NS sqrt iter    4 1.00000000   0.711E-02       0.001      110.592
     NS sqrt iter    5 1.00000000   0.180E-05       0.001       82.304
     Final NS sqrt iter    5 1.00000000   0.448E-09

     Est. extremal eigenvalues     -0.91119     1.57522  converged:  T
     TRS4 it   1 1.00000000   0.835E+00       0.000       16.128   0.100E-07
     TRS4 it   2 1.00000000   0.607E+00       0.001       32.256   0.100E-07
     TRS4 it   3 1.00000000   0.430E+00       0.001       32.256   0.100E-07
     TRS4 it   4 1.00000000   0.244E+00       0.001       32.256   0.100E-07
     TRS4 it   5 1.00000000   0.974E-01       0.001       32.256   0.100E-07
     TRS4 it   6 1.00000000   0.183E-01       0.001       32.256   0.100E-07
     TRS4 it   7 1.00000000   0.818E-03       0.001       32.256   0.100E-07
     TRS4 it   8 1.00000000   0.213E-05       0.001       32.256   0.100E-07
     TRS4 it   9 1.00000000   0.184E-10       0.001       32.256   0.100E-07
     Final TRS4 iteration    9 1.00000000   0.184E-10
     Chemical potential (mu):      -0.03973
 
 PAO| energy:  -7.6371188931661003      penalty:   3.7201091058377270E-007
 PAO|LS| adapt:  T T F
 PAO|LS| adapt: scan_steps:    0.0000000000000000       0.20000000000000001        0.0000000000000000     
 PAO|LS| adapt: energies:   -7.5376287758690639       -7.6371188931661003        0.0000000000000000     
 PAO| ======================= Iteration:         4 =============================

     Lanczos converged:  T threshold:   0.100E-02
     Est. extremal eigenvalues:    0.289E+01   0.173E+00
     Est. condition number :    0.167E+02
     NS sqrt iter    1 1.00000000   0.726E+00       0.001       47.839
     NS sqrt iter    2 1.00000000   0.353E+00       0.001       83.994
     NS sqrt iter    3 1.00000000   0.943E-01       0.001       80.086
     NS sqrt iter    4 1.00000000   0.324E-02       0.002       70.854
     NS sqrt iter    5 1.00000000   0.188E-06       0.001       63.260
     Final NS sqrt iter    5 1.00000000   0.778E-09

     Est. extremal eigenvalues     -0.91650     1.53271  converged:  T
     TRS4 it   1 1.00000000   0.832E+00       0.000       16.128   0.100E-07
     TRS4 it   2 1.00000000   0.583E+00       0.001       32.256   0.100E-07
     TRS4 it   3 1.00000000   0.394E+00       0.001       32.256   0.100E-07
     TRS4 it   4 1.00000000   0.203E+00       0.001       32.256   0.100E-07
     TRS4 it   5 1.00000000   0.654E-01       0.001       32.256   0.100E-07
     TRS4 it   6 1.00000000   0.787E-02       0.001       32.256   0.100E-07
     TRS4 it   7 1.00000000   0.142E-03       0.001       32.256   0.100E-07
     TRS4 it   8 1.00000000   0.640E-07       0.001       32.256   0.100E-07
     Final TRS4 iteration    8 1.00000000   0.640E-07
     Chemical potential (mu):      -0.01132
 
 PAO| energy:  -7.6832387852083066      penalty:   5.9521734535673220E-006
 PAO|LS| Need extra step
 PAO|LS| adapt:  T T F
 PAO|LS| adapt: scan_steps:    0.0000000000000000       0.40000000000000002        0.0000000000000000     
 PAO|LS| adapt: energies:   -7.5376287758690639       -7.6832387852083066        0.0000000000000000     
 PAO| ======================= Iteration:         5 =============================

     Lanczos converged:  T threshold:   0.100E-02
     Est. extremal eigenvalues:    0.256E+01   0.197E+00
     Est. condition number :    0.130E+02
     NS sqrt iter    1 1.00000000   0.666E+00       0.001       64.512
     NS sqrt iter    2 1.00000000   0.293E+00       0.001      110.592
     NS sqrt iter    3 1.00000000   0.565E-01       0.001      110.592
     NS sqrt iter    4 1.00000000   0.827E-03       0.001      110.592
     NS sqrt iter    5 1.00000000   0.317E-08       0.001       36.864
     Final NS sqrt iter    5 1.00000000   0.224E-08

     Est. extremal eigenvalues     -0.91726     1.50447  converged:  T
     TRS4 it   1 1.00000000   0.837E+00       0.000       16.128   0.100E-07
     TRS4 it   2 1.00000000   0.555E+00       0.001       32.256   0.100E-07
     TRS4 it   3 1.00000000   0.344E+00       0.001       32.256   0.100E-07
     TRS4 it   4 1.00000000   0.146E+00       0.001       32.256   0.100E-07
     TRS4 it   5 1.00000000   0.316E-01       0.001       32.256   0.100E-07
     TRS4 it   6 1.00000000   0.164E-02       0.001       32.256   0.100E-07
     TRS4 it   7 1.00000000   0.534E-05       0.001       32.256   0.100E-07
     TRS4 it   8 1.00000000   0.797E-10       0.001       32.256   0.100E-07
     Final TRS4 iteration    8 1.00000000   0.797E-10
     Chemical potential (mu):       0.03497
 
 PAO| energy:  -7.6210419923600075      penalty:   9.5234766331256119E-005
 PAO|LS| Need extra step
 PAO|LS| adapt:  T T T
 PAO|LS| adapt: scan_steps:    0.0000000000000000       0.40000000000000002       0.80000000000000004     
 PAO|LS| adapt: energies:   -7.5376287758690639       -7.6832387852083066       -7.6210419923600075     
 PAO|LS| adapt: suggested step_size:   0.48027958239371266     
 PAO|LS| adapt: predicted energy  -7.6874240215745626     
 PAO| ======================= Iteration:         6 =============================

     Lanczos converged:  T threshold:   0.100E-02
     Est. extremal eigenvalues:    0.282E+01   0.178E+00
     Est. condition number :    0.159E+02
     NS sqrt iter    1 1.00000000   0.712E+00       0.001       64.512
     NS sqrt iter    2 1.00000000   0.340E+00       0.001      110.592
     NS sqrt iter    3 1.00000000   0.848E-01       0.001      110.592
     NS sqrt iter    4 1.00000000   0.241E-02       0.001      110.592
     NS sqrt iter    5 1.00000000   0.913E-07       0.001       69.248
     Final NS sqrt iter    5 1.00000000   0.356E-09

     Est. extremal eigenvalues     -0.91779     1.52325  converged:  T
     TRS4 it   1 1.00000000   0.833E+00       0.000       16.128   0.100E-07
     TRS4 it   2 1.00000000   0.576E+00       0.001       32.256   0.100E-07
     TRS4 it   3 1.00000000   0.382E+00       0.001       32.256   0.100E-07
     TRS4 it   4 1.00000000   0.189E+00       0.001       32.256   0.100E-07
     TRS4 it   5 1.00000000   0.559E-01       0.001       32.256   0.100E-07
     TRS4 it   6 1.00000000   0.558E-02       0.001       32.256   0.100E-07
     TRS4 it   7 1.00000000   0.685E-04       0.001       32.256   0.100E-07
     TRS4 it   8 1.00000000   0.145E-07       0.001       32.256   0.100E-07
     Final TRS4 iteration    8 1.00000000   0.145E-07
     Chemical potential (mu):      -0.00002
 
 PAO| energy:  -7.6867131156283959      penalty:   1.2371207663207902E-005
 PAO|CG| warming up with steepest descent
 PAO|CG| beta:    0.0000000000000000     
 PAO| norm of gradient:  0.41389449602970901     
 PAO| energy improvement: -0.14908433975933200     
 PAO| step      6                   -7.686713116  0.259E-01  0.480E+00     0.079
 PAO|LS| adapt:  T F F
 PAO|LS| adapt: scan_steps:    0.0000000000000000        0.0000000000000000        0.0000000000000000     
 PAO|LS| adapt: energies:   -7.6867131156283959        0.0000000000000000        0.0000000000000000     
 PAO| ======================= Iteration:         7 =============================

     Lanczos converged:  T threshold:   0.100E-02
     Est. extremal eigenvalues:    0.274E+01   0.194E+00
     Est. condition number :    0.141E+02
     NS sqrt iter    1 1.00000000   0.697E+00       0.001       64.512
     NS sqrt iter    2 1.00000000   0.320E+00       0.001      110.592
     NS sqrt iter    3 1.00000000   0.702E-01       0.001      110.592
     NS sqrt iter    4 1.00000000   0.139E-02       0.001      110.592
     NS sqrt iter    5 1.00000000   0.178E-07       0.001       47.616
     Final NS sqrt iter    5 1.00000000   0.251E-08

     Est. extremal eigenvalues     -0.91954     1.51642  converged:  T
     TRS4 it   1 1.00000000   0.833E+00       0.000       16.128   0.100E-07
     TRS4 it   2 1.00000000   0.575E+00       0.001       32.256   0.100E-07
     TRS4 it   3 1.00000000   0.383E+00       0.001       32.256   0.100E-07
     TRS4 it   4 1.00000000   0.190E+00       0.001       32.256   0.100E-07
     TRS4 it   5 1.00000000   0.565E-01       0.001       32.256   0.100E-07
     TRS4 it   6 1.00000000   0.562E-02       0.001       32.256   0.100E-07
     TRS4 it   7 1.00000000   0.667E-04       0.001       32.256   0.100E-07
     TRS4 it   8 1.00000000   0.125E-07       0.001       32.256   0.100E-07
     Final TRS4 iteration    8 1.00000000   0.125E-07
     Chemical potential (mu):       0.00012
 
 PAO| energy:  -7.6838185796373244      penalty:   1.8500450585841129E-005
 PAO|LS| adapt:  T F T
 PAO|LS| adapt: scan_steps:    0.0000000000000000        0.0000000000000000       0.48027958239371266     
 PAO|LS| adapt: energies:   -7.6867131156283959        0.0000000000000000       -7.6838185796373244     
 PAO| ======================= Iteration:         8 =============================

     Lanczos converged:  T threshold:   0.100E-02
     Est. extremal eigenvalues:    0.278E+01   0.186E+00
     Est. condition number :    0.150E+02
     NS sqrt iter    1 1.00000000   0.705E+00       0.001       64.512
     NS sqrt iter    2 1.00000000   0.330E+00       0.001      110.592
     NS sqrt iter    3 1.00000000   0.773E-01       0.001      110.592
     NS sqrt iter    4 1.00000000   0.184E-02       0.001      110.592
     NS sqrt iter    5 1.00000000   0.419E-07       0.001       58.624
     Final NS sqrt iter    5 1.00000000   0.218E-08

     Est. extremal eigenvalues     -0.91952     1.51921  converged:  T
     TRS4 it   1 1.00000000   0.832E+00       0.000       16.128   0.100E-07
     TRS4 it   2 1.00000000   0.575E+00       0.001       32.256   0.100E-07
     TRS4 it   3 1.00000000   0.382E+00       0.001       32.256   0.100E-07
     TRS4 it   4 1.00000000   0.189E+00       0.001       32.256   0.100E-07
     TRS4 it   5 1.00000000   0.562E-01       0.001       32.256   0.100E-07
     TRS4 it   6 1.00000000   0.569E-02       0.001       32.256   0.100E-07
     TRS4 it   7 1.00000000   0.704E-04       0.001       32.256   0.100E-07
     TRS4 it   8 1.00000000   0.146E-07       0.001       32.256   0.100E-07
     Final TRS4 iteration    8 1.00000000   0.146E-07
     Chemical potential (mu):      -0.00038
 
 PAO| energy:  -7.7063620835128432      penalty:   1.3385412405400904E-005
 PAO|LS| adapt:  T T T
 PAO|LS| adapt: scan_steps:    0.0000000000000000       0.24013979119685633       0.48027958239371266     
 PAO|LS| adapt: energies:   -7.6867131156283959       -7.7063620835128432       -7.6838185796373244     
 PAO|LS| adapt: suggested step_size:   0.23190261949876187     
 PAO|LS| adapt: predicted energy  -7.7063869052945915     
 PAO| ======================= Iteration:         9 =============================

     Lanczos converged:  T threshold:   0.100E-02
     Est. extremal eigenvalues:    0.278E+01   0.186E+00
     Est. condition number :    0.150E+02
     NS sqrt iter    1 1.00000000   0.705E+00       0.001       64.512
     NS sqrt iter    2 1.00000000   0.330E+00       0.001      110.592
     NS sqrt iter    3 1.00000000   0.776E-01       0.001      110.592
     NS sqrt iter    4 1.00000000   0.186E-02       0.001      110.592
     NS sqrt iter    5 1.00000000   0.431E-07       0.001       58.752
     Final NS sqrt iter    5 1.00000000   0.366E-08

     Est. extremal eigenvalues     -0.91949     1.51933  converged:  T
     TRS4 it   1 1.00000000   0.832E+00       0.000       16.128   0.100E-07
     TRS4 it   2 1.00000000   0.575E+00       0.001       32.256   0.100E-07
     TRS4 it   3 1.00000000   0.382E+00       0.001       32.256   0.100E-07
     TRS4 it   4 1.00000000   0.189E+00       0.001       32.256   0.100E-07
     TRS4 it   5 1.00000000   0.562E-01       0.001       32.256   0.100E-07
     TRS4 it   6 1.00000000   0.569E-02       0.001       32.256   0.100E-07
     TRS4 it   7 1.00000000   0.705E-04       0.001       32.256   0.100E-07
     TRS4 it   8 1.00000000   0.147E-07       0.001       32.256   0.100E-07
     Final TRS4 iteration    8 1.00000000   0.147E-07
     Chemical potential (mu):      -0.00038
 
 PAO| energy:  -7.7063978472236077      penalty:   1.3300801370878224E-005
 PAO|CG| trace_G_new    3.7572862012566308E-002
 PAO|CG| trace_G_prev   0.17130865384368676     
 PAO|CG| trace_G_mix   -1.3079972877366596E-003
 PAO|CG| trace_D   0.17130865384368676     
 PAO|CG| trace_D_Gnew   1.3079972877366596E-003
 PAO|CG| beta:   0.22696377811584703     
 PAO| norm of gradient:  0.19383720492352935     
 PAO| energy improvement:  -1.9684731595211780E-002
 PAO| step      9                   -7.706397847  0.121E-01  0.232E+00     0.046
 PAO|LS| adapt:  T F F
 PAO|LS| adapt: scan_steps:    0.0000000000000000        0.0000000000000000        0.0000000000000000     
 PAO|LS| adapt: energies:   -7.7063978472236077        0.0000000000000000        0.0000000000000000     
 PAO| ======================= Iteration:        10 =============================

     Lanczos converged:  T threshold:   0.100E-02
     Est. extremal eigenvalues:    0.275E+01   0.191E+00
     Est. condition number :    0.144E+02
     NS sqrt iter    1 1.00000000   0.697E+00       0.001       64.512
     NS sqrt iter    2 1.00000000   0.322E+00       0.001      110.592
     NS sqrt iter    3 1.00000000   0.722E-01       0.001      110.592
     NS sqrt iter    4 1.00000000   0.151E-02       0.001      110.592
     NS sqrt iter    5 1.00000000   0.234E-07       0.001       51.328
     Final NS sqrt iter    5 1.00000000   0.324E-08

     Est. extremal eigenvalues     -0.92043     1.52372  converged:  T
     TRS4 it   1 1.00000000   0.834E+00       0.000       16.128   0.100E-07
     TRS4 it   2 1.00000000   0.576E+00       0.001       32.256   0.100E-07
     TRS4 it   3 1.00000000   0.382E+00       0.001       32.256   0.100E-07
     TRS4 it   4 1.00000000   0.188E+00       0.001       32.256   0.100E-07
     TRS4 it   5 1.00000000   0.553E-01       0.001       32.256   0.100E-07
     TRS4 it   6 1.00000000   0.546E-02       0.001       32.256   0.100E-07
     TRS4 it   7 1.00000000   0.634E-04       0.001       32.256   0.100E-07
     TRS4 it   8 1.00000000   0.115E-07       0.001       32.256   0.100E-07
     Final TRS4 iteration    8 1.00000000   0.115E-07
     Chemical potential (mu):       0.00238
 
 PAO| energy:  -7.7114310240274779      penalty:   1.3866897233495385E-005
 PAO|LS| adapt:  T T F
 PAO|LS| adapt: scan_steps:    0.0000000000000000       0.23190261949876187        0.0000000000000000     
 PAO|LS| adapt: energies:   -7.7063978472236077       -7.7114310240274779        0.0000000000000000     
 PAO| ======================= Iteration:        11 =============================

     Lanczos converged:  T threshold:   0.100E-02
     Est. extremal eigenvalues:    0.271E+01   0.197E+00
     Est. condition number :    0.138E+02
     NS sqrt iter    1 1.00000000   0.689E+00       0.001       64.512
     NS sqrt iter    2 1.00000000   0.313E+00       0.001      110.592
     NS sqrt iter    3 1.00000000   0.670E-01       0.001      110.592
     NS sqrt iter    4 1.00000000   0.121E-02       0.001      110.592
     NS sqrt iter    5 1.00000000   0.117E-07       0.001       42.880
     Final NS sqrt iter    5 1.00000000   0.499E-08

     Est. extremal eigenvalues     -0.92014     1.52991  converged:  T
     TRS4 it   1 1.00000000   0.836E+00       0.000       16.128   0.100E-07
     TRS4 it   2 1.00000000   0.577E+00       0.001       32.256   0.100E-07
     TRS4 it   3 1.00000000   0.382E+00       0.001       32.256   0.100E-07
     TRS4 it   4 1.00000000   0.187E+00       0.001       32.256   0.100E-07
     TRS4 it   5 1.00000000   0.546E-01       0.001       32.256   0.100E-07
     TRS4 it   6 1.00000000   0.526E-02       0.001       32.256   0.100E-07
     TRS4 it   7 1.00000000   0.576E-04       0.001       32.256   0.100E-07
     TRS4 it   8 1.00000000   0.909E-08       0.001       32.256   0.100E-07
     Final TRS4 iteration    8 1.00000000   0.909E-08
     Chemical potential (mu):       0.00519
 
 PAO| energy:  -7.7095138871173807      penalty:   1.5116944614796135E-005
 PAO|LS| adapt:  T T T
 PAO|LS| adapt: scan_steps:    0.0000000000000000       0.23190261949876187       0.46380523899752374     
 PAO|LS| adapt: energies:   -7.7063978472236077       -7.7114310240274779       -7.7095138871173807     
 PAO|LS| adapt: suggested step_size:   0.28388716606508674     
 PAO|LS| adapt: predicted energy  -7.7116056511202116     
 PAO| ======================= Iteration:        12 =============================

     Lanczos converged:  T threshold:   0.100E-02
     Est. extremal eigenvalues:    0.274E+01   0.192E+00
     Est. condition number :    0.142E+02
     NS sqrt iter    1 1.00000000   0.695E+00       0.001       64.512
     NS sqrt iter    2 1.00000000   0.320E+00       0.001      110.592
     NS sqrt iter    3 1.00000000   0.710E-01       0.001      110.592
     NS sqrt iter    4 1.00000000   0.144E-02       0.001      110.592
     NS sqrt iter    5 1.00000000   0.204E-07       0.001       51.200
     Final NS sqrt iter    5 1.00000000   0.232E-09

     Est. extremal eigenvalues     -0.92047     1.52496  converged:  T
     TRS4 it   1 1.00000000   0.834E+00       0.000       16.128   0.100E-07
     TRS4 it   2 1.00000000   0.576E+00       0.001       32.256   0.100E-07
     TRS4 it   3 1.00000000   0.382E+00       0.001       32.256   0.100E-07
     TRS4 it   4 1.00000000   0.188E+00       0.001       32.256   0.100E-07
     TRS4 it   5 1.00000000   0.551E-01       0.001       32.256   0.100E-07
     TRS4 it   6 1.00000000   0.541E-02       0.001       32.256   0.100E-07
     TRS4 it   7 1.00000000   0.620E-04       0.001       32.256   0.100E-07
     TRS4 it   8 1.00000000   0.109E-07       0.001       32.256   0.100E-07
     Final TRS4 iteration    8 1.00000000   0.109E-07
     Chemical potential (mu):       0.00300
 
 PAO| energy:  -7.7115908139360307      penalty:   1.4080768321020398E-005
 PAO|CG| trace_G_new    1.2166137438608561E-002
 PAO|CG| trace_G_prev    3.7572862012566308E-002
 PAO|CG| trace_G_mix   -5.2608973067400826E-004
 PAO|CG| trace_D    4.5803672723373753E-002
 PAO|CG| trace_D_Gnew   2.5622963696573706E-004
 PAO|CG| beta:   0.33780304425671998     
 PAO| norm of gradient:  0.11030021504334687     
 PAO| energy improvement:  -5.1929667124230861E-003
 PAO| step     12                   -7.711590814  0.689E-02  0.284E+00     0.048
 PAO|LS| adapt:  T F F
 PAO|LS| adapt: scan_steps:    0.0000000000000000        0.0000000000000000        0.0000000000000000     
 PAO|LS| adapt: energies:   -7.7115908139360307        0.0000000000000000        0.0000000000000000     
 PAO| ======================= Iteration:        13 =============================

     Lanczos converged:  T threshold:   0.100E-02
     Est. extremal eigenvalues:    0.270E+01   0.197E+00
     Est. condition number :    0.138E+02
     NS sqrt iter    1 1.00000000   0.688E+00       0.001       64.512
     NS sqrt iter    2 1.00000000   0.313E+00       0.001      110.592
     NS sqrt iter    3 1.00000000   0.669E-01       0.001      110.592
     NS sqrt iter    4 1.00000000   0.121E-02       0.001      110.592
     NS sqrt iter    5 1.00000000   0.116E-07       0.001       43.008
     Final NS sqrt iter    5 1.00000000   0.491E-08

     Est. extremal eigenvalues     -0.92098     1.52614  converged:  T
     TRS4 it   1 1.00000000   0.836E+00       0.000       16.128   0.100E-07
     TRS4 it   2 1.00000000   0.575E+00       0.001       32.256   0.100E-07
     TRS4 it   3 1.00000000   0.379E+00       0.001       32.256   0.100E-07
     TRS4 it   4 1.00000000   0.184E+00       0.001       32.256   0.100E-07
     TRS4 it   5 1.00000000   0.526E-01       0.001       32.256   0.100E-07
     TRS4 it   6 1.00000000   0.488E-02       0.001       32.256   0.100E-07
     TRS4 it   7 1.00000000   0.495E-04       0.001       32.256   0.100E-07
     TRS4 it   8 1.00000000   0.675E-08       0.001       32.256   0.100E-07
     Final TRS4 iteration    8 1.00000000   0.675E-08
     Chemical potential (mu):       0.00705
 
 PAO| energy:  -7.7136681063504984      penalty:   1.4386637734194403E-005
 PAO|LS| adapt:  T T F
 PAO|LS| adapt: scan_steps:    0.0000000000000000       0.28388716606508674        0.0000000000000000     
 PAO|LS| adapt: energies:   -7.7115908139360307       -7.7136681063504984        0.0000000000000000     
 PAO| ======================= Iteration:        14 =============================

     Lanczos converged:  T threshold:   0.100E-02
     Est. extremal eigenvalues:    0.267E+01   0.201E+00
     Est. condition number :    0.133E+02
     NS sqrt iter    1 1.00000000   0.681E+00       0.001       64.512
     NS sqrt iter    2 1.00000000   0.306E+00       0.001      110.592
     NS sqrt iter    3 1.00000000   0.630E-01       0.001      110.592
     NS sqrt iter    4 1.00000000   0.102E-02       0.001      110.592
     NS sqrt iter    5 1.00000000   0.575E-08       0.001       38.272
     Final NS sqrt iter    5 1.00000000   0.239E-08

     Est. extremal eigenvalues     -0.92096     1.52742  converged:  T
     TRS4 it   1 1.00000000   0.838E+00       0.000       16.128   0.100E-07
     TRS4 it   2 1.00000000   0.574E+00       0.001       32.256   0.100E-07
     TRS4 it   3 1.00000000   0.377E+00       0.001       32.256   0.100E-07
     TRS4 it   4 1.00000000   0.180E+00       0.001       32.256   0.100E-07
     TRS4 it   5 1.00000000   0.502E-01       0.001       32.256   0.100E-07
     TRS4 it   6 1.00000000   0.441E-02       0.001       32.256   0.100E-07
     TRS4 it   7 1.00000000   0.398E-04       0.001       32.256   0.100E-07
     TRS4 it   8 1.00000000   0.422E-08       0.001       32.256   0.100E-07
     Final TRS4 iteration    8 1.00000000   0.422E-08
     Chemical potential (mu):       0.01096
 
 PAO| energy:  -7.7130901895199733      penalty:   1.5142703880050808E-005
 PAO|LS| adapt:  T T T
 PAO|LS| adapt: scan_steps:    0.0000000000000000       0.28388716606508674       0.56777433213017348     
 PAO|LS| adapt: energies:   -7.7115908139360307       -7.7136681063504984       -7.7130901895199733     
 PAO|LS| adapt: suggested step_size:   0.36404158067390480     
 PAO|LS| adapt: predicted energy  -7.7137739420367986     
 PAO| ======================= Iteration:        15 =============================

     Lanczos converged:  T threshold:   0.100E-02
     Est. extremal eigenvalues:    0.270E+01   0.198E+00
     Est. condition number :    0.136E+02
     NS sqrt iter    1 1.00000000   0.686E+00       0.001       64.512
     NS sqrt iter    2 1.00000000   0.311E+00       0.001      110.592
     NS sqrt iter    3 1.00000000   0.658E-01       0.001      110.592
     NS sqrt iter    4 1.00000000   0.115E-02       0.001      110.592
     NS sqrt iter    5 1.00000000   0.101E-07       0.001       42.496
     Final NS sqrt iter    5 1.00000000   0.480E-08

     Est. extremal eigenvalues     -0.92103     1.52649  converged:  T
     TRS4 it   1 1.00000000   0.837E+00       0.000       16.128   0.100E-07
     TRS4 it   2 1.00000000   0.575E+00       0.001       32.256   0.100E-07
     TRS4 it   3 1.00000000   0.379E+00       0.001       32.256   0.100E-07
     TRS4 it   4 1.00000000   0.183E+00       0.001       32.256   0.100E-07
     TRS4 it   5 1.00000000   0.519E-01       0.001       32.256   0.100E-07
     TRS4 it   6 1.00000000   0.474E-02       0.001       32.256   0.100E-07
     TRS4 it   7 1.00000000   0.465E-04       0.001       32.256   0.100E-07
     TRS4 it   8 1.00000000   0.590E-08       0.001       32.256   0.100E-07
     Final TRS4 iteration    8 1.00000000   0.590E-08
     Chemical potential (mu):       0.00816
 
 PAO| energy:  -7.7137707544973875      penalty:   1.4551373488350656E-005
 PAO|CG| trace_G_new    2.5662504421888992E-003
 PAO|CG| trace_G_prev    1.2166137438608561E-002
 PAO|CG| trace_G_mix    9.3256177152939971E-005
 PAO|CG| trace_D    1.7219725302851589E-002
 PAO|CG| trace_D_Gnew   3.2946943901472716E-005
 PAO|CG| beta:   0.20326864442514428     
 PAO| norm of gradient:   5.0658172511342137E-002
 PAO| energy improvement:  -2.1799405613567302E-003
 PAO| step     15                   -7.713770754  0.317E-02  0.364E+00     0.046
 PAO|LS| adapt:  T F F
 PAO|LS| adapt: scan_steps:    0.0000000000000000        0.0000000000000000        0.0000000000000000     
 PAO|LS| adapt: energies:   -7.7137707544973875        0.0000000000000000        0.0000000000000000     
 PAO| ======================= Iteration:        16 =============================

     Lanczos converged:  T threshold:   0.100E-02
     Est. extremal eigenvalues:    0.269E+01   0.199E+00
     Est. condition number :    0.135E+02
     NS sqrt iter    1 1.00000000   0.684E+00       0.001       64.512
     NS sqrt iter    2 1.00000000   0.310E+00       0.001      110.592
     NS sqrt iter    3 1.00000000   0.652E-01       0.001      110.592
     NS sqrt iter    4 1.00000000   0.111E-02       0.001      110.592
     NS sqrt iter    5 1.00000000   0.804E-08       0.001       39.808
     Final NS sqrt iter    5 1.00000000   0.224E-08

     Est. extremal eigenvalues     -0.92106     1.52639  converged:  T
     TRS4 it   1 1.00000000   0.837E+00       0.000       16.128   0.100E-07
     TRS4 it   2 1.00000000   0.574E+00       0.001       32.256   0.100E-07
     TRS4 it   3 1.00000000   0.377E+00       0.001       32.256   0.100E-07
     TRS4 it   4 1.00000000   0.181E+00       0.001       32.256   0.100E-07
     TRS4 it   5 1.00000000   0.509E-01       0.001       32.256   0.100E-07
     TRS4 it   6 1.00000000   0.457E-02       0.001       32.256   0.100E-07
     TRS4 it   7 1.00000000   0.433E-04       0.001       32.256   0.100E-07
     TRS4 it   8 1.00000000   0.513E-08       0.001       32.256   0.100E-07
     Final TRS4 iteration    8 1.00000000   0.513E-08
     Chemical potential (mu):       0.00915
 
 PAO| energy:  -7.7139122717723039      penalty:   1.4342662988671676E-005
 PAO|LS| adapt:  T T F
 PAO|LS| adapt: scan_steps:    0.0000000000000000       0.36404158067390480        0.0000000000000000     
 PAO|LS| adapt: energies:   -7.7137707544973875       -7.7139122717723039        0.0000000000000000     
 PAO| ======================= Iteration:        17 =============================

     Lanczos converged:  T threshold:   0.100E-02
     Est. extremal eigenvalues:    0.268E+01   0.200E+00
     Est. condition number :    0.134E+02
     NS sqrt iter    1 1.00000000   0.683E+00       0.001       64.512
     NS sqrt iter    2 1.00000000   0.308E+00       0.001      110.592
     NS sqrt iter    3 1.00000000   0.646E-01       0.001      110.592
     NS sqrt iter    4 1.00000000   0.108E-02       0.001      110.592
     NS sqrt iter    5 1.00000000   0.706E-08       0.001       39.552
     Final NS sqrt iter    5 1.00000000   0.703E-09

     Est. extremal eigenvalues     -0.92092     1.52644  converged:  T
     TRS4 it   1 1.00000000   0.838E+00       0.000       16.128   0.100E-07
     TRS4 it   2 1.00000000   0.573E+00       0.001       32.256   0.100E-07
     TRS4 it   3 1.00000000   0.376E+00       0.001       32.256   0.100E-07
     TRS4 it   4 1.00000000   0.180E+00       0.001       32.256   0.100E-07
     TRS4 it   5 1.00000000   0.500E-01       0.001       32.256   0.100E-07
     TRS4 it   6 1.00000000   0.440E-02       0.001       32.256   0.100E-07
     TRS4 it   7 1.00000000   0.404E-04       0.001       32.256   0.100E-07
     TRS4 it   8 1.00000000   0.447E-08       0.001       32.256   0.100E-07
     Final TRS4 iteration    8 1.00000000   0.447E-08
     Chemical potential (mu):       0.01011
 
 PAO| energy:  -7.7124681752484303      penalty:   1.4245498885748857E-005
 PAO|LS| adapt:  T T T
 PAO|LS| adapt: scan_steps:    0.0000000000000000       0.36404158067390480       0.72808316134780959     
 PAO|LS| adapt: energies:   -7.7137707544973875       -7.7139122717723039       -7.7124681752484303     
 PAO|LS| adapt: suggested step_size:   0.21451178687882538     
 PAO|LS| adapt: predicted energy  -7.7140460301235718     
 PAO| ======================= Iteration:        18 =============================

     Lanczos converged:  T threshold:   0.100E-02
     Est. extremal eigenvalues:    0.269E+01   0.198E+00
     Est. condition number :    0.136E+02
     NS sqrt iter    1 1.00000000   0.685E+00       0.001       64.512
     NS sqrt iter    2 1.00000000   0.310E+00       0.001      110.592
     NS sqrt iter    3 1.00000000   0.654E-01       0.001      110.592
     NS sqrt iter    4 1.00000000   0.113E-02       0.001      110.592
     NS sqrt iter    5 1.00000000   0.900E-08       0.001       41.216
     Final NS sqrt iter    5 1.00000000   0.346E-08

     Est. extremal eigenvalues     -0.92106     1.52642  converged:  T
     TRS4 it   1 1.00000000   0.837E+00       0.000       16.128   0.100E-07
     TRS4 it   2 1.00000000   0.574E+00       0.001       32.256   0.100E-07
     TRS4 it   3 1.00000000   0.378E+00       0.001       32.256   0.100E-07
     TRS4 it   4 1.00000000   0.182E+00       0.001       32.256   0.100E-07
     TRS4 it   5 1.00000000   0.513E-01       0.001       32.256   0.100E-07
     TRS4 it   6 1.00000000   0.464E-02       0.001       32.256   0.100E-07
     TRS4 it   7 1.00000000   0.446E-04       0.001       32.256   0.100E-07
     TRS4 it   8 1.00000000   0.544E-08       0.001       32.256   0.100E-07
     Final TRS4 iteration    8 1.00000000   0.544E-08
     Chemical potential (mu):       0.00875
 
 PAO| energy:  -7.7140456215084159      penalty:   1.4415144865495661E-005
 PAO|CG| trace_G_new    7.3492888468774877E-004
 PAO|CG| trace_G_prev    2.5662504421888992E-003
 PAO|CG| trace_G_mix    1.2814868549931107E-006
 PAO|CG| trace_D    3.2643433328703847E-003
 PAO|CG| trace_D_Gnew  -1.7543873373869456E-006
 PAO|CG| beta:   0.28588300883330259     
 PAO| norm of gradient:   2.7109571827820311E-002
 PAO| energy improvement:  -2.7486701102841238E-004
 PAO| step     18                   -7.714045622  0.169E-02  0.215E+00     0.045
 PAO|LS| adapt:  T F F
 PAO|LS| adapt: scan_steps:    0.0000000000000000        0.0000000000000000        0.0000000000000000     
 PAO|LS| adapt: energies:   -7.7140456215084159        0.0000000000000000        0.0000000000000000     
 PAO| ======================= Iteration:        19 =============================

     Lanczos converged:  T threshold:   0.100E-02
     Est. extremal eigenvalues:    0.269E+01   0.198E+00
     Est. condition number :    0.136E+02
     NS sqrt iter    1 1.00000000   0.685E+00       0.001       64.512
     NS sqrt iter    2 1.00000000   0.310E+00       0.001      110.592
     NS sqrt iter    3 1.00000000   0.656E-01       0.001      110.592
     NS sqrt iter    4 1.00000000   0.114E-02       0.001      110.592
     NS sqrt iter    5 1.00000000   0.899E-08       0.001       41.216
     Final NS sqrt iter    5 1.00000000   0.347E-08

     Est. extremal eigenvalues     -0.92106     1.52676  converged:  T
     TRS4 it   1 1.00000000   0.837E+00       0.000       16.128   0.100E-07
     TRS4 it   2 1.00000000   0.574E+00       0.001       32.256   0.100E-07
     TRS4 it   3 1.00000000   0.378E+00       0.001       32.256   0.100E-07
     TRS4 it   4 1.00000000   0.182E+00       0.001       32.256   0.100E-07
     TRS4 it   5 1.00000000   0.513E-01       0.001       32.256   0.100E-07
     TRS4 it   6 1.00000000   0.464E-02       0.001       32.256   0.100E-07
     TRS4 it   7 1.00000000   0.447E-04       0.001       32.256   0.100E-07
     TRS4 it   8 1.00000000   0.550E-08       0.001       32.256   0.100E-07
     Final TRS4 iteration    8 1.00000000   0.550E-08
     Chemical potential (mu):       0.00865
 
 PAO| energy:  -7.7141644589363256      penalty:   1.4135621026962493E-005
 PAO|LS| adapt:  T T F
 PAO|LS| adapt: scan_steps:    0.0000000000000000       0.21451178687882538        0.0000000000000000     
 PAO|LS| adapt: energies:   -7.7140456215084159       -7.7141644589363256        0.0000000000000000     
 PAO| ======================= Iteration:        20 =============================

     Lanczos converged:  T threshold:   0.100E-02
     Est. extremal eigenvalues:    0.269E+01   0.198E+00
     Est. condition number :    0.136E+02
     NS sqrt iter    1 1.00000000   0.685E+00       0.001       64.512
     NS sqrt iter    2 1.00000000   0.310E+00       0.001      110.592
     NS sqrt iter    3 1.00000000   0.658E-01       0.001      110.592
     NS sqrt iter    4 1.00000000   0.114E-02       0.001      110.592
     NS sqrt iter    5 1.00000000   0.899E-08       0.001       41.216
     Final NS sqrt iter    5 1.00000000   0.348E-08

     Est. extremal eigenvalues     -0.92106     1.52711  converged:  T
     TRS4 it   1 1.00000000   0.837E+00       0.000       16.128   0.100E-07
     TRS4 it   2 1.00000000   0.574E+00       0.001       32.256   0.100E-07
     TRS4 it   3 1.00000000   0.377E+00       0.001       32.256   0.100E-07
     TRS4 it   4 1.00000000   0.182E+00       0.001       32.256   0.100E-07
     TRS4 it   5 1.00000000   0.512E-01       0.001       32.256   0.100E-07
     TRS4 it   6 1.00000000   0.463E-02       0.001       32.256   0.100E-07
     TRS4 it   7 1.00000000   0.449E-04       0.001       32.256   0.100E-07
     TRS4 it   8 1.00000000   0.556E-08       0.001       32.256   0.100E-07
     Final TRS4 iteration    8 1.00000000   0.556E-08
     Chemical potential (mu):       0.00855
 
 PAO| energy:  -7.7142050325649452      penalty:   1.3868520771196000E-005
 PAO|LS| adapt:  T T F
 PAO|LS| adapt: scan_steps:    0.0000000000000000       0.42902357375765077        0.0000000000000000     
 PAO|LS| adapt: energies:   -7.7140456215084159       -7.7142050325649452        0.0000000000000000     
 PAO| ======================= Iteration:        21 =============================

     Lanczos converged:  T threshold:   0.100E-02
     Est. extremal eigenvalues:    0.269E+01   0.198E+00
     Est. condition number :    0.136E+02
     NS sqrt iter    1 1.00000000   0.685E+00       0.001       64.512
     NS sqrt iter    2 1.00000000   0.311E+00       0.001      110.592
     NS sqrt iter    3 1.00000000   0.662E-01       0.001      110.592
     NS sqrt iter    4 1.00000000   0.116E-02       0.001      110.592
     NS sqrt iter    5 1.00000000   0.902E-08       0.001       41.216
     Final NS sqrt iter    5 1.00000000   0.350E-08

     Est. extremal eigenvalues     -0.92105     1.52781  converged:  T
     TRS4 it   1 1.00000000   0.837E+00       0.000       16.128   0.100E-07
     TRS4 it   2 1.00000000   0.574E+00       0.001       32.256   0.100E-07
     TRS4 it   3 1.00000000   0.377E+00       0.001       32.256   0.100E-07
     TRS4 it   4 1.00000000   0.181E+00       0.001       32.256   0.100E-07
     TRS4 it   5 1.00000000   0.511E-01       0.001       32.256   0.100E-07
     TRS4 it   6 1.00000000   0.463E-02       0.001       32.256   0.100E-07
     TRS4 it   7 1.00000000   0.452E-04       0.001       32.256   0.100E-07
     TRS4 it   8 1.00000000   0.569E-08       0.001       32.256   0.100E-07
     Final TRS4 iteration    8 1.00000000   0.569E-08
     Chemical potential (mu):       0.00832
 
 PAO| energy:  -7.7140488667965998      penalty:   1.3371054092683335E-005
 PAO|LS| Need extra step
 PAO|LS| adapt:  T T T
 PAO|LS| adapt: scan_steps:    0.0000000000000000       0.42902357375765077       0.85804714751530153     
 PAO|LS| adapt: energies:   -7.7140456215084159       -7.7142050325649452       -7.7140488667965998     
 PAO|LS| adapt: suggested step_size:   0.43122954235992378     
 PAO|LS| adapt: predicted energy  -7.7142050367366295     
 PAO| ======================= Iteration:        22 =============================

     Lanczos converged:  T threshold:   0.100E-02
     Est. extremal eigenvalues:    0.269E+01   0.198E+00
     Est. condition number :    0.136E+02
     NS sqrt iter    1 1.00000000   0.685E+00       0.001       64.512
     NS sqrt iter    2 1.00000000   0.310E+00       0.001      110.592
     NS sqrt iter    3 1.00000000   0.658E-01       0.001      110.592
     NS sqrt iter    4 1.00000000   0.114E-02       0.001      110.592
     NS sqrt iter    5 1.00000000   0.899E-08       0.001       41.216
     Final NS sqrt iter    5 1.00000000   0.348E-08

     Est. extremal eigenvalues     -0.92106     1.52711  converged:  T
     TRS4 it   1 1.00000000   0.837E+00       0.000       16.128   0.100E-07
     TRS4 it   2 1.00000000   0.574E+00       0.001       32.256   0.100E-07
     TRS4 it   3 1.00000000   0.377E+00       0.001       32.256   0.100E-07
     TRS4 it   4 1.00000000   0.182E+00       0.001       32.256   0.100E-07
     TRS4 it   5 1.00000000   0.512E-01       0.001       32.256   0.100E-07
     TRS4 it   6 1.00000000   0.463E-02       0.001       32.256   0.100E-07
     TRS4 it   7 1.00000000   0.449E-04       0.001       32.256   0.100E-07
     TRS4 it   8 1.00000000   0.556E-08       0.001       32.256   0.100E-07
     Final TRS4 iteration    8 1.00000000   0.556E-08
     Chemical potential (mu):       0.00854
 
 PAO| energy:  -7.7142050410586069      penalty:   1.3865837941336102E-005
 PAO|CG| trace_G_new    2.0884365358534175E-004
 PAO|CG| trace_G_prev    7.3492888468774877E-004
 PAO|CG| trace_G_mix    3.1827078735528107E-006
 PAO|CG| trace_D    1.0027238092637782E-003
 PAO|CG| trace_D_Gnew  -1.9615797623775345E-006
 PAO|CG| beta:   0.27983788635436296     
 PAO| norm of gradient:   1.4451423929334498E-002
 PAO| energy improvement:  -1.5941955019105336E-004
 PAO| step     22                   -7.714205041  0.903E-03  0.431E+00     0.060
 PAO|LS| adapt:  T F F
 PAO|LS| adapt: scan_steps:    0.0000000000000000        0.0000000000000000        0.0000000000000000     
 PAO|LS| adapt: energies:   -7.7142050410586069        0.0000000000000000        0.0000000000000000     
 PAO| ======================= Iteration:        23 =============================

     Lanczos converged:  T threshold:   0.100E-02
     Est. extremal eigenvalues:    0.269E+01   0.198E+00
     Est. condition number :    0.136E+02
     NS sqrt iter    1 1.00000000   0.685E+00       0.001       64.512
     NS sqrt iter    2 1.00000000   0.310E+00       0.001      110.592
     NS sqrt iter    3 1.00000000   0.658E-01       0.001      110.592
     NS sqrt iter    4 1.00000000   0.114E-02       0.001      110.592
     NS sqrt iter    5 1.00000000   0.889E-08       0.001       41.216
     Final NS sqrt iter    5 1.00000000   0.345E-08

     Est. extremal eigenvalues     -0.92106     1.52756  converged:  T
     TRS4 it   1 1.00000000   0.837E+00       0.000       16.128   0.100E-07
     TRS4 it   2 1.00000000   0.575E+00       0.001       32.256   0.100E-07
     TRS4 it   3 1.00000000   0.378E+00       0.001       32.256   0.100E-07
     TRS4 it   4 1.00000000   0.182E+00       0.001       32.256   0.100E-07
     TRS4 it   5 1.00000000   0.514E-01       0.001       32.256   0.100E-07
     TRS4 it   6 1.00000000   0.467E-02       0.001       32.256   0.100E-07
     TRS4 it   7 1.00000000   0.457E-04       0.001       32.256   0.100E-07
     TRS4 it   8 1.00000000   0.575E-08       0.001       32.256   0.100E-07
     Final TRS4 iteration    8 1.00000000   0.575E-08
     Chemical potential (mu):       0.00833
 
 PAO| energy:  -7.7142461530952842      penalty:   1.3243783617110955E-005
 PAO|LS| adapt:  T T F
 PAO|LS| adapt: scan_steps:    0.0000000000000000       0.43122954235992378        0.0000000000000000     
 PAO|LS| adapt: energies:   -7.7142050410586069       -7.7142461530952842        0.0000000000000000     
 PAO| ======================= Iteration:        24 =============================

     Lanczos converged:  T threshold:   0.100E-02
     Est. extremal eigenvalues:    0.269E+01   0.199E+00
     Est. condition number :    0.135E+02
     NS sqrt iter    1 1.00000000   0.685E+00       0.001       64.512
     NS sqrt iter    2 1.00000000   0.311E+00       0.001      110.592
     NS sqrt iter    3 1.00000000   0.659E-01       0.001      110.592
     NS sqrt iter    4 1.00000000   0.114E-02       0.001      110.592
     NS sqrt iter    5 1.00000000   0.879E-08       0.001       41.216
     Final NS sqrt iter    5 1.00000000   0.342E-08

     Est. extremal eigenvalues     -0.92106     1.52801  converged:  T
     TRS4 it   1 1.00000000   0.838E+00       0.000       16.128   0.100E-07
     TRS4 it   2 1.00000000   0.575E+00       0.001       32.256   0.100E-07
     TRS4 it   3 1.00000000   0.378E+00       0.001       32.256   0.100E-07
     TRS4 it   4 1.00000000   0.182E+00       0.001       32.256   0.100E-07
     TRS4 it   5 1.00000000   0.516E-01       0.001       32.256   0.100E-07
     TRS4 it   6 1.00000000   0.471E-02       0.001       32.256   0.100E-07
     TRS4 it   7 1.00000000   0.464E-04       0.001       32.256   0.100E-07
     TRS4 it   8 1.00000000   0.594E-08       0.001       32.256   0.100E-07
     Final TRS4 iteration    8 1.00000000   0.594E-08
     Chemical potential (mu):       0.00812
 
 PAO| energy:  -7.7141883889116478      penalty:   1.2645804859058990E-005
 PAO|LS| adapt:  T T T
 PAO|LS| adapt: scan_steps:    0.0000000000000000       0.43122954235992378       0.86245908471984756     
 PAO|LS| adapt: energies:   -7.7142050410586069       -7.7142461530952842       -7.7141883889116478     
 PAO|LS| adapt: suggested step_size:   0.39491698060484609     
 PAO|LS| adapt: predicted energy  -7.7142465036522694     
 PAO| ======================= Iteration:        25 =============================

     Lanczos converged:  T threshold:   0.100E-02
     Est. extremal eigenvalues:    0.269E+01   0.198E+00
     Est. condition number :    0.136E+02
     NS sqrt iter    1 1.00000000   0.685E+00       0.001       64.512
     NS sqrt iter    2 1.00000000   0.310E+00       0.001      110.592
     NS sqrt iter    3 1.00000000   0.658E-01       0.001      110.592
     NS sqrt iter    4 1.00000000   0.114E-02       0.001      110.592
     NS sqrt iter    5 1.00000000   0.890E-08       0.001       41.216
     Final NS sqrt iter    5 1.00000000   0.345E-08

     Est. extremal eigenvalues     -0.92106     1.52752  converged:  T
     TRS4 it   1 1.00000000   0.837E+00       0.000       16.128   0.100E-07
     TRS4 it   2 1.00000000   0.575E+00       0.001       32.256   0.100E-07
     TRS4 it   3 1.00000000   0.378E+00       0.001       32.256   0.100E-07
     TRS4 it   4 1.00000000   0.182E+00       0.001       32.256   0.100E-07
     TRS4 it   5 1.00000000   0.514E-01       0.001       32.256   0.100E-07
     TRS4 it   6 1.00000000   0.467E-02       0.001       32.256   0.100E-07
     TRS4 it   7 1.00000000   0.456E-04       0.001       32.256   0.100E-07
     TRS4 it   8 1.00000000   0.573E-08       0.001       32.256   0.100E-07
     Final TRS4 iteration    8 1.00000000   0.573E-08
     Chemical potential (mu):       0.00835
 
 PAO| energy:  -7.7142464930106032      penalty:   1.3295229955670615E-005
 PAO|CG| trace_G_new    7.2121295764587541E-005
 PAO|CG| trace_G_prev    2.0884365358534175E-004
 PAO|CG| trace_G_mix    3.8683889876363420E-007
 PAO|CG| trace_D    2.8846404433439802E-004
 PAO|CG| trace_D_Gnew  -2.9203782179657244E-007
 PAO|CG| beta:   0.34348401607765577     
 PAO| norm of gradient:   8.4924257879941192E-003
 PAO| energy improvement:  -4.1451951996229752E-005
 PAO| step     25                   -7.714246493  0.531E-03  0.395E+00     0.046
 PAO|LS| adapt:  T F F
 PAO|LS| adapt: scan_steps:    0.0000000000000000        0.0000000000000000        0.0000000000000000     
 PAO|LS| adapt: energies:   -7.7142464930106032        0.0000000000000000        0.0000000000000000     
 PAO| ======================= Iteration:        26 =============================

     Lanczos converged:  T threshold:   0.100E-02
     Est. extremal eigenvalues:    0.269E+01   0.199E+00
     Est. condition number :    0.135E+02
     NS sqrt iter    1 1.00000000   0.685E+00       0.001       64.512
     NS sqrt iter    2 1.00000000   0.310E+00       0.001      110.592
     NS sqrt iter    3 1.00000000   0.657E-01       0.001      110.592
     NS sqrt iter    4 1.00000000   0.114E-02       0.001      110.592
     NS sqrt iter    5 1.00000000   0.876E-08       0.001       41.216
     Final NS sqrt iter    5 1.00000000   0.341E-08

     Est. extremal eigenvalues     -0.92106     1.52734  converged:  T
     TRS4 it   1 1.00000000   0.837E+00       0.000       16.128   0.100E-07
     TRS4 it   2 1.00000000   0.575E+00       0.001       32.256   0.100E-07
     TRS4 it   3 1.00000000   0.378E+00       0.001       32.256   0.100E-07
     TRS4 it   4 1.00000000   0.182E+00       0.001       32.256   0.100E-07
     TRS4 it   5 1.00000000   0.513E-01       0.001       32.256   0.100E-07
     TRS4 it   6 1.00000000   0.466E-02       0.001       32.256   0.100E-07
     TRS4 it   7 1.00000000   0.454E-04       0.001       32.256   0.100E-07
     TRS4 it   8 1.00000000   0.567E-08       0.001       32.256   0.100E-07
     Final TRS4 iteration    8 1.00000000   0.567E-08
     Chemical potential (mu):       0.00841
 
 PAO| energy:  -7.7142490021435162      penalty:   1.2683530266589265E-005
 PAO|LS| adapt:  T T F
 PAO|LS| adapt: scan_steps:    0.0000000000000000       0.39491698060484609        0.0000000000000000     
 PAO|LS| adapt: energies:   -7.7142464930106032       -7.7142490021435162        0.0000000000000000     
 PAO| ======================= Iteration:        27 =============================

     Lanczos converged:  T threshold:   0.100E-02
     Est. extremal eigenvalues:    0.269E+01   0.199E+00
     Est. condition number :    0.135E+02
     NS sqrt iter    1 1.00000000   0.685E+00       0.001       64.512
     NS sqrt iter    2 1.00000000   0.310E+00       0.001      110.592
     NS sqrt iter    3 1.00000000   0.657E-01       0.001      110.592
     NS sqrt iter    4 1.00000000   0.113E-02       0.001      110.592
     NS sqrt iter    5 1.00000000   0.863E-08       0.001       41.216
     Final NS sqrt iter    5 1.00000000   0.337E-08

     Est. extremal eigenvalues     -0.92106     1.52715  converged:  T
     TRS4 it   1 1.00000000   0.837E+00       0.000       16.128   0.100E-07
     TRS4 it   2 1.00000000   0.575E+00       0.001       32.256   0.100E-07
     TRS4 it   3 1.00000000   0.378E+00       0.001       32.256   0.100E-07
     TRS4 it   4 1.00000000   0.182E+00       0.001       32.256   0.100E-07
     TRS4 it   5 1.00000000   0.513E-01       0.001       32.256   0.100E-07
     TRS4 it   6 1.00000000   0.465E-02       0.001       32.256   0.100E-07
     TRS4 it   7 1.00000000   0.452E-04       0.001       32.256   0.100E-07
     TRS4 it   8 1.00000000   0.561E-08       0.001       32.256   0.100E-07
     Final TRS4 iteration    8 1.00000000   0.561E-08
     Chemical potential (mu):       0.00848
 
 PAO| energy:  -7.7141994025021248      penalty:   1.2089112740504504E-005
 PAO|LS| adapt:  T T T
 PAO|LS| adapt: scan_steps:    0.0000000000000000       0.39491698060484609       0.78983396120969218     
 PAO|LS| adapt: energies:   -7.7142464930106032       -7.7142490021435162       -7.7141994025021248     
 PAO|LS| adapt: suggested step_size:   0.21647446615610555     
 PAO|LS| adapt: predicted energy  -7.7142543215835193     
 PAO| ======================= Iteration:        28 =============================

     Lanczos converged:  T threshold:   0.100E-02
     Est. extremal eigenvalues:    0.269E+01   0.199E+00
     Est. condition number :    0.135E+02
     NS sqrt iter    1 1.00000000   0.685E+00       0.001       64.512
     NS sqrt iter    2 1.00000000   0.310E+00       0.001      110.592
     NS sqrt iter    3 1.00000000   0.658E-01       0.001      110.592
     NS sqrt iter    4 1.00000000   0.114E-02       0.001      110.592
     NS sqrt iter    5 1.00000000   0.883E-08       0.001       41.216
     Final NS sqrt iter    5 1.00000000   0.343E-08

     Est. extremal eigenvalues     -0.92106     1.52742  converged:  T
     TRS4 it   1 1.00000000   0.837E+00       0.000       16.128   0.100E-07
     TRS4 it   2 1.00000000   0.575E+00       0.001       32.256   0.100E-07
     TRS4 it   3 1.00000000   0.378E+00       0.001       32.256   0.100E-07
     TRS4 it   4 1.00000000   0.182E+00       0.001       32.256   0.100E-07
     TRS4 it   5 1.00000000   0.513E-01       0.001       32.256   0.100E-07
     TRS4 it   6 1.00000000   0.466E-02       0.001       32.256   0.100E-07
     TRS4 it   7 1.00000000   0.455E-04       0.001       32.256   0.100E-07
     TRS4 it   8 1.00000000   0.570E-08       0.001       32.256   0.100E-07
     Final TRS4 iteration    8 1.00000000   0.570E-08
     Chemical potential (mu):       0.00839
 
 PAO| energy:  -7.7142543140196809      penalty:   1.2957774039624073E-005
 PAO|CG| trace_G_new    1.5793052709501243E-005
 PAO|CG| trace_G_prev    7.2121295764587541E-005
 PAO|CG| trace_G_mix    3.0895132478548749E-008
 PAO|CG| trace_D    1.0635527051056675E-004
 PAO|CG| trace_D_Gnew  -2.1330612408700798E-008
 PAO|CG| beta:   0.21855067092072564     
 PAO| norm of gradient:   3.9740473964839981E-003
 PAO| energy improvement:  -7.8210090777020014E-006
 PAO| step     28                   -7.714254314  0.248E-03  0.216E+00     0.046
 PAO|LS| adapt:  T F F
 PAO|LS| adapt: scan_steps:    0.0000000000000000        0.0000000000000000        0.0000000000000000     
 PAO|LS| adapt: energies:   -7.7142543140196809        0.0000000000000000        0.0000000000000000     
 PAO| ======================= Iteration:        29 =============================

     Lanczos converged:  T threshold:   0.100E-02
     Est. extremal eigenvalues:    0.269E+01   0.199E+00
     Est. condition number :    0.135E+02
     NS sqrt iter    1 1.00000000   0.685E+00       0.001       60.598
     NS sqrt iter    2 1.00000000   0.310E+00       0.001      107.116
     NS sqrt iter    3 1.00000000   0.657E-01       0.001      110.592
     NS sqrt iter    4 1.00000000   0.114E-02       0.001      110.592
     NS sqrt iter    5 1.00000000   0.880E-08       0.001       41.216
     Final NS sqrt iter    5 1.00000000   0.342E-08

     Est. extremal eigenvalues     -0.92106     1.52744  converged:  T
     TRS4 it   1 1.00000000   0.838E+00       0.000       16.128   0.100E-07
     TRS4 it   2 1.00000000   0.575E+00       0.001       32.256   0.100E-07
     TRS4 it   3 1.00000000   0.378E+00       0.001       32.256   0.100E-07
     TRS4 it   4 1.00000000   0.182E+00       0.001       32.256   0.100E-07
     TRS4 it   5 1.00000000   0.513E-01       0.001       32.256   0.100E-07
     TRS4 it   6 1.00000000   0.465E-02       0.001       32.256   0.100E-07
     TRS4 it   7 1.00000000   0.453E-04       0.001       32.256   0.100E-07
     TRS4 it   8 1.00000000   0.564E-08       0.001       32.256   0.100E-07
     Final TRS4 iteration    8 1.00000000   0.564E-08
     Chemical potential (mu):       0.00847
 
 PAO| energy:  -7.7142572993316660      penalty:   1.2657911875063200E-005
 PAO|LS| adapt:  T T F
 PAO|LS| adapt: scan_steps:    0.0000000000000000       0.21647446615610555        0.0000000000000000     
 PAO|LS| adapt: energies:   -7.7142543140196809       -7.7142572993316660        0.0000000000000000     
 PAO| ======================= Iteration:        30 =============================

     Lanczos converged:  T threshold:   0.100E-02
     Est. extremal eigenvalues:    0.269E+01   0.199E+00
     Est. condition number :    0.135E+02
     NS sqrt iter    1 1.00000000   0.685E+00       0.001       64.512
     NS sqrt iter    2 1.00000000   0.310E+00       0.001      110.592
     NS sqrt iter    3 1.00000000   0.657E-01       0.001      110.592
     NS sqrt iter    4 1.00000000   0.114E-02       0.001      110.592
     NS sqrt iter    5 1.00000000   0.877E-08       0.001       41.216
     Final NS sqrt iter    5 1.00000000   0.342E-08

     Est. extremal eigenvalues     -0.92106     1.52745  converged:  T
     TRS4 it   1 1.00000000   0.838E+00       0.000       16.128   0.100E-07
     TRS4 it   2 1.00000000   0.575E+00       0.001       32.256   0.100E-07
     TRS4 it   3 1.00000000   0.378E+00       0.001       32.256   0.100E-07
     TRS4 it   4 1.00000000   0.182E+00       0.001       32.256   0.100E-07
     TRS4 it   5 1.00000000   0.513E-01       0.001       32.256   0.100E-07
     TRS4 it   6 1.00000000   0.465E-02       0.001       32.256   0.100E-07
     TRS4 it   7 1.00000000   0.451E-04       0.001       32.256   0.100E-07
     TRS4 it   8 1.00000000   0.559E-08       0.001       32.256   0.100E-07
     Final TRS4 iteration    8 1.00000000   0.559E-08
     Chemical potential (mu):       0.00855
 
 PAO| energy:  -7.7142594153150981      penalty:   1.2361773474933696E-005
 PAO|LS| adapt:  T T F
 PAO|LS| adapt: scan_steps:    0.0000000000000000       0.43294893231221110        0.0000000000000000     
 PAO|LS| adapt: energies:   -7.7142543140196809       -7.7142594153150981        0.0000000000000000     
 PAO| ======================= Iteration:        31 =============================

     Lanczos converged:  T threshold:   0.100E-02
     Est. extremal eigenvalues:    0.269E+01   0.199E+00
     Est. condition number :    0.135E+02
     NS sqrt iter    1 1.00000000   0.684E+00       0.001       64.512
     NS sqrt iter    2 1.00000000   0.310E+00       0.001      110.592
     NS sqrt iter    3 1.00000000   0.656E-01       0.001      110.592
     NS sqrt iter    4 1.00000000   0.113E-02       0.001      110.592
     NS sqrt iter    5 1.00000000   0.872E-08       0.001       41.216
     Final NS sqrt iter    5 1.00000000   0.341E-08

     Est. extremal eigenvalues     -0.92107     1.52748  converged:  T
     TRS4 it   1 1.00000000   0.838E+00       0.000       16.128   0.100E-07
     TRS4 it   2 1.00000000   0.575E+00       0.001       32.256   0.100E-07
     TRS4 it   3 1.00000000   0.378E+00       0.001       32.256   0.100E-07
     TRS4 it   4 1.00000000   0.182E+00       0.001       32.256   0.100E-07
     TRS4 it   5 1.00000000   0.512E-01       0.001       32.256   0.100E-07
     TRS4 it   6 1.00000000   0.463E-02       0.001       32.256   0.100E-07
     TRS4 it   7 1.00000000   0.447E-04       0.001       32.256   0.100E-07
     TRS4 it   8 1.00000000   0.548E-08       0.001       32.256   0.100E-07
     Final TRS4 iteration    8 1.00000000   0.548E-08
     Chemical potential (mu):       0.00871
 
 PAO| energy:  -7.7142610385801333      penalty:   1.1780637642024106E-005
 PAO|LS| Need extra step
 PAO|LS| adapt:  T T F
 PAO|LS| adapt: scan_steps:    0.0000000000000000       0.86589786462442220        0.0000000000000000     
 PAO|LS| adapt: energies:   -7.7142543140196809       -7.7142610385801333        0.0000000000000000     
 PAO| ======================= Iteration:        32 =============================

     Lanczos converged:  T threshold:   0.100E-02
     Est. extremal eigenvalues:    0.269E+01   0.199E+00
     Est. condition number :    0.135E+02
     NS sqrt iter    1 1.00000000   0.684E+00       0.001       64.512
     NS sqrt iter    2 1.00000000   0.310E+00       0.001      110.592
     NS sqrt iter    3 1.00000000   0.654E-01       0.001      110.592
     NS sqrt iter    4 1.00000000   0.112E-02       0.001      110.592
     NS sqrt iter    5 1.00000000   0.863E-08       0.001       41.216
     Final NS sqrt iter    5 1.00000000   0.339E-08

     Est. extremal eigenvalues     -0.92107     1.52755  converged:  T
     TRS4 it   1 1.00000000   0.838E+00       0.000       16.128   0.100E-07
     TRS4 it   2 1.00000000   0.575E+00       0.001       32.256   0.100E-07
     TRS4 it   3 1.00000000   0.377E+00       0.001       32.256   0.100E-07
     TRS4 it   4 1.00000000   0.181E+00       0.001       32.256   0.100E-07
     TRS4 it   5 1.00000000   0.510E-01       0.001       32.256   0.100E-07
     TRS4 it   6 1.00000000   0.459E-02       0.001       32.256   0.100E-07
     TRS4 it   7 1.00000000   0.439E-04       0.001       32.256   0.100E-07
     TRS4 it   8 1.00000000   0.528E-08       0.001       32.256   0.100E-07
     Final TRS4 iteration    8 1.00000000   0.528E-08
     Chemical potential (mu):       0.00904
 
 PAO| energy:  -7.7142538452218048      penalty:   1.0662718067484346E-005
 PAO|LS| Need extra step
 PAO|LS| adapt:  T T T
 PAO|LS| adapt: scan_steps:    0.0000000000000000       0.86589786462442220        1.7317957292488444     
 PAO|LS| adapt: energies:   -7.7142543140196809       -7.7142610385801333       -7.7142538452218048     
 PAO|LS| adapt: suggested step_size:   0.85131482652009915     
 PAO|LS| adapt: predicted energy  -7.7142610405539509     
 PAO| ======================= Iteration:        33 =============================

     Lanczos converged:  T threshold:   0.100E-02
     Est. extremal eigenvalues:    0.269E+01   0.199E+00
     Est. condition number :    0.135E+02
     NS sqrt iter    1 1.00000000   0.684E+00       0.001       64.512
     NS sqrt iter    2 1.00000000   0.310E+00       0.001      110.592
     NS sqrt iter    3 1.00000000   0.656E-01       0.001      110.592
     NS sqrt iter    4 1.00000000   0.113E-02       0.001      110.592
     NS sqrt iter    5 1.00000000   0.873E-08       0.001       41.216
     Final NS sqrt iter    5 1.00000000   0.341E-08

     Est. extremal eigenvalues     -0.92107     1.52748  converged:  T
     TRS4 it   1 1.00000000   0.838E+00       0.000       16.128   0.100E-07
     TRS4 it   2 1.00000000   0.575E+00       0.001       32.256   0.100E-07
     TRS4 it   3 1.00000000   0.378E+00       0.001       32.256   0.100E-07
     TRS4 it   4 1.00000000   0.182E+00       0.001       32.256   0.100E-07
     TRS4 it   5 1.00000000   0.512E-01       0.001       32.256   0.100E-07
     TRS4 it   6 1.00000000   0.463E-02       0.001       32.256   0.100E-07
     TRS4 it   7 1.00000000   0.447E-04       0.001       32.256   0.100E-07
     TRS4 it   8 1.00000000   0.548E-08       0.001       32.256   0.100E-07
     Final TRS4 iteration    8 1.00000000   0.548E-08
     Chemical potential (mu):       0.00871
 
 PAO| energy:  -7.7142610405213139      penalty:   1.1799970800138313E-005
 PAO|CG| trace_G_new    3.9826750889463117E-005
 PAO|CG| trace_G_prev    1.5793052709501243E-005
 PAO|CG| trace_G_mix    2.3765629041526459E-008
 PAO|CG| trace_D    2.0882371580625242E-005
 PAO|CG| trace_D_Gnew  -1.7445535234986147E-009
 PAO|CG| beta:    2.5202844562454829     
 PAO| norm of gradient:   6.3108439126208088E-003
 PAO| energy improvement:  -6.7265016330253502E-006
 PAO| step     33                   -7.714261041  0.394E-03  0.851E+00     0.074
 PAO|LS| adapt:  T F F
 PAO|LS| adapt: scan_steps:    0.0000000000000000        0.0000000000000000        0.0000000000000000     
 PAO|LS| adapt: energies:   -7.7142610405213139        0.0000000000000000        0.0000000000000000     
 PAO| ======================= Iteration:        34 =============================

     Lanczos converged:  T threshold:   0.100E-02
     Est. extremal eigenvalues:    0.269E+01   0.199E+00
     Est. condition number :    0.135E+02
     NS sqrt iter    1 1.00000000   0.683E+00       0.001       64.512
     NS sqrt iter    2 1.00000000   0.309E+00       0.001      110.592
     NS sqrt iter    3 1.00000000   0.651E-01       0.001      110.592
     NS sqrt iter    4 1.00000000   0.112E-02       0.001      110.592
     NS sqrt iter    5 1.00000000   0.807E-08       0.001       39.808
     Final NS sqrt iter    5 1.00000000   0.225E-08

     Est. extremal eigenvalues     -0.92108     1.52722  converged:  T
     TRS4 it   1 1.00000000   0.838E+00       0.000       16.128   0.100E-07
     TRS4 it   2 1.00000000   0.574E+00       0.001       32.256   0.100E-07
     TRS4 it   3 1.00000000   0.377E+00       0.001       32.256   0.100E-07
     TRS4 it   4 1.00000000   0.181E+00       0.001       32.256   0.100E-07
     TRS4 it   5 1.00000000   0.507E-01       0.001       32.256   0.100E-07
     TRS4 it   6 1.00000000   0.454E-02       0.001       32.256   0.100E-07
     TRS4 it   7 1.00000000   0.427E-04       0.001       32.256   0.100E-07
     TRS4 it   8 1.00000000   0.498E-08       0.001       32.256   0.100E-07
     Final TRS4 iteration    8 1.00000000   0.498E-08
     Chemical potential (mu):       0.00946
 
 PAO| energy:  -7.7142691014202596      penalty:   8.4308799620519392E-006
 PAO|LS| adapt:  T T F
 PAO|LS| adapt: scan_steps:    0.0000000000000000       0.85131482652009915        0.0000000000000000     
[...]
 PAO|LS| adapt: scan_steps:    0.0000000000000000       0.20000000000000001        0.0000000000000000     
 PAO|LS| adapt: energies:   -7.7135140418399333       -7.7135140418482973        0.0000000000000000     
 PAO| ======================= Iteration:       812 =============================

     Lanczos converged:  T threshold:   0.100E-02
     Est. extremal eigenvalues:    0.247E+01   0.240E+00
     Est. condition number :    0.103E+02
     NS sqrt iter    1 1.00000000   0.624E+00       0.001       64.512
     NS sqrt iter    2 1.00000000   0.259E+00       0.001      110.592
     NS sqrt iter    3 1.00000000   0.393E-01       0.001      110.592
     NS sqrt iter    4 1.00000000   0.245E-03       0.001      109.824
     NS sqrt iter    5 1.00000000   0.198E-09       0.001       36.864
     Final NS sqrt iter    5 1.00000000   0.419E-10

     Est. extremal eigenvalues     -0.92081     1.35967  converged:  T
     TRS4 it   1 1.00000000   0.802E+00       0.000       16.128   0.100E-07
     TRS4 it   2 1.00000000   0.568E+00       0.001       32.256   0.100E-07
     TRS4 it   3 1.00000000   0.400E+00       0.001       32.256   0.100E-07
     TRS4 it   4 1.00000000   0.239E+00       0.001       32.256   0.100E-07
     TRS4 it   5 1.00000000   0.103E+00       0.001       32.256   0.100E-07
     TRS4 it   6 1.00000000   0.231E-01       0.001       32.256   0.100E-07
     TRS4 it   7 1.00000000   0.151E-02       0.001       32.256   0.100E-07
     TRS4 it   8 1.00000000   0.800E-05       0.001       32.256   0.100E-07
     TRS4 it   9 1.00000000   0.266E-09       0.001       32.256   0.100E-07
     Final TRS4 iteration    9 1.00000000   0.266E-09
     Chemical potential (mu):      -0.07493
 
 PAO| energy:  -7.7135140418469605      penalty:   1.0233069335679233E-011
 PAO|LS| Need extra step
 PAO|LS| adapt:  T T T
 PAO|LS| adapt: scan_steps:    0.0000000000000000       0.20000000000000001       0.40000000000000002     
 PAO|LS| adapt: energies:   -7.7135140418399333       -7.7135140418482973       -7.7135140418469605     
 PAO|LS| adapt: suggested step_size:   0.27244094488188980     
 PAO|LS| adapt: predicted energy  -7.7135140418489332     
 PAO| ======================= Iteration:       813 =============================

     Lanczos converged:  T threshold:   0.100E-02
     Est. extremal eigenvalues:    0.247E+01   0.240E+00
     Est. condition number :    0.103E+02
     NS sqrt iter    1 1.00000000   0.624E+00       0.001       64.512
     NS sqrt iter    2 1.00000000   0.259E+00       0.001      110.592
     NS sqrt iter    3 1.00000000   0.393E-01       0.001      110.592
     NS sqrt iter    4 1.00000000   0.245E-03       0.001      109.824
     NS sqrt iter    5 1.00000000   0.198E-09       0.001       36.864
     Final NS sqrt iter    5 1.00000000   0.419E-10

     Est. extremal eigenvalues     -0.92081     1.35967  converged:  T
     TRS4 it   1 1.00000000   0.802E+00       0.000       16.128   0.100E-07
     TRS4 it   2 1.00000000   0.568E+00       0.001       32.256   0.100E-07
     TRS4 it   3 1.00000000   0.400E+00       0.001       32.256   0.100E-07
     TRS4 it   4 1.00000000   0.239E+00       0.001       32.256   0.100E-07
     TRS4 it   5 1.00000000   0.103E+00       0.001       32.256   0.100E-07
     TRS4 it   6 1.00000000   0.231E-01       0.001       32.256   0.100E-07
     TRS4 it   7 1.00000000   0.151E-02       0.001       32.256   0.100E-07
     TRS4 it   8 1.00000000   0.800E-05       0.001       32.256   0.100E-07
     TRS4 it   9 1.00000000   0.266E-09       0.001       32.256   0.100E-07
     Final TRS4 iteration    9 1.00000000   0.266E-09
     Chemical potential (mu):      -0.07493
 
 PAO| energy:  -7.7135140418489287      penalty:   1.0334858720668255E-011
 PAO|CG| warming up with steepest descent
 PAO|CG| beta:    0.0000000000000000     
 PAO| norm of gradient:   6.6702328682379827E-006
 PAO| energy improvement:  -8.9954710347228684E-012
 PAO| step    813                   -7.713514042  0.417E-06  0.272E+00     0.062
 PAO| converged after          813  steps :-)
 PAO| Recalculating energy after mixing.

     Lanczos converged:  T threshold:   0.100E-02
     Est. extremal eigenvalues:    0.247E+01   0.240E+00
     Est. condition number :    0.103E+02
     NS sqrt iter    1 1.00000000   0.624E+00       0.001       64.512
     NS sqrt iter    2 1.00000000   0.259E+00       0.001      110.592
     NS sqrt iter    3 1.00000000   0.393E-01       0.001      110.592
     NS sqrt iter    4 1.00000000   0.245E-03       0.001      109.824
     NS sqrt iter    5 1.00000000   0.198E-09       0.001       36.864
     Final NS sqrt iter    5 1.00000000   0.419E-10

     Est. extremal eigenvalues     -0.92081     1.35967  converged:  T
     TRS4 it   1 1.00000000   0.802E+00       0.000       16.128   0.100E-07
     TRS4 it   2 1.00000000   0.568E+00       0.001       32.256   0.100E-07
     TRS4 it   3 1.00000000   0.400E+00       0.001       32.256   0.100E-07
     TRS4 it   4 1.00000000   0.239E+00       0.001       32.256   0.100E-07
     TRS4 it   5 1.00000000   0.103E+00       0.001       32.256   0.100E-07
     TRS4 it   6 1.00000000   0.231E-01       0.001       32.256   0.100E-07
     TRS4 it   7 1.00000000   0.151E-02       0.001       32.256   0.100E-07
     TRS4 it   8 1.00000000   0.800E-05       0.001       32.256   0.100E-07
     TRS4 it   9 1.00000000   0.266E-09       0.001       32.256   0.100E-07
     Final TRS4 iteration    9 1.00000000   0.266E-09
     Chemical potential (mu):      -0.07493
 
 PAO| energy:  -7.7135140418466861      penalty:   1.0444126658904096E-011
 PAO| Writing restart file.
     Est. extremal eigenvalues     -0.92081     1.35967  converged:  T
     TRS4 it   1 1.00000000   0.802E+00       0.000       16.128   0.100E-07
     TRS4 it   2 1.00000000   0.568E+00       0.001       32.256   0.100E-07
     TRS4 it   3 1.00000000   0.400E+00       0.001       32.256   0.100E-07
     TRS4 it   4 1.00000000   0.239E+00       0.001       32.256   0.100E-07
     TRS4 it   5 1.00000000   0.103E+00       0.001       32.256   0.100E-07
     TRS4 it   6 1.00000000   0.231E-01       0.001       32.256   0.100E-07
     TRS4 it   7 1.00000000   0.151E-02       0.001       32.256   0.100E-07
     TRS4 it   8 1.00000000   0.800E-05       0.001       32.256   0.100E-07
     TRS4 it   9 1.00000000   0.266E-09       0.001       32.256   0.100E-07
     Final TRS4 iteration    9 1.00000000   0.266E-09
     Chemical potential (mu):      -0.07493

 SCF     1       -34.445218881       -34.445218881    1.900351

*********************************************************
 Using MIXING_FRACTION=0.450 to mix KS matrix:  iscf=  2
 KS_nw=0.450*KS + 0.550*KS_old
*********************************************************
     Est. extremal eigenvalues     -0.92081     1.35967  converged:  T
     TRS4 it   1 1.00000000   0.802E+00       0.000       16.128   0.100E-07
     TRS4 it   2 1.00000000   0.568E+00       0.001       32.256   0.100E-07
     TRS4 it   3 1.00000000   0.400E+00       0.001       32.256   0.100E-07
     TRS4 it   4 1.00000000   0.239E+00       0.001       32.256   0.100E-07
     TRS4 it   5 1.00000000   0.103E+00       0.001       32.256   0.100E-07
     TRS4 it   6 1.00000000   0.231E-01       0.001       32.256   0.100E-07
     TRS4 it   7 1.00000000   0.151E-02       0.001       32.256   0.100E-07
     TRS4 it   8 1.00000000   0.800E-05       0.001       32.256   0.100E-07
     TRS4 it   9 1.00000000   0.266E-09       0.001       32.256   0.100E-07
     Final TRS4 iteration    9 1.00000000   0.266E-09
     Chemical potential (mu):      -0.07493

 SCF     2       -34.445218881         0.000000000    1.893412

 PAO| Storing density matrix for ASPC guess in slot:           1

 ENERGY| Total FORCE_EVAL ( QS ) energy (a.u.):              -34.445218880788808


 -------------------------------------------------------------------------------
 -                                                                             -
 -                                DBCSR STATISTICS                             -
 -                                                                             -
 -------------------------------------------------------------------------------
 COUNTER                                    TOTAL       BLAS       SMM       ACC
 flops     5 x     5 x     4                30000       0.0%    100.0%      0.0%
 flops    13 x     5 x     4                31200       0.0%    100.0%      0.0%
 flops     5 x    13 x     4                31200       0.0%    100.0%      0.0%
 flops    13 x    13 x     4                60840       0.0%    100.0%      0.0%
 flops     4 x     4 x     5              6370560       0.0%    100.0%      0.0%
 flops     5 x     4 x     5              7804800       0.0%    100.0%      0.0%
 flops     4 x     4 x    13              8281728       0.0%    100.0%      0.0%
 flops    13 x     4 x     5             10146240       0.0%    100.0%      0.0%
 flops     5 x     4 x    13             10146240       0.0%    100.0%      0.0%
 flops     5 x     4 x     4             12183200       0.0%    100.0%      0.0%
 flops    13 x     4 x    13             13190112       0.0%    100.0%      0.0%
 flops    13 x     4 x     4             15918656       0.0%    100.0%      0.0%
 flops     4 x     4 x     4            806031488       0.0%    100.0%      0.0%
 flops inhomo. stacks                           0       0.0%      0.0%      0.0%
 flops total                       890.226264E+06       0.0%    100.0%      0.0%
 flops max/rank                    890.226264E+06       0.0%    100.0%      0.0%
 matmuls inhomo. stacks                         0       0.0%      0.0%      0.0%
 matmuls total                            6559375       0.0%    100.0%      0.0%
 number of processed stacks                 52373       0.0%    100.0%      0.0%
 average stack size                                     0.0     125.2       0.0
 marketing flops                     1.455862E+09
 -------------------------------------------------------------------------------
 # multiplications                          43845
 max memory usage/rank             321.220608E+06
 # max total images/rank                        1
 # max 3D layers                                1
 # MPI messages exchanged                       0
 MPI messages size (bytes):
  total size                         0.000000E+00
  min size                           0.000000E+00
  max size                           0.000000E+00
  average size                       0.000000E+00
 MPI breakdown and total messages size (bytes):
             size <=      128                   0                        0
       128 < size <=     8192                   0                        0
      8192 < size <=    32768                   0                        0
     32768 < size <=   131072                   0                        0
    131072 < size <=  4194304                   0                        0
   4194304 < size <= 16777216                   0                        0
  16777216 < size                               0                        0
 -------------------------------------------------------------------------------

 MEMORY| Estimated peak process memory [MiB]                                 307

 -------------------------------------------------------------------------------
 -                                                                             -
 -                           R E F E R E N C E S                               -
 -                                                                             -
 -------------------------------------------------------------------------------
 
 CP2K version 7.0 (Development Version), the CP2K developers group (2018).
 CP2K is freely available from https://www.cp2k.org/ .

 Schuett, O; VandeVondele, J. 
 Journal of Chemical Theory and Computation, 14, (2018). 
 Machine Learning Adaptive Basis Sets for Efficient Large Scale Density Functional Theory Simulation.
 https://dx.doi.org/10.1021/acs.jctc.8b00378


 Schuett, Ole; Messmer, Peter; Hutter, Juerg; VandeVondele, Joost. 
 Electronic Structure Calculations on Graphics Processing Units, John Wiley & Sons, Ltd, 173-190 (2016). 
 GPU-Accelerated Sparse Matrix-Matrix Multiplication for Linear Scaling Density Functional Theory.
 https://dx.doi.org/10.1002/9781118670712.ch8


 Borstnik, U; VandeVondele, J; Weber, V; Hutter, J. 
 PARALLEL COMPUTING, 40 (5-6), 47-58 (2014). 
 Sparse matrix multiplication: The distributed block-compressed sparse
 row library.
 https://dx.doi.org/10.1016/j.parco.2014.03.012


 Hutter, J; Iannuzzi, M; Schiffmann, F; VandeVondele, J. 
 WILEY INTERDISCIPLINARY REVIEWS-COMPUTATIONAL MOLECULAR SCIENCE, 4 (1), 15-25 (2014). 
 CP2K: atomistic simulations of condensed matter systems.
 https://dx.doi.org/10.1002/wcms.1159


 VandeVondele, J; Borstnik, U; Hutter, J. 
 JOURNAL OF CHEMICAL THEORY AND COMPUTATION, 8 (10), 3565-3573 (2012). 
 Linear Scaling Self-Consistent Field Calculations with Millions of Atoms
 in the Condensed Phase.
 https://dx.doi.org/10.1021/ct200897x


 VandeVondele, J; Hutter, J. 
 JOURNAL OF CHEMICAL PHYSICS, 127 (11), 114105 (2007). 
 Gaussian basis sets for accurate calculations on molecular systems in
 gas and condensed phases.
 https://dx.doi.org/10.1063/1.2770708


 Krack, M. 
 THEORETICAL CHEMISTRY ACCOUNTS, 114 (1-3), 145-152 (2005). 
 Pseudopotentials for H to Kr optimized for gradient-corrected
 exchange-correlation functionals.
 https://dx.doi.org/10.1007/s00214-005-0655-y


 VandeVondele, J; Krack, M; Mohamed, F; Parrinello, M; Chassaing, T;
 Hutter, J. COMPUTER PHYSICS COMMUNICATIONS, 167 (2), 103-128 (2005). 
 QUICKSTEP: Fast and accurate density functional calculations using a
 mixed Gaussian and plane waves approach.
 https://dx.doi.org/10.1016/j.cpc.2004.12.014


 Frigo, M; Johnson, SG. 
 PROCEEDINGS OF THE IEEE, 93 (2), 216-231 (2005). 
 The design and implementation of FFTW3.
 https://dx.doi.org/10.1109/JPROC.2004.840301


 Niklasson, AMN; Tymczak, CJ; Challacombe, M. 
 JOURNAL OF CHEMICAL PHYSICS, 118 (19), 8611-8620 (2003). 
 Trace resetting density matrix purification in O(N)
 self-consistent-field theory.
 https://dx.doi.org/10.1063/1.1559913


 Hartwigsen, C; Goedecker, S; Hutter, J. 
 PHYSICAL REVIEW B, 58 (7), 3641-3662 (1998). 
 Relativistic separable dual-space Gaussian pseudopotentials from H to Rn.
 https://dx.doi.org/10.1103/PhysRevB.58.3641


 Lippert, G; Hutter, J; Parrinello, M. 
 MOLECULAR PHYSICS, 92 (3), 477-487 (1997). 
 A hybrid Gaussian and plane wave density functional scheme.
 https://dx.doi.org/10.1080/002689797170220


 Perdew, JP; Burke, K; Ernzerhof, M. 
 PHYSICAL REVIEW LETTERS, 77 (18), 3865-3868 (1996). 
 Generalized gradient approximation made simple.
 https://dx.doi.org/10.1103/PhysRevLett.77.3865


 Goedecker, S; Teter, M; Hutter, J. 
 PHYSICAL REVIEW B, 54 (3), 1703-1710 (1996). 
 Separable dual-space Gaussian pseudopotentials.
 https://dx.doi.org/10.1103/PhysRevB.54.1703


 -------------------------------------------------------------------------------
 -                                                                             -
 -                                T I M I N G                                  -
 -                                                                             -
 -------------------------------------------------------------------------------
 SUBROUTINE                       CALLS  ASD         SELF TIME        TOTAL TIME
                                MAXIMUM       AVERAGE  MAXIMUM  AVERAGE  MAXIMUM
 CP2K                                 1  1.0    0.028    0.028   42.420   42.420
 qs_energies                          1  2.0    0.000    0.000   42.055   42.055
 ls_scf                               1  3.0    0.000    0.000   41.955   41.955
 ls_scf_main                          7  4.0    0.001    0.001   26.618   26.618
 ls_scf_dm_to_ks                     14  5.0    0.000    0.000   26.509   26.509
 qs_ks_update_qs_env                 15  6.0    0.000    0.000   20.073   20.073
 rebuild_ks_matrix                   15  7.0    0.000    0.000   20.072   20.072
 qs_ks_build_kohn_sham_matrix        15  8.0    0.002    0.002   20.072   20.072
 pao_update                           7  4.0    0.017    0.017   13.300   13.300
 pao_calc_energy                    819  5.0    0.007    0.007   12.024   12.024
 qs_vxc_create                       15  9.0    0.000    0.000   11.336   11.336
 xc_vxc_pw_create                    15 10.0    0.185    0.185   11.336   11.336
 dbcsr_multiply_generic           43845  8.4    0.752    0.752    9.682    9.682
 qs_rho_update_rho                   15  6.0    0.000    0.000    8.394    8.394
 calculate_rho_elec                  15  7.0    6.830    6.830    8.394    8.394
 xc_rho_set_and_dset_create          15 11.0    0.070    0.070    8.296    8.296
 sum_up_and_integrate                15  9.0    0.032    0.032    7.533    7.533
 integrate_v_rspace                  15 10.0    6.675    6.675    7.502    7.502
 pw_transfer                        286 10.6    0.018    0.018    7.142    7.142
 fft_wrap_pw1pw2                    256 11.7    0.003    0.003    6.987    6.987
 fft_wrap_pw1pw2_200                166 12.8    0.570    0.570    6.689    6.689
 pao_dm_trs4                        819  6.0    0.004    0.004    6.188    6.188
 density_matrix_trs4                833  7.0    0.324    0.324    5.913    5.913
 ls_scf_init_matrix_S               826  7.0    0.005    0.005    5.816    5.816
 pao_rebuild_S                      819  6.0    0.004    0.004    5.770    5.770
 xc_functional_eval                  15 12.0    0.000    0.000    5.720    5.720
 pbe_lda_eval                        15 13.0    5.720    5.720    5.720    5.720
 matrix_sqrt_Newton_Schulz          826  8.0    0.299    0.299    5.237    5.237
 fft3d_s                            257 13.6    3.916    3.916    3.928    3.928
 multiply_cannon                  43845  9.4    1.687    1.687    3.709    3.709
 make_m2s                         87690  9.4    0.256    0.256    3.587    3.587
 make_images                      87690 10.4    0.950    0.950    3.188    3.188
 pao_guess_initial_P                  1  4.0    0.000    0.000    1.965    1.965
 pao_read_preopt_dm                   1  5.0    0.000    0.000    1.965    1.965
 arnoldi_extremal                  1659  8.5    0.006    0.006    1.604    1.604
 arnoldi_normal_ev                 1659  9.5    0.018    0.018    1.598    1.598
 density_rs2pw                       15  8.0    0.001    0.001    1.538    1.538
 pw_scatter_s                       135 14.2    1.262    1.262    1.262    1.262
 pao_calc_AB                       1080  5.8    0.001    0.001    1.248    1.248
 pao_calc_AB_direct                1080  6.8    0.040    0.040    1.246    1.246
 pw_gather_s                        121 13.1    1.201    1.201    1.201    1.201
 build_subspace                    1659 10.5    0.099    0.099    1.191    1.191
 pao_calc_grad_lnv_wrt_AB           260  7.0    0.012    0.012    1.161    1.161
 dbcsr_matrix_vector_mult         39797 11.5    0.193    0.193    1.050    1.050
 dbcsr_create_new                335512 10.7    0.585    0.585    1.039    1.039
 dbcsr_finalize                  103593  9.6    0.191    0.191    1.006    1.006
 -------------------------------------------------------------------------------

 The number of warnings for this run is : 0
 
 -------------------------------------------------------------------------------
  **** **** ******  **  PROGRAM ENDED AT                 2019-02-14 11:10:07.645
 ***** ** ***  *** **   PROGRAM RAN ON                                      otto
 **    ****   ******    PROGRAM RAN BY                                       ole
 ***** **    ** ** **   PROGRAM PROCESS ID                                  7763
  **** **  *******  **  PROGRAM STOPPED IN /home/ole/git/pao_ml_equivar/2H2O_MD/
                                           frame_1525
