       6
 i =      525, time =      105.000, E =       -34.4454223732
  O         2.7479674353        4.3652174391        3.1927117953
  H         2.1471146385        4.9964797814        3.5916794520
  H         2.7876312134        4.5802678249        2.2526728902
  O         5.8501925699        4.3439451514        4.9714688676
  H         5.5559724835        3.4187013959        5.0563146112
  H         5.0051075236        4.8411675798        4.7445297024