 DBCSR| CPU Multiplication driver                                           XSMM (U)
 DBCSR| Multrec recursion limit                                              512 (U)
 DBCSR| Multiplication stack size                                           1000 (D)
 DBCSR| Maximum elements for images                                    UNLIMITED (U)
 DBCSR| Multiplicative factor virtual images                                   1 (U)
 DBCSR| Use multiplication densification                                       T (D)
 DBCSR| Multiplication size stacks                                             3 (U)
 DBCSR| Use memory pool for CPU allocation                                     F (U)
 DBCSR| OMP: Current number of threads                                         1
 DBCSR| OMP: Max number of threads                                             1
 DBCSR| Split modifier for TAS multiplication algorithm                  1.0E+00 (U)


  **** **** ******  **  PROGRAM STARTED AT               2023-01-22 17:34:12.423
 ***** ** ***  *** **   PROGRAM STARTED ON                                moritz
 **    ****   ******    PROGRAM STARTED BY                                   ole
 ***** **    ** ** **   PROGRAM PROCESS ID                                116870
  **** **  *******  **  PROGRAM STARTED IN /home/ole/git/pao_ml_equivar/2H2O_MD/
                                           frame_1900

 CP2K| version string:                 CP2K version 2023.1 (Development Version)
 CP2K| source code revision number:                                  git:cb52c7f
 CP2K| cp2kflags: omp libint fftw3 libxc quip xsmm spglib libvori libbqb libtorc
 CP2K|            h
 CP2K| is freely available from                            https://www.cp2k.org/
 CP2K| Program compiled at                           Mi 18 Jan 2023 11:14:10 CET
 CP2K| Program compiled on                                                moritz
 CP2K| Program compiled for                                                local
 CP2K| Data directory path                               /home/ole/git/cp2k/data
 CP2K| Input file name                                              2H2O_ref.inp

 GLOBAL| Force Environment number                                              1
 GLOBAL| Basis set file name                                        BASIS_MOLOPT
 GLOBAL| Potential file name                                      GTH_POTENTIALS
 GLOBAL| MM Potential file name                                     MM_POTENTIAL
 GLOBAL| Coordinate file name                                         coords.xyz
 GLOBAL| Method name                                                        CP2K
 GLOBAL| Project name                                                   2H2O_ref
 GLOBAL| Run type                                                         ENERGY
 GLOBAL| FFT library                                                       FFTW3
 GLOBAL| Diagonalization library                                       ScaLAPACK
 GLOBAL| DGEMM library                                                      BLAS
 GLOBAL| Orthonormality check for eigenvectors                          DISABLED
 GLOBAL| Matrix multiplication library                                 ScaLAPACK
 GLOBAL| All-to-all communication in single precision                          F
 GLOBAL| FFTs using library dependent lengths                                  F
 GLOBAL| Grid backend                                                       AUTO
 GLOBAL| Global print level                                                  LOW
 GLOBAL| MPI I/O enabled                                                       T
 GLOBAL| Total number of message passing processes                             1
 GLOBAL| Number of threads for this process                                    1
 GLOBAL| This output is from process                                           0
 GLOBAL| Stack size for threads created by OpenMP (OMP_STACKSIZE)        default
 GLOBAL| CPU model name           AMD Ryzen Threadripper 3970X 32-Core Processor
 GLOBAL| CPUID                                                              1002
 GLOBAL| Compiled for CPUID                                                    0

 *** HINT in environment.F:884 :: The compiler target flags (generic) used ***
 *** to build this binary cannot exploit all extensions of this CPU model  ***
 *** (x86_avx2). Consider compiler target flags as part of FCFLAGS and     ***
 *** CFLAGS (ARCH file).                                                   ***


 MEMORY| system memory details [Kb]
 MEMORY|                        rank 0           min           max       average
 MEMORY| MemTotal            131773860     131773860     131773860     131773860
 MEMORY| MemFree             112161964     112161964     112161964     112161964
 MEMORY| Buffers                437868        437868        437868        437868
 MEMORY| Cached                6651724       6651724       6651724       6651724
 MEMORY| Slab                   840084        840084        840084        840084
 MEMORY| SReclaimable           381664        381664        381664        381664
 MEMORY| MemLikelyFree       119633220     119633220     119633220     119633220


 GENERATE|  Preliminary Number of Bonds generated:                             0
 GENERATE|  Achieved consistency in connectivity generation.

 *******************************************************************************
 *******************************************************************************
 **                                                                           **
 **     #####                         ##              ##                      **
 **    ##   ##            ##          ##              ##                      **
 **   ##     ##                       ##            ######                    **
 **   ##     ##  ##   ##  ##   #####  ##  ##   ####   ##    #####    #####    **
 **   ##     ##  ##   ##  ##  ##      ## ##   ##      ##   ##   ##  ##   ##   **
 **   ##  ## ##  ##   ##  ##  ##      ####     ###    ##   ######   ######    **
 **    ##  ###   ##   ##  ##  ##      ## ##      ##   ##   ##       ##        **
 **     #######   #####   ##   #####  ##  ##  ####    ##    #####   ##        **
 **           ##                                                    ##        **
 **                                                                           **
 **                                                ... make the atoms dance   **
 **                                                                           **
 **            Copyright (C) by CP2K developers group (2000-2023)             **
 **                      J. Chem. Phys. 152, 194103 (2020)                    **
 **                                                                           **
 *******************************************************************************


 TOTAL NUMBERS AND MAXIMUM NUMBERS

  Total number of            - Atomic kinds:                                   2
                             - Atoms:                                          6
                             - Shell sets:                                     6
                             - Shells:                                        22
                             - Primitive Cartesian functions:                 42
                             - Cartesian basis functions:                     48
                             - Spherical basis functions:                     46

  Maximum angular momentum of- Orbital basis functions:                        2
                             - Local part of the GTH pseudopotential:          2
                             - Non-local part of the GTH pseudopotential:      0

 ------------------------------ Linear scaling SCF -----------------------------
 eps_scf:                                                              0.100E-07
 eps_filter:                                                           0.100E-07
 mixing_fraction:                                                      0.450E+00
 max_scf:                                                                     25
 fixed chemical potential (mu)                                                 F
 has unit metric:                                                              F
 Computing inv(S):                                                             T
 Computing sqrt(S):                                                            T
 Computing S preconditioner                                                    F
 S sqrt method:                                                     NEWTONSCHULZ
 S sqrt order:                                                                 3
 Extrapolation order:                                                          4
 Use single precision matrices                                                 F
 S preconditioner type                                                      NONE
 Polarized Atomic Orbitals (PAO)                                               F
 Purification method                                   Trace resetting 4th order
 Cluster type                                                             ATOMIC
 Computing Chebyshev                                                       FALSE
 Using PAO                                                                     F
 -------------------------------------------------------------------------------


     Lanczos converged:  T threshold:   0.100E-02
     Est. extremal eigenvalues:    0.399E+01   0.112E-01
     Est. condition number :    0.356E+03

 Order=           3
     NS sqrt iter    1 1.00000000   0.103E+01       0.002      310.383
     NS sqrt iter    2 1.00000000   0.603E+00       0.001      694.709
     NS sqrt iter    3 1.00000000   0.335E+00       0.001      699.640
     NS sqrt iter    4 1.00000000   0.230E+00       0.001      697.790
     NS sqrt iter    5 1.00000000   0.112E+00       0.001      705.260
     NS sqrt iter    6 1.00000000   0.129E-01       0.001      702.455
     NS sqrt iter    7 1.00000000   0.283E-04       0.001      564.482
     Symmetrizing Results
     Final NS sqrt iter    7 1.00000000   0.512E-08



 Guess for atomic kind: O

 Electronic structure
    Total number of core electrons                                          2.00
    Total number of valence electrons                                       6.00
    Total number of electrons                                               8.00
    Multiplicity                                                   not specified
    S   [  2.00] 2.00
    P      4.00


 *******************************************************************************
                  Iteration          Convergence                     Energy [au]
 *******************************************************************************
                          1        0.708315                     -15.576645311500
                          2        0.608879                     -15.587933561584
                          3        0.102828E-01                 -15.656849565404
                          4        0.113889E-02                 -15.656866888140
                          5        0.434197E-03                 -15.656867072159
                          6        0.263771E-03                 -15.656867091904
                          7        0.478536E-06                 -15.656867103452

 Energy components [Hartree]           Total Energy ::          -15.656867103452
                                        Band Energy ::           -3.000198112285
                                     Kinetic Energy ::           11.759971203220
                                   Potential Energy ::          -27.416838306672
                                      Virial (-V/T) ::            2.331369510426
                                        Core Energy ::          -26.140716385623
                                          XC Energy ::           -3.154051012914
                                     Coulomb Energy ::           13.637900295084
                       Total Pseudopotential Energy ::          -37.935781716540
                       Local Pseudopotential Energy ::          -39.218907440693
                    Nonlocal Pseudopotential Energy ::            1.283125724153
                                        Confinement ::            0.350941276976

 Orbital energies  State     L     Occupation   Energy[a.u.]          Energy[eV]

                       1     0          2.000      -0.864471          -23.523463

                       1     1          4.000      -0.317814           -8.648154


 Total Electron Density at R=0:                                         0.000068

 Guess for atomic kind: H

 Electronic structure
    Total number of core electrons                                          0.00
    Total number of valence electrons                                       1.00
    Total number of electrons                                               1.00
    Multiplicity                                                   not specified
    S      1.00


 *******************************************************************************
                  Iteration          Convergence                     Energy [au]
 *******************************************************************************
                          1        0.437545E-02                  -0.424159432110
                          2        0.531356E-03                  -0.424178438213
                          3        0.259176E-06                  -0.424178722480

 Energy components [Hartree]           Total Energy ::           -0.424178722480
                                        Band Energy ::           -0.199015229016
                                     Kinetic Energy ::            0.464007633961
                                   Potential Energy ::           -0.888186356441
                                      Virial (-V/T) ::            1.914163240935
                                        Core Energy ::           -0.479160803564
                                          XC Energy ::           -0.244352904054
                                     Coulomb Energy ::            0.299334985138
                       Total Pseudopotential Energy ::           -0.962295316385
                       Local Pseudopotential Energy ::           -0.962295316385
                    Nonlocal Pseudopotential Energy ::            0.000000000000
                                        Confinement ::            0.191268788606

 Orbital energies  State     L     Occupation   Energy[a.u.]          Energy[eV]

                       1     0          1.000      -0.199015           -5.415480


 Total Electron Density at R=0:                                         0.242907
 Re-scaling the density matrix to get the right number of electrons
                  # Electrons              Trace(P)               Scaling factor
                           16                15.990                        1.001
 Energy with the initial guess:       -34.120785024

     Est. extremal eigenvalues     -1.07115     3.80720  converged:  T
     TRS4 it   1 1.00000000   0.180E+01       0.001      117.484   0.100E-07
     TRS4 it   2 1.00000000   0.159E+01       0.000      117.484   0.100E-07
     TRS4 it   3 1.00000000   0.911E+00       0.001      234.968   0.100E-07
     TRS4 it   4 1.00000000   0.561E+00       0.001      234.968   0.100E-07
     TRS4 it   5 1.00000000   0.338E+00       0.001      234.968   0.100E-07
     TRS4 it   6 1.00000000   0.156E+00       0.001      234.968   0.100E-07
     TRS4 it   7 1.00000000   0.445E-01       0.001      234.968   0.100E-07
     TRS4 it   8 1.00000000   0.459E-02       0.001      234.968   0.100E-07
     TRS4 it   9 1.00000000   0.611E-04       0.001      234.968   0.100E-07
     TRS4 it  10 1.00000000   0.117E-07       0.001      234.968   0.100E-07
     Final TRS4 iteration   10 1.00000000   0.117E-07
     Chemical potential (mu):      -0.22602

 SCF     1       -34.239006442       -34.239006442    5.258104

*********************************************************
 Using MIXING_FRACTION=0.450 to mix KS matrix:  iscf=  2
 KS_nw=0.450*KS + 0.550*KS_old
*********************************************************
     Est. extremal eigenvalues     -0.91326     3.93441  converged:  T
     TRS4 it   1 1.00000000   0.176E+01       0.000      117.484   0.100E-07
     TRS4 it   2 1.00000000   0.161E+01       0.000      117.484   0.100E-07
     TRS4 it   3 1.00000000   0.981E+00       0.001      234.968   0.100E-07
     TRS4 it   4 1.00000000   0.593E+00       0.001      234.968   0.100E-07
     TRS4 it   5 1.00000000   0.397E+00       0.001      234.968   0.100E-07
     TRS4 it   6 1.00000000   0.232E+00       0.001      234.968   0.100E-07
     TRS4 it   7 1.00000000   0.107E+00       0.001      234.968   0.100E-07
     TRS4 it   8 1.00000000   0.298E-01       0.001      234.968   0.100E-07
     TRS4 it   9 1.00000000   0.311E-02       0.001      234.968   0.100E-07
     TRS4 it  10 1.00000000   0.385E-04       0.018       13.390   0.100E-07
     TRS4 it  11 1.00000000   0.628E-08       0.001      234.968   0.100E-07
     Final TRS4 iteration   11 1.00000000   0.628E-08
     Chemical potential (mu):      -0.11613

 SCF     2       -34.434030501        -0.195024059    4.847513

*********************************************************
 Using MIXING_FRACTION=0.450 to mix KS matrix:  iscf=  3
 KS_nw=0.450*KS + 0.550*KS_old
*********************************************************
     Est. extremal eigenvalues     -0.93981     3.92126  converged:  T
     TRS4 it   1 1.00000000   0.177E+01       0.004       30.651   0.100E-07
     TRS4 it   2 1.00000000   0.161E+01       0.019        6.231   0.100E-07
     TRS4 it   3 1.00000000   0.968E+00       0.001      161.375   0.100E-07
     TRS4 it   4 1.00000000   0.591E+00       0.001      234.968   0.100E-07
     TRS4 it   5 1.00000000   0.390E+00       0.001      234.968   0.100E-07
     TRS4 it   6 1.00000000   0.221E+00       0.001      234.968   0.100E-07
     TRS4 it   7 1.00000000   0.963E-01       0.001      234.968   0.100E-07
     TRS4 it   8 1.00000000   0.244E-01       0.001      234.968   0.100E-07
     TRS4 it   9 1.00000000   0.219E-02       0.001      234.968   0.100E-07
     TRS4 it  10 1.00000000   0.206E-04       0.001      234.968   0.100E-07
     TRS4 it  11 1.00000000   0.189E-08       0.001      234.968   0.100E-07
     Final TRS4 iteration   11 1.00000000   0.189E-08
     Chemical potential (mu):      -0.12804

 SCF     3       -34.445471083        -0.011440581    5.242971

*********************************************************
 Using MIXING_FRACTION=0.450 to mix KS matrix:  iscf=  4
 KS_nw=0.450*KS + 0.550*KS_old
*********************************************************
     Est. extremal eigenvalues     -0.92554     3.93418  converged:  T
     TRS4 it   1 1.00000000   0.176E+01       0.001      108.689   0.100E-07
     TRS4 it   2 1.00000000   0.161E+01       0.000      117.484   0.100E-07
     TRS4 it   3 1.00000000   0.973E+00       0.001      234.968   0.100E-07
     TRS4 it   4 1.00000000   0.593E+00       0.001      234.968   0.100E-07
     TRS4 it   5 1.00000000   0.396E+00       0.001      234.968   0.100E-07
     TRS4 it   6 1.00000000   0.229E+00       0.001      234.968   0.100E-07
     TRS4 it   7 1.00000000   0.103E+00       0.001      234.968   0.100E-07
     TRS4 it   8 1.00000000   0.283E-01       0.001      234.968   0.100E-07
     TRS4 it   9 1.00000000   0.301E-02       0.001      234.968   0.100E-07
     TRS4 it  10 1.00000000   0.397E-04       0.001      234.968   0.100E-07
     TRS4 it  11 1.00000000   0.704E-08       0.001      234.968   0.100E-07
     Final TRS4 iteration   11 1.00000000   0.704E-08
     Chemical potential (mu):      -0.11729

 SCF     4       -34.446480566        -0.001009483    4.395420

*********************************************************
 Using MIXING_FRACTION=0.450 to mix KS matrix:  iscf=  5
 KS_nw=0.450*KS + 0.550*KS_old
*********************************************************
     Est. extremal eigenvalues     -0.92673     3.93544  converged:  T
     TRS4 it   1 1.00000000   0.176E+01       0.001      109.825   0.100E-07
     TRS4 it   2 1.00000000   0.161E+01       0.000      117.484   0.100E-07
     TRS4 it   3 1.00000000   0.973E+00       0.001      234.968   0.100E-07
     TRS4 it   4 1.00000000   0.594E+00       0.001      234.968   0.100E-07
     TRS4 it   5 1.00000000   0.396E+00       0.001      234.968   0.100E-07
     TRS4 it   6 1.00000000   0.229E+00       0.001      234.968   0.100E-07
     TRS4 it   7 1.00000000   0.104E+00       0.001      234.968   0.100E-07
     TRS4 it   8 1.00000000   0.287E-01       0.001      234.968   0.100E-07
     TRS4 it   9 1.00000000   0.314E-02       0.001      234.968   0.100E-07
     TRS4 it  10 1.00000000   0.441E-04       0.001      234.968   0.100E-07
     TRS4 it  11 1.00000000   0.877E-08       0.001      234.968   0.100E-07
     Final TRS4 iteration   11 1.00000000   0.877E-08
     Chemical potential (mu):      -0.11628

 SCF     5       -34.446575327        -0.000094762    5.547289

*********************************************************
 Using MIXING_FRACTION=0.450 to mix KS matrix:  iscf=  6
 KS_nw=0.450*KS + 0.550*KS_old
*********************************************************
     Est. extremal eigenvalues     -0.92464     3.93762  converged:  T
     TRS4 it   1 1.00000000   0.176E+01       0.001      108.563   0.100E-07
     TRS4 it   2 1.00000000   0.161E+01       0.000      117.484   0.100E-07
     TRS4 it   3 1.00000000   0.973E+00       0.001      234.968   0.100E-07
     TRS4 it   4 1.00000000   0.594E+00       0.001      234.968   0.100E-07
     TRS4 it   5 1.00000000   0.397E+00       0.001      234.968   0.100E-07
     TRS4 it   6 1.00000000   0.230E+00       0.001      234.968   0.100E-07
     TRS4 it   7 1.00000000   0.105E+00       0.001      234.968   0.100E-07
     TRS4 it   8 1.00000000   0.294E-01       0.001      234.968   0.100E-07
     TRS4 it   9 1.00000000   0.331E-02       0.001      234.968   0.100E-07
     TRS4 it  10 1.00000000   0.492E-04       0.001      234.968   0.100E-07
     TRS4 it  11 1.00000000   0.109E-07       0.001      234.968   0.100E-07
     Final TRS4 iteration   11 1.00000000   0.109E-07
     Chemical potential (mu):      -0.11449

 SCF     6       -34.446586267        -0.000010940    4.985084

*********************************************************
 Using MIXING_FRACTION=0.450 to mix KS matrix:  iscf=  7
 KS_nw=0.450*KS + 0.550*KS_old
*********************************************************
     Est. extremal eigenvalues     -0.92439     3.93833  converged:  T
     TRS4 it   1 1.00000000   0.176E+01       0.001      117.484   0.100E-07
     TRS4 it   2 1.00000000   0.161E+01       0.000      117.484   0.100E-07
     TRS4 it   3 1.00000000   0.974E+00       0.001      234.968   0.100E-07
     TRS4 it   4 1.00000000   0.594E+00       0.001      234.968   0.100E-07
     TRS4 it   5 1.00000000   0.397E+00       0.001      234.968   0.100E-07
     TRS4 it   6 1.00000000   0.230E+00       0.001      234.968   0.100E-07
     TRS4 it   7 1.00000000   0.105E+00       0.001      234.968   0.100E-07
     TRS4 it   8 1.00000000   0.296E-01       0.001      234.968   0.100E-07
     TRS4 it   9 1.00000000   0.338E-02       0.001      234.968   0.100E-07
     TRS4 it  10 1.00000000   0.515E-04       0.001      234.968   0.100E-07
     TRS4 it  11 1.00000000   0.120E-07       0.001      234.968   0.100E-07
     Final TRS4 iteration   11 1.00000000   0.120E-07
     Chemical potential (mu):      -0.11390

 SCF     7       -34.446587942        -0.000001675    3.877196

*********************************************************
 Using MIXING_FRACTION=0.450 to mix KS matrix:  iscf=  8
 KS_nw=0.450*KS + 0.550*KS_old
*********************************************************
     Est. extremal eigenvalues     -0.92399     3.93882  converged:  T
     TRS4 it   1 1.00000000   0.176E+01       0.001      117.484   0.100E-07
     TRS4 it   2 1.00000000   0.161E+01       0.000      117.484   0.100E-07
     TRS4 it   3 1.00000000   0.974E+00       0.001      234.968   0.100E-07
     TRS4 it   4 1.00000000   0.594E+00       0.001      234.968   0.100E-07
     TRS4 it   5 1.00000000   0.397E+00       0.001      234.968   0.100E-07
     TRS4 it   6 1.00000000   0.230E+00       0.001      234.968   0.100E-07
     TRS4 it   7 1.00000000   0.105E+00       0.001      234.968   0.100E-07
     TRS4 it   8 1.00000000   0.298E-01       0.001      234.968   0.100E-07
     TRS4 it   9 1.00000000   0.342E-02       0.001      234.968   0.100E-07
     TRS4 it  10 1.00000000   0.529E-04       0.001      234.968   0.100E-07
     TRS4 it  11 1.00000000   0.127E-07       0.001      234.968   0.100E-07
     Final TRS4 iteration   11 1.00000000   0.127E-07
     Chemical potential (mu):      -0.11349

 SCF     8       -34.446588286        -0.000000344    3.598215

*********************************************************
 Using MIXING_FRACTION=0.450 to mix KS matrix:  iscf=  9
 KS_nw=0.450*KS + 0.550*KS_old
*********************************************************
     Est. extremal eigenvalues     -0.92387     3.93905  converged:  T
     TRS4 it   1 1.00000000   0.176E+01       0.001      117.484   0.100E-07
     TRS4 it   2 1.00000000   0.161E+01       0.000      117.484   0.100E-07
     TRS4 it   3 1.00000000   0.974E+00       0.001      234.968   0.100E-07
     TRS4 it   4 1.00000000   0.595E+00       0.001      234.968   0.100E-07
     TRS4 it   5 1.00000000   0.397E+00       0.001      234.968   0.100E-07
     TRS4 it   6 1.00000000   0.231E+00       0.001      234.968   0.100E-07
     TRS4 it   7 1.00000000   0.105E+00       0.001      234.968   0.100E-07
     TRS4 it   8 1.00000000   0.298E-01       0.001      234.968   0.100E-07
     TRS4 it   9 1.00000000   0.344E-02       0.001      234.968   0.100E-07
     TRS4 it  10 1.00000000   0.537E-04       0.001      234.968   0.100E-07
     TRS4 it  11 1.00000000   0.130E-07       0.001      234.968   0.100E-07
     Final TRS4 iteration   11 1.00000000   0.130E-07
     Chemical potential (mu):      -0.11330

 SCF     9       -34.446588371        -0.000000085    3.521206


 SCF run converged in     9 steps.

 Writing restart DM 2H2O_ref_LS_DM_SPIN_1_RESTART.dm with checksum:       0.53932081E+02

 ENERGY| Total FORCE_EVAL ( QS ) energy [a.u.]:              -34.446588370715055

 -------------------------------------------------------------------------------
 -                                                                             -
 -                                DBCSR STATISTICS                             -
 -                                                                             -
 -------------------------------------------------------------------------------
 COUNTER                                    TOTAL       BLAS       SMM       ACC
 flops     5 x     5 x     5              2776250       0.0%    100.0%      0.0%
 flops     5 x    13 x     5              3118050       0.0%    100.0%      0.0%
 flops    13 x     5 x     5              3118050       0.0%    100.0%      0.0%
 flops     5 x     5 x    13              3598400       0.0%    100.0%      0.0%
 flops    13 x     5 x    13              4059380       0.0%    100.0%      0.0%
 flops     5 x    13 x    13              4059380       0.0%    100.0%      0.0%
 flops    13 x    13 x     5              5309980       0.0%    100.0%      0.0%
 flops    13 x    13 x    13              6933732       0.0%    100.0%      0.0%
 flops inhomo. stacks                           0       0.0%      0.0%      0.0%
 flops total                        32.973222E+06       0.0%    100.0%      0.0%
 flops max/rank                     32.973222E+06       0.0%    100.0%      0.0%
 matmuls inhomo. stacks                         0       0.0%      0.0%      0.0%
 matmuls total                              35759       0.0%    100.0%      0.0%
 number of processed stacks                  1959       0.0%    100.0%      0.0%
 average stack size                                     0.0      18.3       0.0
 marketing flops                    47.889312E+06
 -------------------------------------------------------------------------------
 # multiplications                            246
 max memory usage/rank             419.180544E+06
 # max total images/rank                        1
 # max 3D layers                                1
 # MPI messages exchanged                       0
 -------------------------------------------------------------------------------

 -------------------------------------------------------------------------------
 -                                                                             -
 -                                DBM STATISTICS                               -
 -                                                                             -
 -------------------------------------------------------------------------------
    M  x    N  x    K                                          COUNT     PERCENT
 -------------------------------------------------------------------------------

 -------------------------------------------------------------------------------
 -                                                                             -
 -                                GRID STATISTICS                              -
 -                                                                             -
 -------------------------------------------------------------------------------
 LP    KERNEL             BACKEND                              COUNT     PERCENT
 2     collocate ortho    REF                                  38070      30.71%
 2     integrate ortho    REF                                  38070      30.71%
 3     collocate ortho    REF                                  19670      15.87%
 3     integrate ortho    REF                                  19670      15.87%
 4     collocate ortho    REF                                   4240       3.42%
 4     integrate ortho    REF                                   4240       3.42%
 0     collocate general  REF                                      6       0.00%
 -------------------------------------------------------------------------------

 MEMORY| Estimated peak process memory [MiB]                                 400

 -------------------------------------------------------------------------------
 -                                                                             -
 -                           R E F E R E N C E S                               -
 -                                                                             -
 -------------------------------------------------------------------------------
 
 CP2K version 2023.1 (Development Version), the CP2K developers group (2023).
 CP2K is freely available from https://www.cp2k.org/ .

 Kuehne,Thomas D.; Iannuzzi,Marcella; Del Ben,Mauro;
 Rybkin,Vladimir V.; Seewald,Patrick; Stein,Frederick; Laino,Teodoro;
 Khaliullin,Rustam Z.; Schuett,Ole; Schiffmann,Florian; Golze,Dorothea;
 Wilhelm,Jan; Chulkov,Sergey; Bani-Hashemian,Mohammad Hossein;
 Weber,Valery; Borstnik,Urban; Taillefumier,Mathieu;
 Jakobovits,Alice Shoshana; Lazzaro,Alfio; Pabst,Hans; Mueller,Tiziano;
 Schade,Robert; Guidon,Manuel; Andermatt,Samuel; Holmberg,Nico;
 Schenter,Gregory K.; Hehn,Anna; Bussy,Augustin; Belleflamme,Fabian;
 Tabacchi,Gloria; Gloess,Andreas; Lass,Michael; Bethune,Iain;
 Mundy,Christopher J.; Plessl,Christian; Watkins,Matt;
 VandeVondele,Joost; Krack,Matthias; Hutter,Juerg. 
 The Journal of Chemical Physics, 152 (19), (2020). 
 CP2K: An electronic structure and molecular dynamics software package -
 Quickstep: Efficient and accurate electronic structure calculations.
 https://doi.org/10.1063/5.0007045

 Schuett, Ole; Messmer, Peter; Hutter, Juerg; VandeVondele, Joost. 
 Electronic Structure Calculations on Graphics Processing Units, John
 Wiley & Sons, Ltd, 173-190 (2016). 
 GPU-Accelerated Sparse Matrix-Matrix Multiplication for
 Linear Scaling Density Functional Theory.
 https://doi.org/10.1002/9781118670712.ch8

 Heinecke, A; Henry, G; Hutchinson, M; Pabst, H. 
 Proceedings of Intl. Supercomputing Conference, 981-991 (2016). 
 LIBXSMM: Accelerating Small Matrix Multiplications
 by Runtime Code Generation.
 https://doi.org/10.1109/SC.2016.83

 Borstnik, U; VandeVondele, J; Weber, V; Hutter, J. 
 PARALLEL COMPUTING, 40 (5-6), 47-58 (2014). 
 Sparse matrix multiplication: The distributed block-compressed sparse
 row library.
 https://doi.org/10.1016/j.parco.2014.03.012

 Hutter, J; Iannuzzi, M; Schiffmann, F; VandeVondele, J. 
 WIREs Comput Mol Sci., 4 (1), 15-25 (2014). 
 CP2K: atomistic simulations of condensed matter systems.
 https://doi.org/10.1002/wcms.1159

 VandeVondele, J; Borstnik, U; Hutter, J. 
 JOURNAL OF CHEMICAL THEORY AND COMPUTATION, 8 (10), 3565-3573 (2012). 
 Linear Scaling Self-Consistent Field Calculations with Millions of Atoms
 in the Condensed Phase.
 https://doi.org/10.1021/ct200897x

 VandeVondele, J; Hutter, J. 
 JOURNAL OF CHEMICAL PHYSICS, 127 (11), 114105 (2007). 
 Gaussian basis sets for accurate calculations on molecular systems in
 gas and condensed phases.
 https://doi.org/10.1063/1.2770708

 Krack, M. 
 THEORETICAL CHEMISTRY ACCOUNTS, 114 (1-3), 145-152 (2005). 
 Pseudopotentials for H to Kr optimized for gradient-corrected
 exchange-correlation functionals.
 https://doi.org/10.1007/s00214-005-0655-y

 VandeVondele, J; Krack, M; Mohamed, F; Parrinello, M; Chassaing, T;
 Hutter, J. COMPUTER PHYSICS COMMUNICATIONS, 167 (2), 103-128 (2005). 
 QUICKSTEP: Fast and accurate density functional calculations using a
 mixed Gaussian and plane waves approach.
 https://doi.org/10.1016/j.cpc.2004.12.014

 Frigo, M; Johnson, SG. 
 PROCEEDINGS OF THE IEEE, 93 (2), 216-231 (2005). 
 The design and implementation of FFTW3.
 https://doi.org/10.1109/JPROC.2004.840301

 Niklasson, AMN; Tymczak, CJ; Challacombe, M. 
 JOURNAL OF CHEMICAL PHYSICS, 118 (19), 8611-8620 (2003). 
 Trace resetting density matrix purification in O(N)
 self-consistent-field theory.
 https://doi.org/10.1063/1.1559913

 Hartwigsen, C; Goedecker, S; Hutter, J. 
 PHYSICAL REVIEW B, 58 (7), 3641-3662 (1998). 
 Relativistic separable dual-space Gaussian pseudopotentials from H to Rn.
 https://doi.org/10.1103/PhysRevB.58.3641

 Lippert, G; Hutter, J; Parrinello, M. 
 MOLECULAR PHYSICS, 92 (3), 477-487 (1997). 
 A hybrid Gaussian and plane wave density functional scheme.
 https://doi.org/10.1080/002689797170220

 Perdew, JP; Burke, K; Ernzerhof, M. 
 PHYSICAL REVIEW LETTERS, 77 (18), 3865-3868 (1996). 
 Generalized gradient approximation made simple.
 https://doi.org/10.1103/PhysRevLett.77.3865

 Goedecker, S; Teter, M; Hutter, J. 
 PHYSICAL REVIEW B, 54 (3), 1703-1710 (1996). 
 Separable dual-space Gaussian pseudopotentials.
 https://doi.org/10.1103/PhysRevB.54.1703


 -------------------------------------------------------------------------------
 -                                                                             -
 -                                T I M I N G                                  -
 -                                                                             -
 -------------------------------------------------------------------------------
 SUBROUTINE                       CALLS  ASD         SELF TIME        TOTAL TIME
                                MAXIMUM       AVERAGE  MAXIMUM  AVERAGE  MAXIMUM
 CP2K                                 1  1.0    0.013    0.013   47.745   47.745
 qs_energies                          1  2.0    0.000    0.000   47.043   47.043
 ls_scf                               1  3.0    0.000    0.000   46.836   46.836
 ls_scf_main                          1  4.0    0.002    0.002   41.275   41.275
 ls_scf_dm_to_ks                      9  5.0    0.000    0.000   41.065   41.065
 qs_ks_update_qs_env                 10  6.1    0.000    0.000   36.142   36.142
 rebuild_ks_matrix                   10  7.1    0.000    0.000   36.141   36.141
 qs_ks_build_kohn_sham_matrix        10  8.1    0.004    0.004   36.141   36.141
 qs_vxc_create                       10  9.1    0.001    0.001   22.000   22.000
 xc_vxc_pw_create                    10 10.1    0.474    0.474   22.000   22.000
 pw_transfer                        191 11.2    0.041    0.041   19.024   19.024
 fft_wrap_pw1pw2                    171 12.4    0.005    0.005   18.467   18.467
 fft_wrap_pw1pw2_200                111 13.8    1.883    1.883   17.714   17.714
 xc_pw_derive                        60 12.1    0.002    0.002   13.281   13.281
 xc_rho_set_and_dset_create          10 11.1    0.529    0.529   12.501   12.501
 sum_up_and_integrate                10  9.1    0.329    0.329   10.585   10.585
 qs_rho_update_rho_low               10  6.1    0.000    0.000   10.466   10.466
 calculate_rho_elec                  10  7.1    0.086    0.086   10.465   10.465
 integrate_v_rspace                  10 10.1    0.002    0.002   10.256   10.256
 xc_pw_divergence                    10 11.1    0.001    0.001    8.699    8.699
 grid_integrate_task_list            10 11.1    7.962    7.962    7.962    7.962
 fft3d_s                            172 14.3    7.792    7.792    7.818    7.818
 grid_collocate_task_list            10  8.1    6.451    6.451    6.451    6.451
 ls_scf_init_scf                      1  4.0    0.000    0.000    5.560    5.560
 ls_scf_initial_guess                 1  5.0    0.000    0.000    5.544    5.544
 ls_scf_qs_atomic_guess               1  6.0    0.000    0.000    5.544    5.544
 xc_functional_eval                  10 12.1    0.000    0.000    4.596    4.596
 pbe_lda_eval                        10 13.1    4.595    4.595    4.595    4.595
 pw_scatter_s                        90 14.8    4.562    4.562    4.562    4.562
 pw_gather_s                         81 13.9    4.133    4.133    4.133    4.133
 density_rs2pw                       10  8.1    0.001    0.001    3.928    3.928
 pw_derive                           60 13.1    2.656    2.656    2.656    2.656
 potential_pw2rs                     10 11.1    0.005    0.005    2.292    2.292
 pw_copy                            120 11.9    1.962    1.962    1.962    1.962
 pw_axpy                             90 10.4    1.298    1.298    1.298    1.298
 pw_poisson_solve                    10  9.1    0.227    0.227    1.293    1.293
 -------------------------------------------------------------------------------

 The number of warnings for this run is : 0
 
 -------------------------------------------------------------------------------
  **** **** ******  **  PROGRAM ENDED AT                 2023-01-22 17:35:00.627
 ***** ** ***  *** **   PROGRAM RAN ON                                    moritz
 **    ****   ******    PROGRAM RAN BY                                       ole
 ***** **    ** ** **   PROGRAM PROCESS ID                                116870
  **** **  *******  **  PROGRAM STOPPED IN /home/ole/git/pao_ml_equivar/2H2O_MD/
                                           frame_1900
