 DBCSR| CPU Multiplication driver                                           XSMM (U)
 DBCSR| Multrec recursion limit                                              512 (U)
 DBCSR| Multiplication stack size                                           1000 (D)
 DBCSR| Maximum elements for images                                    UNLIMITED (U)
 DBCSR| Multiplicative factor virtual images                                   1 (U)
 DBCSR| Use multiplication densification                                       T (D)
 DBCSR| Multiplication size stacks                                             3 (U)
 DBCSR| Use memory pool for CPU allocation                                     F (U)
 DBCSR| Number of 3D layers                                               SINGLE (U)
 DBCSR| Use MPI memory allocation                                              F (U)
 DBCSR| Use RMA algorithm                                                      F (U)
 DBCSR| Use Communication thread                                               T (U)
 DBCSR| Communication thread load                                             87 (D)
 DBCSR| MPI: My process id                                                     0
 DBCSR| MPI: Number of processes                                              32
 DBCSR| OMP: Current number of threads                                         1
 DBCSR| OMP: Max number of threads                                             1
 DBCSR| Split modifier for TAS multiplication algorithm                  1.0E+00 (U)


  **** **** ******  **  PROGRAM STARTED AT               2024-09-23 23:53:25.760
 ***** ** ***  *** **   PROGRAM STARTED ON                                moritz
 **    ****   ******    PROGRAM STARTED BY                                   ole
 ***** **    ** ** **   PROGRAM PROCESS ID                                164682
  **** **  *******  **  PROGRAM STARTED IN /home/ole/git/pao_ml_equivar/64H2O_MD
                                           /Frame1300

 CP2K| version string:                 CP2K version 2024.3 (Development Version)
 CP2K| source code revision number:                                  git:3f890bb
 CP2K| cp2kflags: omp libint fftw3 libxc libgrpp pexsi elpa parallel scalapack c
 CP2K|            osma quip deepmd xsmm plumed2 spglib libdftd4 sirius libvori l
 CP2K|            libbqb libvdwxc hdf5
 CP2K| is freely available from                            https://www.cp2k.org/
 CP2K| Program compiled at                          Mo 23 Sep 2024 17:17:04 CEST
 CP2K| Program compiled on                                                moritz
 CP2K| Program compiled for                                                local
 CP2K| Data directory path                               /home/ole/git/cp2k/data
 CP2K| Input file name                                           64H2O_pao44.inp

 GLOBAL| Force Environment number                                              1
 GLOBAL| Basis set file name                                        BASIS_MOLOPT
 GLOBAL| Potential file name                                      GTH_POTENTIALS
 GLOBAL| MM Potential file name                                     MM_POTENTIAL
 GLOBAL| Coordinate file name                                         coords.xyz
 GLOBAL| Method name                                                        CP2K
 GLOBAL| Project name                                                64H2O_pao44
 GLOBAL| Run type                                                         ENERGY
 GLOBAL| FFT library                                                       FFTW3
 GLOBAL| Diagonalization library                                            ELPA
 GLOBAL| DGEMM library                                                      BLAS
 GLOBAL| Minimum number of eigenvectors for ELPA usage                        16
 GLOBAL| Orthonormality check for eigenvectors                          DISABLED
 GLOBAL| Matrix multiplication library                                     COSMA
 GLOBAL| All-to-all communication in single precision                          F
 GLOBAL| FFTs using library dependent lengths                                  F
 GLOBAL| Grid backend                                                       AUTO
 GLOBAL| Global print level                                                  LOW
 GLOBAL| MPI I/O enabled                                                       T
 GLOBAL| Total number of message passing processes                            32
 GLOBAL| Number of threads for this process                                    1
 GLOBAL| This output is from process                                           0
 GLOBAL| Stack size for threads created by OpenMP (OMP_STACKSIZE)        default
 GLOBAL| CPU model name           AMD Ryzen Threadripper 3970X 32-Core Processor
 GLOBAL| CPUID                                                              1002

 MEMORY| system memory details [Kb]
 MEMORY|                        rank 0           min           max       average
 MEMORY| MemTotal            131752136     131752136     131752136     131752136
 MEMORY| MemFree             114351080     114351080     114351080     114351080
 MEMORY| Buffers               1990832       1990832       1990832       1990832
 MEMORY| Cached                8616680       8616680       8616684       8616682
 MEMORY| Slab                  1638420       1638420       1638420       1638420
 MEMORY| SReclaimable          1142164       1142164       1142164       1142164
 MEMORY| MemLikelyFree       126100756     126100756     126100760     126100758


 GENERATE|  Preliminary Number of Bonds generated:                             0
 GENERATE|  Achieved consistency in connectivity generation.

 *******************************************************************************
 *******************************************************************************
 **                                                                           **
 **     #####                         ##              ##                      **
 **    ##   ##            ##          ##              ##                      **
 **   ##     ##                       ##            ######                    **
 **   ##     ##  ##   ##  ##   #####  ##  ##   ####   ##    #####    #####    **
 **   ##     ##  ##   ##  ##  ##      ## ##   ##      ##   ##   ##  ##   ##   **
 **   ##  ## ##  ##   ##  ##  ##      ####     ###    ##   ######   ######    **
 **    ##  ###   ##   ##  ##  ##      ## ##      ##   ##   ##       ##        **
 **     #######   #####   ##   #####  ##  ##  ####    ##    #####   ##        **
 **           ##                                                    ##        **
 **                                                                           **
 **                                                ... make the atoms dance   **
 **                                                                           **
 **            Copyright (C) by CP2K developers group (2000-2024)             **
 **                      J. Chem. Phys. 152, 194103 (2020)                    **
 **                                                                           **
 *******************************************************************************


 TOTAL NUMBERS AND MAXIMUM NUMBERS

  Total number of            - Atomic kinds:                                   2
                             - Atoms:                                        192
                             - Shell sets:                                   192
                             - Shells:                                       704
                             - Primitive Cartesian functions:               1344
                             - Cartesian basis functions:                   1536
                             - Spherical basis functions:                   1472

  Maximum angular momentum of- Orbital basis functions:                        2
                             - Local part of the GTH pseudopotential:          2
                             - Non-local part of the GTH pseudopotential:      0

 ------------------------------ Linear scaling SCF -----------------------------
 eps_scf:                                                              0.100E-07
 eps_filter:                                                           0.100E-11
 mixing_fraction:                                                      0.450E+00
 max_scf:                                                                     25
 fixed chemical potential (mu)                                                 F
 has unit metric:                                                              F
 Computing inv(S):                                                             T
 Computing sqrt(S):                                                            T
 Computing S preconditioner                                                    F
 S sqrt method:                                                     NEWTONSCHULZ
 S sqrt order:                                                                 3
 Extrapolation order:                                                          1
 S preconditioner type                                                      NONE
 Polarized Atomic Orbitals (PAO)                                               T
 Purification method                                   Trace resetting 4th order
 Cluster type                                                             ATOMIC
 Computing Chebyshev                                                       FALSE
 Using PAO                                                                     T
 -------------------------------------------------------------------------------

 
 PAO|                                  EPS_PAO                           0.5E-06
 PAO|                                  MIXING                            0.5E+00
 PAO|                                  MAX_PAO                              1500
 PAO|                                  MAX_CYCLES                           1000
 PAO|                                  PARAMETERIZATION              EQUIVARIANT
 PAO|                                  PRECONDITION                            F
 PAO|                                  REGULARIZATION                    0.0E+00
 PAO|                                  EPS_PGF                           0.1E-09
 PAO|                                  PENALTY_DISTANCE                  0.1E+00
 PAO|                                  PENALTY_STRENGTH                  0.5E-02
 PAO|                                  LINPOT_PRECONDITION_DELTA         0.0E+00
 PAO|                                  LINPOT_INITGUESS_DELT             0.0E+00
 PAO|                                  LINPOT_REGULARIZATION_DELTA       0.0E+00
 PAO|                                  LINPOT_REGULARIZATION_STRENGTH    0.0E+00
 PAO|                                  OPTIMIZER                              CG
 PAO|                                  CG_INIT_STEPS                           2
 PAO|                                  CG_RESET_LIMIT                    0.1E+00
 PAO|                                  CHECK_UNITARY_TOL                -0.1E+01
 PAO|                                  CHECK_GRADIENT_TOL               -0.1E+01
 PAO|                                  NUM_GRADIENT_ORDER                      2
 PAO|                                  NUM_GRADIENT_EPS                  0.1E-07
 PAO|                                  PRINT%RESTART%WRITE_CYCLES            100
 PAO|                                  RESTART_FILE 
 PAO|                                  PREOPT_DM_FILE 64H2O_ref_LS_DM_SPIN_1_RESTART.dm
 PAO|                                  MACHINE_LEARNING%METHOD       GAUSSIAN_PR
 PAO|                                  MACHINE_LEARNING%PRIOR               ZERO
 PAO|                                  MACHINE_LEARNING%DESCRIPTOR     POTENTIAL
 PAO|                                  MACHINE_LEARNING%TOLERANCE        0.1E-01
 PAO|                                  MACHINE_LEARNING%GP_NOISE_VAR     0.1E+00
 PAO|                                  MACHINE_LEARNING%GP_SCALE         0.5E-01
 

 Calculating atomic Fock matrix for atomic kind: O

 Electronic structure
    Total number of core electrons                                          2.00
    Total number of valence electrons                                       6.00
    Total number of electrons                                               8.00
    Multiplicity                                                   not specified
    S   [  2.00] 2.00
    P      4.00


 *******************************************************************************
                  Iteration          Convergence                     Energy [au]
 *******************************************************************************
                          1        0.708315                     -15.576645311500
                          2        0.608879                     -15.587933561584
                          3        0.102828E-01                 -15.656849565404
                          4        0.113889E-02                 -15.656866888140
                          5        0.434197E-03                 -15.656867072159
                          6        0.263771E-03                 -15.656867091904
                          7        0.478536E-06                 -15.656867103452

 Energy components [Hartree]           Total Energy ::          -15.656867103452
                                        Band Energy ::           -3.000198112285
                                     Kinetic Energy ::           11.759971203220
                                   Potential Energy ::          -27.416838306672
                                      Virial (-V/T) ::            2.331369510426
                                        Core Energy ::          -26.140716385623
                                          XC Energy ::           -3.154051012914
                                     Coulomb Energy ::           13.637900295084
                       Total Pseudopotential Energy ::          -37.935781716540
                       Local Pseudopotential Energy ::          -39.218907440693
                    Nonlocal Pseudopotential Energy ::            1.283125724153
                                        Confinement ::            0.350941276976

 Orbital energies  State     L     Occupation   Energy[a.u.]          Energy[eV]

                       1     0          2.000      -0.864471          -23.523463

                       1     1          4.000      -0.317814           -8.648154


 Total Electron Density at R=0:                                         0.000068

 Calculating atomic Fock matrix for atomic kind: H

 Electronic structure
    Total number of core electrons                                          0.00
    Total number of valence electrons                                       1.00
    Total number of electrons                                               1.00
    Multiplicity                                                   not specified
    S      1.00


 *******************************************************************************
                  Iteration          Convergence                     Energy [au]
 *******************************************************************************
                          1        0.437545E-02                  -0.424159432110
                          2        0.531356E-03                  -0.424178438213
                          3        0.259176E-06                  -0.424178722480

 Energy components [Hartree]           Total Energy ::           -0.424178722480
                                        Band Energy ::           -0.199015229016
                                     Kinetic Energy ::            0.464007633961
                                   Potential Energy ::           -0.888186356441
                                      Virial (-V/T) ::            1.914163240935
                                        Core Energy ::           -0.479160803564
                                          XC Energy ::           -0.244352904054
                                     Coulomb Energy ::            0.299334985138
                       Total Pseudopotential Energy ::           -0.962295316385
                       Local Pseudopotential Energy ::           -0.962295316385
                    Nonlocal Pseudopotential Energy ::            0.000000000000
                                        Confinement ::            0.191268788606

 Orbital energies  State     L     Occupation   Energy[a.u.]          Energy[eV]

                       1     0          1.000      -0.199015           -5.415480


 Total Electron Density at R=0:                                         0.242907
 PAO| Made initial guess for matrix_X with norm:   27.712812921102035     

     Lanczos converged:  T threshold:   0.100E-02
     Est. extremal eigenvalues:    0.633E+01   0.915E-01
     Est. condition number :    0.693E+02

 Order=           3
     NS sqrt iter    1 1.00000000   0.155E+01       0.021     2698.696
     NS sqrt iter    2 1.00000000   0.839E+00       0.034     3354.385
     NS sqrt iter    3 1.00000000   0.337E+00       0.034     3330.194
     NS sqrt iter    4 1.00000000   0.955E-01       0.034     3349.586
     NS sqrt iter    5 1.00000000   0.373E-02       0.034     3358.635
     NS sqrt iter    6 1.00000000   0.434E-06       0.029     2916.504
     Symmetrizing Results
     Final NS sqrt iter    6 1.00000000   0.339E-12

 PAO| Read restart DM 64H2O_ref_LS_DM_SPIN_1_RESTART.dm with checksum:    6215.7384215356615     
 PAO| Quickstep energy from restart density:  -1103.1340606518904     
 PAO| ======================= Iteration:         1 =============================

     Lanczos converged:  T threshold:   0.100E-02
     Est. extremal eigenvalues:    0.633E+01   0.915E-01
     Est. condition number :    0.693E+02

 Order=           3
     NS sqrt iter    1 1.00000000   0.155E+01       0.021     2721.399
     NS sqrt iter    2 1.00000000   0.839E+00       0.034     3369.597
     NS sqrt iter    3 1.00000000   0.337E+00       0.034     3359.702
     NS sqrt iter    4 1.00000000   0.955E-01       0.034     3369.104
     NS sqrt iter    5 1.00000000   0.373E-02       0.034     3371.463
     NS sqrt iter    6 1.00000000   0.434E-06       0.029     2925.276
     Symmetrizing Results
     Final NS sqrt iter    6 1.00000000   0.339E-12

     Est. extremal eigenvalues     -0.82097     2.64174  converged:  T
     TRS4 it   1 1.00000000   0.273E+02       0.007     2098.204   0.100E-11
     TRS4 it   2 1.00000000   0.237E+02       0.013     2195.069   0.100E-11
     TRS4 it   3 1.00000000   0.160E+02       0.013     2194.935   0.100E-11
     TRS4 it   4 1.00000000   0.100E+02       0.013     2204.398   0.100E-11
     TRS4 it   5 1.00000000   0.481E+01       0.013     2204.592   0.100E-11
     TRS4 it   6 1.00000000   0.160E+01       0.013     2194.659   0.100E-11
     TRS4 it   7 1.00000000   0.319E+00       0.013     2175.462   0.100E-11
     TRS4 it   8 1.00000000   0.239E-01       0.013     2207.657   0.100E-11
     TRS4 it   9 1.00000000   0.233E-03       0.013     2212.985   0.100E-11
     TRS4 it  10 1.00000000   0.211E-07       0.013     2187.951   0.100E-11
     TRS4 it  11 1.00000000   0.142E-13       0.013     2204.493   0.100E-11
     Final TRS4 iteration   11 1.00000000   0.142E-13
     Chemical potential (mu):       0.00832
 
 PAO| energy:  -186.95061339806648      penalty:   1.4421363423571621E-031
 PAO|CG| warming up with steepest descent
 PAO|CG| beta:    0.0000000000000000     
 PAO| norm of gradient:   3.9662114370973143     
 PAO|LS| adapt:  T F F
 PAO|LS| adapt: scan_steps:    0.0000000000000000        0.0000000000000000        0.0000000000000000     
 PAO|LS| adapt: energies:   -186.95061339806648        0.0000000000000000        0.0000000000000000     
 PAO| ======================= Iteration:         2 =============================

     Lanczos converged:  F threshold:   0.100E-02
     Est. extremal eigenvalues:    0.612E+01   0.978E-01
     Est. condition number :    0.626E+02

 Order=           3
     NS sqrt iter    1 1.00000000   0.151E+01       0.021     2715.782
     NS sqrt iter    2 1.00000000   0.810E+00       0.034     3365.586
     NS sqrt iter    3 1.00000000   0.317E+00       0.034     3365.386
     NS sqrt iter    4 1.00000000   0.808E-01       0.034     3373.013
     NS sqrt iter    5 1.00000000   0.237E-02       0.034     3357.914
     NS sqrt iter    6 1.00000000   0.131E-06       0.029     2933.345
     Symmetrizing Results
     Final NS sqrt iter    6 1.00000000   0.445E-13

     Est. extremal eigenvalues     -0.82422     2.63541  converged:  T
     TRS4 it   1 1.00000000   0.275E+02       0.007     2140.136   0.100E-11
     TRS4 it   2 1.00000000   0.237E+02       0.013     2232.569   0.100E-11
     TRS4 it   3 1.00000000   0.159E+02       0.013     2195.213   0.100E-11
     TRS4 it   4 1.00000000   0.980E+01       0.013     2219.199   0.100E-11
     TRS4 it   5 1.00000000   0.460E+01       0.013     2213.268   0.100E-11
     TRS4 it   6 1.00000000   0.147E+01       0.013     2213.812   0.100E-11
     TRS4 it   7 1.00000000   0.274E+00       0.013     2212.729   0.100E-11
     TRS4 it   8 1.00000000   0.174E-01       0.013     2229.234   0.100E-11
     TRS4 it   9 1.00000000   0.115E-03       0.013     2194.085   0.100E-11
     TRS4 it  10 1.00000000   0.563E-08       0.013     2216.954   0.100E-11
     TRS4 it  11 1.00000000   0.888E-14       0.013     2197.289   0.100E-11
     Final TRS4 iteration   11 1.00000000   0.888E-14
     Chemical potential (mu):       0.01368
 
 PAO| energy:  -188.39546412756536      penalty:   4.6582418758283444E-007
 PAO|LS| adapt:  T T F
 PAO|LS| adapt: scan_steps:    0.0000000000000000       0.10000000000000001        0.0000000000000000     
 PAO|LS| adapt: energies:   -186.95061339806648       -188.39546412756536        0.0000000000000000     
 PAO| ======================= Iteration:         3 =============================

     Lanczos converged:  F threshold:   0.100E-02
     Est. extremal eigenvalues:    0.590E+01   0.104E+00
     Est. condition number :    0.569E+02

 Order=           3
     NS sqrt iter    1 1.00000000   0.146E+01       0.021     2706.769
     NS sqrt iter    2 1.00000000   0.781E+00       0.033     3380.666
     NS sqrt iter    3 1.00000000   0.296E+00       0.033     3380.830
     NS sqrt iter    4 1.00000000   0.681E-01       0.034     3363.661
     NS sqrt iter    5 1.00000000   0.152E-02       0.034     3369.989
     NS sqrt iter    6 1.00000000   0.406E-07       0.029     2929.892
     Symmetrizing Results
     Final NS sqrt iter    6 1.00000000   0.498E-14

     Est. extremal eigenvalues     -0.82728     2.63263  converged:  T
     TRS4 it   1 1.00000000   0.278E+02       0.007     2135.896   0.100E-11
     TRS4 it   2 1.00000000   0.237E+02       0.013     2206.905   0.100E-11
     TRS4 it   3 1.00000000   0.158E+02       0.013     2212.908   0.100E-11
     TRS4 it   4 1.00000000   0.962E+01       0.013     2198.321   0.100E-11
     TRS4 it   5 1.00000000   0.440E+01       0.013     2186.208   0.100E-11
     TRS4 it   6 1.00000000   0.135E+01       0.013     2211.522   0.100E-11
     TRS4 it   7 1.00000000   0.234E+00       0.013     2230.456   0.100E-11
     TRS4 it   8 1.00000000   0.124E-01       0.013     2216.857   0.100E-11
     TRS4 it   9 1.00000000   0.531E-04       0.013     2197.105   0.100E-11
     TRS4 it  10 1.00000000   0.135E-08       0.013     2215.590   0.100E-11
     TRS4 it  11 1.00000000   0.124E-13       0.013     2208.644   0.100E-11
     Final TRS4 iteration   11 1.00000000   0.124E-13
     Chemical potential (mu):       0.01968
 
 PAO| energy:  -189.56771409430897      penalty:   7.4531870013931942E-006
 PAO|LS| adapt:  T T F
 PAO|LS| adapt: scan_steps:    0.0000000000000000       0.20000000000000001        0.0000000000000000     
 PAO|LS| adapt: energies:   -186.95061339806648       -189.56771409430897        0.0000000000000000     
 PAO| ======================= Iteration:         4 =============================

     Lanczos converged:  F threshold:   0.100E-02
     Est. extremal eigenvalues:    0.549E+01   0.115E+00
     Est. condition number :    0.479E+02

 Order=           3
     NS sqrt iter    1 1.00000000   0.138E+01       0.021     2701.562
     NS sqrt iter    2 1.00000000   0.724E+00       0.034     3376.660
     NS sqrt iter    3 1.00000000   0.259E+00       0.034     3371.477
     NS sqrt iter    4 1.00000000   0.483E-01       0.034     3369.184
     NS sqrt iter    5 1.00000000   0.642E-03       0.034     3370.124
     NS sqrt iter    6 1.00000000   0.396E-08       0.029     2897.341
     Symmetrizing Results
     Final NS sqrt iter    6 1.00000000   0.948E-14

     Est. extremal eigenvalues     -0.83224     2.63359  converged:  T
     TRS4 it   1 1.00000000   0.282E+02       0.007     2131.433   0.100E-11
     TRS4 it   2 1.00000000   0.237E+02       0.013     2210.890   0.100E-11
     TRS4 it   3 1.00000000   0.156E+02       0.013     2214.008   0.100E-11
     TRS4 it   4 1.00000000   0.929E+01       0.013     2197.733   0.100E-11
     TRS4 it   5 1.00000000   0.405E+01       0.013     2218.518   0.100E-11
     TRS4 it   6 1.00000000   0.114E+01       0.013     2207.439   0.100E-11
     TRS4 it   7 1.00000000   0.168E+00       0.013     2229.290   0.100E-11
     TRS4 it   8 1.00000000   0.604E-02       0.013     2208.133   0.100E-11
     TRS4 it   9 1.00000000   0.107E-04       0.013     2203.435   0.100E-11
     TRS4 it  10 1.00000000   0.660E-10       0.013     2199.542   0.100E-11
     Final TRS4 iteration   10 1.00000000   0.660E-10
     Chemical potential (mu):       0.03794
 
 PAO| energy:  -191.05286505746184      penalty:   1.1925099202283321E-004
 PAO|LS| Need extra step
 PAO|LS| adapt:  T T F
 PAO|LS| adapt: scan_steps:    0.0000000000000000       0.40000000000000002        0.0000000000000000     
 PAO|LS| adapt: energies:   -186.95061339806648       -191.05286505746184        0.0000000000000000     
 PAO| ======================= Iteration:         5 =============================

     Lanczos converged:  F threshold:   0.100E-02
     Est. extremal eigenvalues:    0.480E+01   0.130E+00
     Est. condition number :    0.370E+02

 Order=           3
     NS sqrt iter    1 1.00000000   0.125E+01       0.021     2685.681
     NS sqrt iter    2 1.00000000   0.631E+00       0.033     3391.937
     NS sqrt iter    3 1.00000000   0.200E+00       0.034     3360.280
     NS sqrt iter    4 1.00000000   0.255E-01       0.034     3375.736
     NS sqrt iter    5 1.00000000   0.125E-03       0.034     3337.518
     NS sqrt iter    6 1.00000000   0.421E-10       0.021     2354.060
     Symmetrizing Results
     Final NS sqrt iter    6 1.00000000   0.212E-11

     Est. extremal eigenvalues     -0.83532     2.63100  converged:  T
     TRS4 it   1 1.00000000   0.288E+02       0.007     2138.464   0.100E-11
     TRS4 it   2 1.00000000   0.237E+02       0.013     2215.845   0.100E-11
     TRS4 it   3 1.00000000   0.154E+02       0.013     2202.784   0.100E-11
     TRS4 it   4 1.00000000   0.881E+01       0.013     2196.873   0.100E-11
     TRS4 it   5 1.00000000   0.354E+01       0.013     2190.979   0.100E-11
     TRS4 it   6 1.00000000   0.850E+00       0.013     2197.738   0.100E-11
     TRS4 it   7 1.00000000   0.937E-01       0.013     2194.058   0.100E-11
     TRS4 it   8 1.00000000   0.175E-02       0.013     2215.156   0.100E-11
     TRS4 it   9 1.00000000   0.803E-06       0.013     2223.937   0.100E-11
     TRS4 it  10 1.00000000   0.400E-12       0.013     2216.220   0.100E-11
     Final TRS4 iteration   10 1.00000000   0.400E-12
     Chemical potential (mu):       0.05973
 
 PAO| energy:  -190.71173146956306      penalty:   1.9080158723696827E-003
 PAO|LS| Need extra step
 PAO|LS| adapt:  T T T
 PAO|LS| adapt: scan_steps:    0.0000000000000000       0.40000000000000002       0.80000000000000004     
 PAO|LS| adapt: energies:   -186.95061339806648       -191.05286505746184       -190.71173146956306     
 PAO|LS| adapt: suggested step_size:   0.56929065845852389     
 PAO|LS| adapt: predicted energy  -191.45081640425178     
 PAO| ======================= Iteration:         6 =============================

     Lanczos converged:  F threshold:   0.100E-02
     Est. extremal eigenvalues:    0.517E+01   0.122E+00
     Est. condition number :    0.422E+02

 Order=           3
     NS sqrt iter    1 1.00000000   0.132E+01       0.021     2715.441
     NS sqrt iter    2 1.00000000   0.681E+00       0.034     3375.373
     NS sqrt iter    3 1.00000000   0.231E+00       0.034     3348.044
     NS sqrt iter    4 1.00000000   0.365E-01       0.034     3347.549
     NS sqrt iter    5 1.00000000   0.316E-03       0.034     3350.322
     NS sqrt iter    6 1.00000000   0.557E-09       0.028     2785.098
     Symmetrizing Results
     Final NS sqrt iter    6 1.00000000   0.124E-12

     Est. extremal eigenvalues     -0.83480     2.63423  converged:  T
     TRS4 it   1 1.00000000   0.284E+02       0.007     2114.765   0.100E-11
     TRS4 it   2 1.00000000   0.237E+02       0.013     2205.677   0.100E-11
     TRS4 it   3 1.00000000   0.155E+02       0.013     2215.468   0.100E-11
     TRS4 it   4 1.00000000   0.906E+01       0.013     2180.322   0.100E-11
     TRS4 it   5 1.00000000   0.380E+01       0.013     2202.005   0.100E-11
     TRS4 it   6 1.00000000   0.995E+00       0.013     2218.614   0.100E-11
     TRS4 it   7 1.00000000   0.129E+00       0.013     2223.412   0.100E-11
     TRS4 it   8 1.00000000   0.339E-02       0.013     2194.474   0.100E-11
     TRS4 it   9 1.00000000   0.313E-05       0.013     2207.415   0.100E-11
     TRS4 it  10 1.00000000   0.591E-11       0.013     2213.486   0.100E-11
     Final TRS4 iteration   10 1.00000000   0.591E-11
     Chemical potential (mu):       0.04806
 
 PAO| energy:  -191.42417804744400      penalty:   4.8928090292803717E-004
 PAO|CG| warming up with steepest descent
 PAO|CG| beta:    0.0000000000000000     
 PAO| norm of gradient:   2.0855205456283361     
 PAO| energy improvement:  -4.4735646493775221     
 PAO| step      6                 -191.424178047  0.407E-02  0.569E+00     2.428
 PAO|LS| adapt:  T F F
 PAO|LS| adapt: scan_steps:    0.0000000000000000        0.0000000000000000        0.0000000000000000     
 PAO|LS| adapt: energies:   -191.42417804744400        0.0000000000000000        0.0000000000000000     
 PAO| ======================= Iteration:         7 =============================

     Lanczos converged:  F threshold:   0.100E-02
     Est. extremal eigenvalues:    0.501E+01   0.129E+00
     Est. condition number :    0.389E+02

 Order=           3
     NS sqrt iter    1 1.00000000   0.129E+01       0.021     2702.373
     NS sqrt iter    2 1.00000000   0.656E+00       0.034     3378.907
     NS sqrt iter    3 1.00000000   0.214E+00       0.034     3367.115
     NS sqrt iter    4 1.00000000   0.297E-01       0.033     3381.055
     NS sqrt iter    5 1.00000000   0.181E-03       0.033     3384.404
     NS sqrt iter    6 1.00000000   0.112E-09       0.026     2520.052
     Symmetrizing Results
     Final NS sqrt iter    6 1.00000000   0.146E-11

     Est. extremal eigenvalues     -0.83482     2.62402  converged:  T
     TRS4 it   1 1.00000000   0.285E+02       0.007     2141.676   0.100E-11
     TRS4 it   2 1.00000000   0.237E+02       0.013     2207.253   0.100E-11
     TRS4 it   3 1.00000000   0.156E+02       0.013     2194.931   0.100E-11
     TRS4 it   4 1.00000000   0.918E+01       0.013     2200.450   0.100E-11
     TRS4 it   5 1.00000000   0.389E+01       0.013     2202.552   0.100E-11
     TRS4 it   6 1.00000000   0.102E+01       0.013     2206.129   0.100E-11
     TRS4 it   7 1.00000000   0.129E+00       0.013     2215.352   0.100E-11
     TRS4 it   8 1.00000000   0.337E-02       0.013     2205.245   0.100E-11
     TRS4 it   9 1.00000000   0.311E-05       0.013     2208.219   0.100E-11
     TRS4 it  10 1.00000000   0.614E-11       0.013     2212.903   0.100E-11
     Final TRS4 iteration   10 1.00000000   0.614E-11
     Chemical potential (mu):       0.05063
 
 PAO| energy:  -190.50708021762665      penalty:   6.8383185982286675E-004
 PAO|LS| adapt:  T F T
 PAO|LS| adapt: scan_steps:    0.0000000000000000        0.0000000000000000       0.56929065845852389     
 PAO|LS| adapt: energies:   -191.42417804744400        0.0000000000000000       -190.50708021762665     
 PAO| ======================= Iteration:         8 =============================

     Lanczos converged:  F threshold:   0.100E-02
     Est. extremal eigenvalues:    0.509E+01   0.125E+00
     Est. condition number :    0.406E+02

 Order=           3
     NS sqrt iter    1 1.00000000   0.130E+01       0.021     2705.059
     NS sqrt iter    2 1.00000000   0.668E+00       0.034     3350.871
     NS sqrt iter    3 1.00000000   0.223E+00       0.034     3348.653
     NS sqrt iter    4 1.00000000   0.330E-01       0.034     3368.347
     NS sqrt iter    5 1.00000000   0.240E-03       0.034     3330.243
     NS sqrt iter    6 1.00000000   0.254E-09       0.028     2672.125
     Symmetrizing Results
     Final NS sqrt iter    6 1.00000000   0.602E-12

     Est. extremal eigenvalues     -0.83598     2.62974  converged:  T
     TRS4 it   1 1.00000000   0.285E+02       0.007     2103.682   0.100E-11
     TRS4 it   2 1.00000000   0.237E+02       0.013     2193.838   0.100E-11
     TRS4 it   3 1.00000000   0.155E+02       0.013     2225.871   0.100E-11
     TRS4 it   4 1.00000000   0.909E+01       0.013     2196.943   0.100E-11
     TRS4 it   5 1.00000000   0.382E+01       0.013     2205.081   0.100E-11
     TRS4 it   6 1.00000000   0.998E+00       0.013     2210.591   0.100E-11
     TRS4 it   7 1.00000000   0.128E+00       0.013     2201.885   0.100E-11
     TRS4 it   8 1.00000000   0.336E-02       0.013     2225.377   0.100E-11
     TRS4 it   9 1.00000000   0.307E-05       0.013     2223.256   0.100E-11
     TRS4 it  10 1.00000000   0.568E-11       0.013     2231.491   0.100E-11
     Final TRS4 iteration   10 1.00000000   0.568E-11
     Chemical potential (mu):       0.04818
 
 PAO| energy:  -191.80042222004434      penalty:   5.1822714117803997E-004
 PAO|LS| adapt:  T T T
 PAO|LS| adapt: scan_steps:    0.0000000000000000       0.28464532922926195       0.56929065845852389     
 PAO|LS| adapt: energies:   -191.42417804744400       -191.80042222004434       -190.50708021762665     
 PAO|LS| adapt: suggested step_size:   0.20646798875715872     
 PAO|LS| adapt: predicted energy  -191.86339204769089     
 PAO| ======================= Iteration:         9 =============================

     Lanczos converged:  F threshold:   0.100E-02
     Est. extremal eigenvalues:    0.511E+01   0.124E+00
     Est. condition number :    0.411E+02

 Order=           3
     NS sqrt iter    1 1.00000000   0.131E+01       0.021     2704.128
     NS sqrt iter    2 1.00000000   0.672E+00       0.033     3382.651
     NS sqrt iter    3 1.00000000   0.225E+00       0.034     3350.330
     NS sqrt iter    4 1.00000000   0.339E-01       0.034     3366.373
     NS sqrt iter    5 1.00000000   0.259E-03       0.034     3360.722
     NS sqrt iter    6 1.00000000   0.316E-09       0.028     2690.561
     Symmetrizing Results
     Final NS sqrt iter    6 1.00000000   0.417E-12

     Est. extremal eigenvalues     -0.83590     2.63110  converged:  T
     TRS4 it   1 1.00000000   0.285E+02       0.007     2149.067   0.100E-11
     TRS4 it   2 1.00000000   0.237E+02       0.013     2198.153   0.100E-11
     TRS4 it   3 1.00000000   0.155E+02       0.013     2195.109   0.100E-11
     TRS4 it   4 1.00000000   0.908E+01       0.013     2204.801   0.100E-11
     TRS4 it   5 1.00000000   0.381E+01       0.013     2198.287   0.100E-11
     TRS4 it   6 1.00000000   0.996E+00       0.013     2181.159   0.100E-11
     TRS4 it   7 1.00000000   0.128E+00       0.013     2206.291   0.100E-11
     TRS4 it   8 1.00000000   0.336E-02       0.013     2197.557   0.100E-11
     TRS4 it   9 1.00000000   0.308E-05       0.013     2211.006   0.100E-11
     TRS4 it  10 1.00000000   0.567E-11       0.013     2206.996   0.100E-11
     Final TRS4 iteration   10 1.00000000   0.567E-11
     Chemical potential (mu):       0.04792
 
 PAO| energy:  -191.86767018296109      penalty:   5.0110319401276053E-004
 PAO|CG| trace_G_new   0.72223063327310588     
 PAO|CG| trace_G_prev    4.3493959462379124     
 PAO|CG| trace_G_mix   -4.1832393179833130E-002
 PAO|CG| trace_D    4.3493959462379124     
 PAO|CG| trace_D_Gnew   4.1832393179833130E-002
 PAO|CG| beta:   0.17567106694754450     
 PAO| norm of gradient:  0.84984153421276476     
 PAO| energy improvement: -0.44349213551708999     
 PAO| step      9                 -191.867670183  0.166E-02  0.206E+00     1.506
 PAO|LS| adapt:  T F F
 PAO|LS| adapt: scan_steps:    0.0000000000000000        0.0000000000000000        0.0000000000000000     
 PAO|LS| adapt: energies:   -191.86767018296109        0.0000000000000000        0.0000000000000000     
 PAO| ======================= Iteration:        10 =============================

     Lanczos converged:  F threshold:   0.100E-02
     Est. extremal eigenvalues:    0.506E+01   0.128E+00
     Est. condition number :    0.396E+02

 Order=           3
     NS sqrt iter    1 1.00000000   0.130E+01       0.021     2706.235
     NS sqrt iter    2 1.00000000   0.663E+00       0.033     3383.750
     NS sqrt iter    3 1.00000000   0.219E+00       0.034     3374.659
     NS sqrt iter    4 1.00000000   0.316E-01       0.034     3371.606
     NS sqrt iter    5 1.00000000   0.209E-03       0.034     3363.348
     NS sqrt iter    6 1.00000000   0.168E-09       0.027     2583.162
     Symmetrizing Results
     Final NS sqrt iter    6 1.00000000   0.109E-11

     Est. extremal eigenvalues     -0.83641     2.61574  converged:  T
     TRS4 it   1 1.00000000   0.285E+02       0.007     2126.620   0.100E-11
     TRS4 it   2 1.00000000   0.236E+02       0.013     2225.838   0.100E-11
     TRS4 it   3 1.00000000   0.155E+02       0.013     2205.930   0.100E-11
     TRS4 it   4 1.00000000   0.906E+01       0.013     2201.964   0.100E-11
     TRS4 it   5 1.00000000   0.379E+01       0.013     2203.024   0.100E-11
     TRS4 it   6 1.00000000   0.983E+00       0.013     2217.442   0.100E-11
     TRS4 it   7 1.00000000   0.125E+00       0.013     2188.809   0.100E-11
     TRS4 it   8 1.00000000   0.318E-02       0.013     2181.109   0.100E-11
     TRS4 it   9 1.00000000   0.275E-05       0.013     2214.956   0.100E-11
     TRS4 it  10 1.00000000   0.452E-11       0.013     2208.263   0.100E-11
     Final TRS4 iteration   10 1.00000000   0.452E-11
     Chemical potential (mu):       0.04874
 
 PAO| energy:  -191.96715370908731      penalty:   5.0333084348333458E-004
 PAO|LS| adapt:  T T F
 PAO|LS| adapt: scan_steps:    0.0000000000000000       0.20646798875715872        0.0000000000000000     
 PAO|LS| adapt: energies:   -191.86767018296109       -191.96715370908731        0.0000000000000000     
 PAO| ======================= Iteration:        11 =============================

     Lanczos converged:  F threshold:   0.100E-02
     Est. extremal eigenvalues:    0.501E+01   0.131E+00
     Est. condition number :    0.382E+02

 Order=           3
     NS sqrt iter    1 1.00000000   0.129E+01       0.021     2713.647
     NS sqrt iter    2 1.00000000   0.655E+00       0.033     3380.970
     NS sqrt iter    3 1.00000000   0.214E+00       0.034     3378.261
     NS sqrt iter    4 1.00000000   0.294E-01       0.034     3373.390
     NS sqrt iter    5 1.00000000   0.169E-03       0.034     3378.132
     NS sqrt iter    6 1.00000000   0.879E-10       0.024     2484.949
     Symmetrizing Results
     Final NS sqrt iter    6 1.00000000   0.177E-11

     Est. extremal eigenvalues     -0.83649     2.59994  converged:  T
     TRS4 it   1 1.00000000   0.284E+02       0.007     2138.226   0.100E-11
     TRS4 it   2 1.00000000   0.235E+02       0.013     2210.885   0.100E-11
     TRS4 it   3 1.00000000   0.155E+02       0.013     2195.057   0.100E-11
     TRS4 it   4 1.00000000   0.903E+01       0.013     2198.523   0.100E-11
     TRS4 it   5 1.00000000   0.376E+01       0.013     2217.002   0.100E-11
     TRS4 it   6 1.00000000   0.968E+00       0.013     2214.509   0.100E-11
     TRS4 it   7 1.00000000   0.121E+00       0.013     2203.626   0.100E-11
     TRS4 it   8 1.00000000   0.299E-02       0.013     2236.485   0.100E-11
     TRS4 it   9 1.00000000   0.241E-05       0.013     2175.688   0.100E-11
     TRS4 it  10 1.00000000   0.343E-11       0.013     2199.340   0.100E-11
     Final TRS4 iteration   10 1.00000000   0.343E-11
     Chemical potential (mu):       0.04967
 
 PAO| energy:  -191.97300955708778      penalty:   5.1546783066591022E-004
 PAO|LS| adapt:  T T F
 PAO|LS| adapt: scan_steps:    0.0000000000000000       0.41293597751431743        0.0000000000000000     
 PAO|LS| adapt: energies:   -191.86767018296109       -191.97300955708778        0.0000000000000000     
 PAO| ======================= Iteration:        12 =============================

     Lanczos converged:  F threshold:   0.100E-02
     Est. extremal eigenvalues:    0.491E+01   0.138E+00
     Est. condition number :    0.356E+02

 Order=           3
     NS sqrt iter    1 1.00000000   0.127E+01       0.021     2703.077
     NS sqrt iter    2 1.00000000   0.639E+00       0.033     3387.345
     NS sqrt iter    3 1.00000000   0.203E+00       0.034     3367.503
     NS sqrt iter    4 1.00000000   0.254E-01       0.033     3390.028
     NS sqrt iter    5 1.00000000   0.109E-03       0.034     3373.548
     NS sqrt iter    6 1.00000000   0.235E-10       0.018     2197.452
     Symmetrizing Results
     Final NS sqrt iter    6 1.00000000   0.216E-11

     Est. extremal eigenvalues     -0.83547     2.56761  converged:  T
     TRS4 it   1 1.00000000   0.284E+02       0.007     2101.799   0.100E-11
     TRS4 it   2 1.00000000   0.233E+02       0.013     2206.474   0.100E-11
     TRS4 it   3 1.00000000   0.154E+02       0.013     2212.509   0.100E-11
     TRS4 it   4 1.00000000   0.896E+01       0.013     2188.778   0.100E-11
     TRS4 it   5 1.00000000   0.370E+01       0.013     2204.828   0.100E-11
     TRS4 it   6 1.00000000   0.932E+00       0.013     2189.319   0.100E-11
     TRS4 it   7 1.00000000   0.112E+00       0.013     2221.873   0.100E-11
     TRS4 it   8 1.00000000   0.257E-02       0.013     2202.516   0.100E-11
     TRS4 it   9 1.00000000   0.178E-05       0.013     2179.613   0.100E-11
     TRS4 it  10 1.00000000   0.193E-11       0.013     2196.546   0.100E-11
     Final TRS4 iteration   10 1.00000000   0.193E-11
     Chemical potential (mu):       0.05173
 
 PAO| energy:  -191.72027725768871      penalty:   5.7647840905725709E-004
 PAO|LS| Need extra step
 PAO|LS| adapt:  T T T
 PAO|LS| adapt: scan_steps:    0.0000000000000000       0.41293597751431743       0.82587195502863486     
 PAO|LS| adapt: energies:   -191.86767018296109       -191.97300955708778       -191.72027725768871     
 PAO|LS| adapt: suggested step_size:   0.32794762716988707     
 PAO|LS| adapt: predicted energy  -191.98059346976035     
 PAO| ======================= Iteration:        13 =============================

     Lanczos converged:  F threshold:   0.100E-02
     Est. extremal eigenvalues:    0.503E+01   0.130E+00
     Est. condition number :    0.388E+02

 Order=           3
     NS sqrt iter    1 1.00000000   0.129E+01       0.021     2686.913
     NS sqrt iter    2 1.00000000   0.658E+00       0.034     3378.477
     NS sqrt iter    3 1.00000000   0.216E+00       0.034     3373.752
     NS sqrt iter    4 1.00000000   0.303E-01       0.034     3360.875
     NS sqrt iter    5 1.00000000   0.185E-03       0.034     3363.141
     NS sqrt iter    6 1.00000000   0.115E-09       0.026     2499.033
     Symmetrizing Results
     Final NS sqrt iter    6 1.00000000   0.150E-11

     Est. extremal eigenvalues     -0.83651     2.60649  converged:  T
     TRS4 it   1 1.00000000   0.284E+02       0.007     2134.707   0.100E-11
     TRS4 it   2 1.00000000   0.236E+02       0.013     2206.028   0.100E-11
     TRS4 it   3 1.00000000   0.155E+02       0.013     2185.006   0.100E-11
     TRS4 it   4 1.00000000   0.904E+01       0.013     2202.129   0.100E-11
     TRS4 it   5 1.00000000   0.378E+01       0.013     2229.215   0.100E-11
     TRS4 it   6 1.00000000   0.974E+00       0.013     2223.042   0.100E-11
     TRS4 it   7 1.00000000   0.122E+00       0.013     2209.844   0.100E-11
     TRS4 it   8 1.00000000   0.307E-02       0.013     2200.794   0.100E-11
     TRS4 it   9 1.00000000   0.255E-05       0.013     2219.336   0.100E-11
     TRS4 it  10 1.00000000   0.389E-11       0.013     2205.202   0.100E-11
     Final TRS4 iteration   10 1.00000000   0.389E-11
     Chemical potential (mu):       0.04928
 
 PAO| energy:  -191.98168013788833      penalty:   5.0919125547040068E-004
 PAO|CG| trace_G_new   0.27804383949746131     
 PAO|CG| trace_G_prev   0.72223063327310588     
 PAO|CG| trace_G_mix   -1.1593860359434405E-002
 PAO|CG| trace_D   0.84175691805952269     
 PAO|CG| trace_D_Gnew   1.1603610067080465E-002
 PAO|CG| beta:   0.40103214473785892     
 PAO| norm of gradient:  0.52729862459280252     
 PAO| energy improvement: -0.11400995492724064     
 PAO| step     13                 -191.981680138  0.103E-02  0.328E+00     1.938
 PAO|LS| adapt:  T F F
 PAO|LS| adapt: scan_steps:    0.0000000000000000        0.0000000000000000        0.0000000000000000     
 PAO|LS| adapt: energies:   -191.98168013788833        0.0000000000000000        0.0000000000000000     
 PAO| ======================= Iteration:        14 =============================

     Lanczos converged:  F threshold:   0.100E-02
     Est. extremal eigenvalues:    0.495E+01   0.132E+00
     Est. condition number :    0.375E+02

 Order=           3
     NS sqrt iter    1 1.00000000   0.128E+01       0.021     2708.650
     NS sqrt iter    2 1.00000000   0.647E+00       0.034     3364.941
     NS sqrt iter    3 1.00000000   0.210E+00       0.034     3356.239
     NS sqrt iter    4 1.00000000   0.280E-01       0.034     3351.739
     NS sqrt iter    5 1.00000000   0.148E-03       0.034     3347.045
     NS sqrt iter    6 1.00000000   0.608E-10       0.023     2385.069
     Symmetrizing Results
     Final NS sqrt iter    6 1.00000000   0.209E-11

     Est. extremal eigenvalues     -0.83693     2.60211  converged:  T
     TRS4 it   1 1.00000000   0.285E+02       0.007     2127.027   0.100E-11
     TRS4 it   2 1.00000000   0.235E+02       0.013     2200.871   0.100E-11
     TRS4 it   3 1.00000000   0.155E+02       0.013     2201.446   0.100E-11
     TRS4 it   4 1.00000000   0.899E+01       0.013     2200.891   0.100E-11
     TRS4 it   5 1.00000000   0.372E+01       0.013     2202.709   0.100E-11
     TRS4 it   6 1.00000000   0.945E+00       0.013     2196.887   0.100E-11
     TRS4 it   7 1.00000000   0.115E+00       0.013     2207.724   0.100E-11
     TRS4 it   8 1.00000000   0.272E-02       0.013     2204.975   0.100E-11
     TRS4 it   9 1.00000000   0.199E-05       0.013     2198.509   0.100E-11
     TRS4 it  10 1.00000000   0.237E-11       0.013     2209.834   0.100E-11
     Final TRS4 iteration   10 1.00000000   0.237E-11
     Chemical potential (mu):       0.05119
 
 PAO| energy:  -192.03362097011663      penalty:   5.1098166288115077E-004
 PAO|LS| adapt:  T T F
 PAO|LS| adapt: scan_steps:    0.0000000000000000       0.32794762716988707        0.0000000000000000     
 PAO|LS| adapt: energies:   -191.98168013788833       -192.03362097011663        0.0000000000000000     
 PAO| ======================= Iteration:        15 =============================

     Lanczos converged:  F threshold:   0.100E-02
     Est. extremal eigenvalues:    0.488E+01   0.134E+00
     Est. condition number :    0.363E+02

 Order=           3
     NS sqrt iter    1 1.00000000   0.126E+01       0.021     2682.262
     NS sqrt iter    2 1.00000000   0.637E+00       0.033     3386.226
     NS sqrt iter    3 1.00000000   0.203E+00       0.034     3360.889
     NS sqrt iter    4 1.00000000   0.259E-01       0.034     3330.996
     NS sqrt iter    5 1.00000000   0.120E-03       0.034     3343.820
     NS sqrt iter    6 1.00000000   0.325E-10       0.020     2272.655
     Symmetrizing Results
     Final NS sqrt iter    6 1.00000000   0.219E-11

     Est. extremal eigenvalues     -0.83699     2.59749  converged:  T
     TRS4 it   1 1.00000000   0.285E+02       0.007     2149.674   0.100E-11
     TRS4 it   2 1.00000000   0.235E+02       0.013     2180.887   0.100E-11
     TRS4 it   3 1.00000000   0.155E+02       0.013     2195.097   0.100E-11
     TRS4 it   4 1.00000000   0.893E+01       0.013     2189.432   0.100E-11
     TRS4 it   5 1.00000000   0.367E+01       0.013     2195.157   0.100E-11
     TRS4 it   6 1.00000000   0.916E+00       0.013     2205.792   0.100E-11
     TRS4 it   7 1.00000000   0.109E+00       0.013     2197.564   0.100E-11
     TRS4 it   8 1.00000000   0.241E-02       0.013     2206.719   0.100E-11
     TRS4 it   9 1.00000000   0.156E-05       0.013     2197.226   0.100E-11
     TRS4 it  10 1.00000000   0.147E-11       0.013     2198.789   0.100E-11
     Final TRS4 iteration   10 1.00000000   0.147E-11
     Chemical potential (mu):       0.05300
 
 PAO| energy:  -192.01124371487464      penalty:   5.2786494351934172E-004
 PAO|LS| adapt:  T T T
 PAO|LS| adapt: scan_steps:    0.0000000000000000       0.32794762716988707       0.65589525433977414     
 PAO|LS| adapt: energies:   -191.98168013788833       -192.03362097011663       -192.01124371487464     
 PAO|LS| adapt: suggested step_size:   0.39317606114424891     
 PAO|LS| adapt: predicted energy  -192.03509101111536     
 PAO| ======================= Iteration:        16 =============================

     Lanczos converged:  F threshold:   0.100E-02
     Est. extremal eigenvalues:    0.494E+01   0.132E+00
     Est. condition number :    0.373E+02

 Order=           3
     NS sqrt iter    1 1.00000000   0.127E+01       0.021     2693.930
     NS sqrt iter    2 1.00000000   0.645E+00       0.034     3353.094
     NS sqrt iter    3 1.00000000   0.208E+00       0.034     3372.415
     NS sqrt iter    4 1.00000000   0.276E-01       0.034     3360.056
     NS sqrt iter    5 1.00000000   0.142E-03       0.034     3347.875
     NS sqrt iter    6 1.00000000   0.537E-10       0.022     2372.341
     Symmetrizing Results
     Final NS sqrt iter    6 1.00000000   0.213E-11

     Est. extremal eigenvalues     -0.83697     2.60120  converged:  T
     TRS4 it   1 1.00000000   0.285E+02       0.007     2147.410   0.100E-11
     TRS4 it   2 1.00000000   0.235E+02       0.013     2205.982   0.100E-11
     TRS4 it   3 1.00000000   0.155E+02       0.013     2211.043   0.100E-11
     TRS4 it   4 1.00000000   0.898E+01       0.013     2190.976   0.100E-11
     TRS4 it   5 1.00000000   0.371E+01       0.013     2190.544   0.100E-11
     TRS4 it   6 1.00000000   0.939E+00       0.013     2182.036   0.100E-11
     TRS4 it   7 1.00000000   0.114E+00       0.013     2204.282   0.100E-11
     TRS4 it   8 1.00000000   0.265E-02       0.013     2227.530   0.100E-11
     TRS4 it   9 1.00000000   0.189E-05       0.013     2217.118   0.100E-11
     TRS4 it  10 1.00000000   0.216E-11       0.013     2180.539   0.100E-11
     Final TRS4 iteration   10 1.00000000   0.216E-11
     Chemical potential (mu):       0.05156
 
 PAO| energy:  -192.03503663637605      penalty:   5.1309040221358233E-004
 PAO|CG| trace_G_new   0.10650370764489490     
 PAO|CG| trace_G_prev   0.27804383949746131     
 PAO|CG| trace_G_mix    4.2913205153218784E-003
 PAO|CG| trace_D   0.40411405384480703     
 PAO|CG| trace_D_Gnew   7.6765590673159119E-004
 PAO|CG| beta:   0.36761248626947651     
 PAO| norm of gradient:  0.32634905798070707     
 PAO| energy improvement:  -5.3356498487715953E-002
 PAO| step     16                 -192.035036636  0.637E-03  0.393E+00     1.491
 PAO|LS| adapt:  T F F
 PAO|LS| adapt: scan_steps:    0.0000000000000000        0.0000000000000000        0.0000000000000000     
 PAO|LS| adapt: energies:   -192.03503663637605        0.0000000000000000        0.0000000000000000     
 PAO| ======================= Iteration:        17 =============================

     Lanczos converged:  F threshold:   0.100E-02
     Est. extremal eigenvalues:    0.490E+01   0.133E+00
     Est. condition number :    0.367E+02

 Order=           3
     NS sqrt iter    1 1.00000000   0.126E+01       0.021     2672.990
     NS sqrt iter    2 1.00000000   0.640E+00       0.034     3377.449
     NS sqrt iter    3 1.00000000   0.206E+00       0.034     3376.421
     NS sqrt iter    4 1.00000000   0.266E-01       0.034     3361.560
     NS sqrt iter    5 1.00000000   0.130E-03       0.034     3327.568
     NS sqrt iter    6 1.00000000   0.411E-10       0.021     2318.271
     Symmetrizing Results
     Final NS sqrt iter    6 1.00000000   0.223E-11

     Est. extremal eigenvalues     -0.83702     2.59865  converged:  T
     TRS4 it   1 1.00000000   0.285E+02       0.007     2139.506   0.100E-11
     TRS4 it   2 1.00000000   0.235E+02       0.013     2192.529   0.100E-11
     TRS4 it   3 1.00000000   0.154E+02       0.013     2201.684   0.100E-11
     TRS4 it   4 1.00000000   0.893E+01       0.013     2207.746   0.100E-11
     TRS4 it   5 1.00000000   0.367E+01       0.013     2195.985   0.100E-11
     TRS4 it   6 1.00000000   0.919E+00       0.013     2208.947   0.100E-11
     TRS4 it   7 1.00000000   0.109E+00       0.013     2175.988   0.100E-11
     TRS4 it   8 1.00000000   0.244E-02       0.013     2193.921   0.100E-11
     TRS4 it   9 1.00000000   0.159E-05       0.013     2212.596   0.100E-11
     TRS4 it  10 1.00000000   0.154E-11       0.013     2219.428   0.100E-11
     Final TRS4 iteration   10 1.00000000   0.154E-11
     Chemical potential (mu):       0.05277
 
 PAO| energy:  -192.03958523523553      penalty:   5.0577221916238229E-004
 PAO|LS| adapt:  T T F
 PAO|LS| adapt: scan_steps:    0.0000000000000000       0.39317606114424891        0.0000000000000000     
 PAO|LS| adapt: energies:   -192.03503663637605       -192.03958523523553        0.0000000000000000     
 PAO| ======================= Iteration:        18 =============================

     Lanczos converged:  F threshold:   0.100E-02
     Est. extremal eigenvalues:    0.485E+01   0.134E+00
     Est. condition number :    0.362E+02

 Order=           3
     NS sqrt iter    1 1.00000000   0.125E+01       0.021     2689.142
     NS sqrt iter    2 1.00000000   0.634E+00       0.033     3386.045
     NS sqrt iter    3 1.00000000   0.203E+00       0.034     3349.927
     NS sqrt iter    4 1.00000000   0.258E-01       0.034     3369.339
     NS sqrt iter    5 1.00000000   0.118E-03       0.034     3370.371
     NS sqrt iter    6 1.00000000   0.317E-10       0.020     2258.386
     Symmetrizing Results
     Final NS sqrt iter    6 1.00000000   0.219E-11

     Est. extremal eigenvalues     -0.83692     2.59590  converged:  T
     TRS4 it   1 1.00000000   0.285E+02       0.007     2128.220   0.100E-11
     TRS4 it   2 1.00000000   0.235E+02       0.013     2211.328   0.100E-11
     TRS4 it   3 1.00000000   0.154E+02       0.013     2225.704   0.100E-11
     TRS4 it   4 1.00000000   0.888E+01       0.013     2229.079   0.100E-11
     TRS4 it   5 1.00000000   0.362E+01       0.013     2221.503   0.100E-11
     TRS4 it   6 1.00000000   0.899E+00       0.013     2223.702   0.100E-11
     TRS4 it   7 1.00000000   0.105E+00       0.013     2214.625   0.100E-11
     TRS4 it   8 1.00000000   0.224E-02       0.013     2210.354   0.100E-11
     TRS4 it   9 1.00000000   0.135E-05       0.013     2204.242   0.100E-11
     TRS4 it  10 1.00000000   0.108E-11       0.013     2209.963   0.100E-11
     Final TRS4 iteration   10 1.00000000   0.108E-11
     Chemical potential (mu):       0.05403
 
 PAO| energy:  -191.96958080113683      penalty:   5.0627562927188887E-004
 PAO|LS| adapt:  T T T
 PAO|LS| adapt: scan_steps:    0.0000000000000000       0.39317606114424891       0.78635212228849782     
 PAO|LS| adapt: energies:   -192.03503663637605       -192.03958523523553       -191.96958080113683     
 PAO|LS| adapt: suggested step_size:   0.22057632604899538     
 PAO|LS| adapt: predicted energy  -192.04676882354318     
 PAO| ======================= Iteration:        19 =============================

     Lanczos converged:  F threshold:   0.100E-02
     Est. extremal eigenvalues:    0.492E+01   0.133E+00
     Est. condition number :    0.370E+02

 Order=           3
     NS sqrt iter    1 1.00000000   0.127E+01       0.021     2661.932
     NS sqrt iter    2 1.00000000   0.642E+00       0.034     3375.384
     NS sqrt iter    3 1.00000000   0.207E+00       0.034     3358.256
     NS sqrt iter    4 1.00000000   0.270E-01       0.034     3321.393
     NS sqrt iter    5 1.00000000   0.135E-03       0.034     3329.665
     NS sqrt iter    6 1.00000000   0.462E-10       0.021     2340.076
     Symmetrizing Results
     Final NS sqrt iter    6 1.00000000   0.219E-11

     Est. extremal eigenvalues     -0.83702     2.59980  converged:  T
     TRS4 it   1 1.00000000   0.285E+02       0.007     2135.681   0.100E-11
     TRS4 it   2 1.00000000   0.235E+02       0.013     2197.431   0.100E-11
     TRS4 it   3 1.00000000   0.155E+02       0.013     2217.913   0.100E-11
     TRS4 it   4 1.00000000   0.895E+01       0.013     2199.342   0.100E-11
     TRS4 it   5 1.00000000   0.369E+01       0.013     2187.855   0.100E-11
     TRS4 it   6 1.00000000   0.928E+00       0.013     2211.718   0.100E-11
     TRS4 it   7 1.00000000   0.111E+00       0.013     2174.819   0.100E-11
     TRS4 it   8 1.00000000   0.253E-02       0.013     2207.708   0.100E-11
     TRS4 it   9 1.00000000   0.172E-05       0.013     2202.739   0.100E-11
     TRS4 it  10 1.00000000   0.177E-11       0.013     2210.285   0.100E-11
     Final TRS4 iteration   10 1.00000000   0.177E-11
     Chemical potential (mu):       0.05223
 
 PAO| energy:  -192.04675986020243      penalty:   5.0803845768534366E-004
 PAO|CG| trace_G_new    2.1143382493059117E-002
 PAO|CG| trace_G_prev   0.10650370764489490     
 PAO|CG| trace_G_mix   -3.7133473093340415E-004
 PAO|CG| trace_D   0.16055085275238129     
 PAO|CG| trace_D_Gnew  -3.5805853688945896E-005
 PAO|CG| beta:   0.20200909151188406     
 PAO| norm of gradient:  0.14540764248504656     
 PAO| energy improvement:  -1.1723223826379581E-002
 PAO| step     19                 -192.046759860  0.284E-03  0.221E+00     1.486
 PAO|LS| adapt:  T F F
 PAO|LS| adapt: scan_steps:    0.0000000000000000        0.0000000000000000        0.0000000000000000     
 PAO|LS| adapt: energies:   -192.04675986020243        0.0000000000000000        0.0000000000000000     
 PAO| ======================= Iteration:        20 =============================

     Lanczos converged:  F threshold:   0.100E-02
     Est. extremal eigenvalues:    0.491E+01   0.133E+00
     Est. condition number :    0.369E+02

 Order=           3
     NS sqrt iter    1 1.00000000   0.127E+01       0.021     2709.216
     NS sqrt iter    2 1.00000000   0.642E+00       0.034     3361.441
     NS sqrt iter    3 1.00000000   0.207E+00       0.034     3374.504
     NS sqrt iter    4 1.00000000   0.270E-01       0.034     3355.205
     NS sqrt iter    5 1.00000000   0.134E-03       0.033     3392.273
     NS sqrt iter    6 1.00000000   0.455E-10       0.021     2345.978
     Symmetrizing Results
     Final NS sqrt iter    6 1.00000000   0.219E-11

     Est. extremal eigenvalues     -0.83702     2.59833  converged:  T
     TRS4 it   1 1.00000000   0.285E+02       0.007     2138.689   0.100E-11
     TRS4 it   2 1.00000000   0.235E+02       0.013     2193.625   0.100E-11
     TRS4 it   3 1.00000000   0.155E+02       0.013     2185.130   0.100E-11
     TRS4 it   4 1.00000000   0.894E+01       0.013     2187.835   0.100E-11
     TRS4 it   5 1.00000000   0.368E+01       0.013     2192.959   0.100E-11
     TRS4 it   6 1.00000000   0.923E+00       0.013     2184.466   0.100E-11
     TRS4 it   7 1.00000000   0.110E+00       0.013     2212.438   0.100E-11
     TRS4 it   8 1.00000000   0.249E-02       0.013     2204.085   0.100E-11
     TRS4 it   9 1.00000000   0.166E-05       0.013     2202.489   0.100E-11
     TRS4 it  10 1.00000000   0.167E-11       0.013     2213.159   0.100E-11
     Final TRS4 iteration   10 1.00000000   0.167E-11
     Chemical potential (mu):       0.05247
 
 PAO| energy:  -192.05052907433378      penalty:   4.9832268400542949E-004
 PAO|LS| adapt:  T T F
 PAO|LS| adapt: scan_steps:    0.0000000000000000       0.22057632604899538        0.0000000000000000     
 PAO|LS| adapt: energies:   -192.04675986020243       -192.05052907433378        0.0000000000000000     
 PAO| ======================= Iteration:        21 =============================

     Lanczos converged:  F threshold:   0.100E-02
     Est. extremal eigenvalues:    0.490E+01   0.133E+00
     Est. condition number :    0.369E+02

 Order=           3
     NS sqrt iter    1 1.00000000   0.126E+01       0.021     2717.016
     NS sqrt iter    2 1.00000000   0.641E+00       0.034     3368.554
     NS sqrt iter    3 1.00000000   0.206E+00       0.034     3357.078
     NS sqrt iter    4 1.00000000   0.270E-01       0.034     3357.479
     NS sqrt iter    5 1.00000000   0.134E-03       0.034     3371.401
     NS sqrt iter    6 1.00000000   0.449E-10       0.021     2348.680
     Symmetrizing Results
     Final NS sqrt iter    6 1.00000000   0.221E-11

     Est. extremal eigenvalues     -0.83703     2.59684  converged:  T
     TRS4 it   1 1.00000000   0.285E+02       0.007     2127.905   0.100E-11
     TRS4 it   2 1.00000000   0.235E+02       0.013     2198.876   0.100E-11
     TRS4 it   3 1.00000000   0.154E+02       0.013     2206.608   0.100E-11
     TRS4 it   4 1.00000000   0.893E+01       0.013     2236.527   0.100E-11
     TRS4 it   5 1.00000000   0.366E+01       0.013     2220.153   0.100E-11
     TRS4 it   6 1.00000000   0.919E+00       0.013     2196.426   0.100E-11
     TRS4 it   7 1.00000000   0.110E+00       0.013     2214.999   0.100E-11
     TRS4 it   8 1.00000000   0.244E-02       0.013     2194.337   0.100E-11
     TRS4 it   9 1.00000000   0.160E-05       0.013     2231.354   0.100E-11
     TRS4 it  10 1.00000000   0.154E-11       0.013     2208.265   0.100E-11
     Final TRS4 iteration   10 1.00000000   0.154E-11
     Chemical potential (mu):       0.05271
 
 PAO| energy:  -192.05249325432553      penalty:   4.8903745536884387E-004
 PAO|LS| adapt:  T T F
 PAO|LS| adapt: scan_steps:    0.0000000000000000       0.44115265209799076        0.0000000000000000     
 PAO|LS| adapt: energies:   -192.04675986020243       -192.05249325432553        0.0000000000000000     
 PAO| ======================= Iteration:        22 =============================

     Lanczos converged:  F threshold:   0.100E-02
     Est. extremal eigenvalues:    0.489E+01   0.133E+00
     Est. condition number :    0.368E+02

 Order=           3
     NS sqrt iter    1 1.00000000   0.126E+01       0.021     2654.710
     NS sqrt iter    2 1.00000000   0.640E+00       0.033     3399.003
     NS sqrt iter    3 1.00000000   0.206E+00       0.034     3357.102
     NS sqrt iter    4 1.00000000   0.269E-01       0.033     3382.105
     NS sqrt iter    5 1.00000000   0.133E-03       0.033     3393.595
     NS sqrt iter    6 1.00000000   0.438E-10       0.021     2339.526
     Symmetrizing Results
     Final NS sqrt iter    6 1.00000000   0.223E-11

     Est. extremal eigenvalues     -0.83703     2.59380  converged:  T
     TRS4 it   1 1.00000000   0.285E+02       0.007     2135.348   0.100E-11
     TRS4 it   2 1.00000000   0.235E+02       0.013     2187.217   0.100E-11
     TRS4 it   3 1.00000000   0.154E+02       0.013     2204.135   0.100E-11
     TRS4 it   4 1.00000000   0.890E+01       0.013     2204.726   0.100E-11
     TRS4 it   5 1.00000000   0.364E+01       0.013     2187.402   0.100E-11
     TRS4 it   6 1.00000000   0.910E+00       0.013     2217.275   0.100E-11
     TRS4 it   7 1.00000000   0.108E+00       0.013     2174.091   0.100E-11
     TRS4 it   8 1.00000000   0.236E-02       0.013     2212.498   0.100E-11
     TRS4 it   9 1.00000000   0.149E-05       0.013     2203.183   0.100E-11
     TRS4 it  10 1.00000000   0.133E-11       0.013     2207.821   0.100E-11
     Final TRS4 iteration   10 1.00000000   0.133E-11
     Chemical potential (mu):       0.05319
 
 PAO| energy:  -192.05092908534243      penalty:   4.7173033978245707E-004
 PAO|LS| Need extra step
 PAO|LS| adapt:  T T T
 PAO|LS| adapt: scan_steps:    0.0000000000000000       0.44115265209799076       0.88230530419598152     
 PAO|LS| adapt: energies:   -192.04675986020243       -192.05249325432553       -192.05092908534243     
 PAO|LS| adapt: suggested step_size:   0.56717175607432602     
 PAO|LS| adapt: predicted energy  -192.05279099820956     
 PAO| ======================= Iteration:        23 =============================

     Lanczos converged:  F threshold:   0.100E-02
     Est. extremal eigenvalues:    0.490E+01   0.133E+00
     Est. condition number :    0.369E+02

 Order=           3
     NS sqrt iter    1 1.00000000   0.126E+01       0.021     2708.068
     NS sqrt iter    2 1.00000000   0.641E+00       0.034     3375.665
     NS sqrt iter    3 1.00000000   0.206E+00       0.034     3378.924
     NS sqrt iter    4 1.00000000   0.270E-01       0.034     3346.729
     NS sqrt iter    5 1.00000000   0.133E-03       0.034     3357.602
     NS sqrt iter    6 1.00000000   0.446E-10       0.021     2319.594
     Symmetrizing Results
     Final NS sqrt iter    6 1.00000000   0.222E-11

     Est. extremal eigenvalues     -0.83703     2.59598  converged:  T
     TRS4 it   1 1.00000000   0.285E+02       0.007     2153.907   0.100E-11
     TRS4 it   2 1.00000000   0.235E+02       0.013     2217.812   0.100E-11
     TRS4 it   3 1.00000000   0.154E+02       0.013     2201.618   0.100E-11
     TRS4 it   4 1.00000000   0.892E+01       0.013     2215.126   0.100E-11
     TRS4 it   5 1.00000000   0.366E+01       0.013     2203.838   0.100E-11
     TRS4 it   6 1.00000000   0.916E+00       0.013     2200.944   0.100E-11
     TRS4 it   7 1.00000000   0.109E+00       0.013     2197.450   0.100E-11
     TRS4 it   8 1.00000000   0.242E-02       0.013     2208.486   0.100E-11
     TRS4 it   9 1.00000000   0.157E-05       0.013     2200.682   0.100E-11
     TRS4 it  10 1.00000000   0.148E-11       0.013     2220.039   0.100E-11
     Final TRS4 iteration   10 1.00000000   0.148E-11
     Chemical potential (mu):       0.05284
 
 PAO| energy:  -192.05279778759646      penalty:   4.8392298401526800E-004
 PAO|CG| trace_G_new    1.7190069530082341E-002
 PAO|CG| trace_G_prev    2.1143382493059117E-002
 PAO|CG| trace_G_mix    1.0791886629354344E-004
 PAO|CG| trace_D    2.7709555416580992E-002
 PAO|CG| trace_D_Gnew  -4.4354317965945283E-005
 PAO|CG| beta:   0.80791948352618004     
 PAO| norm of gradient:  0.13111090545825066     
 PAO| energy improvement:  -6.0379273940327494E-003
 PAO| step     23                 -192.052797788  0.256E-03  0.567E+00     1.931
 PAO|LS| adapt:  T F F
 PAO|LS| adapt: scan_steps:    0.0000000000000000        0.0000000000000000        0.0000000000000000     
 PAO|LS| adapt: energies:   -192.05279778759646        0.0000000000000000        0.0000000000000000     
 PAO| ======================= Iteration:        24 =============================

     Lanczos converged:  F threshold:   0.100E-02
     Est. extremal eigenvalues:    0.488E+01   0.133E+00
     Est. condition number :    0.368E+02

 Order=           3
     NS sqrt iter    1 1.00000000   0.126E+01       0.021     2701.595
     NS sqrt iter    2 1.00000000   0.639E+00       0.034     3366.335
     NS sqrt iter    3 1.00000000   0.206E+00       0.034     3358.072
     NS sqrt iter    4 1.00000000   0.269E-01       0.034     3357.013
     NS sqrt iter    5 1.00000000   0.133E-03       0.034     3352.666
     NS sqrt iter    6 1.00000000   0.440E-10       0.021     2329.057
     Symmetrizing Results
     Final NS sqrt iter    6 1.00000000   0.223E-11

     Est. extremal eigenvalues     -0.83704     2.59201  converged:  T
     TRS4 it   1 1.00000000   0.285E+02       0.007     2135.745   0.100E-11
     TRS4 it   2 1.00000000   0.234E+02       0.013     2196.449   0.100E-11
     TRS4 it   3 1.00000000   0.154E+02       0.013     2183.866   0.100E-11
     TRS4 it   4 1.00000000   0.889E+01       0.013     2201.875   0.100E-11
     TRS4 it   5 1.00000000   0.363E+01       0.013     2183.182   0.100E-11
     TRS4 it   6 1.00000000   0.905E+00       0.013     2201.478   0.100E-11
     TRS4 it   7 1.00000000   0.107E+00       0.013     2187.231   0.100E-11
     TRS4 it   8 1.00000000   0.232E-02       0.013     2200.149   0.100E-11
     TRS4 it   9 1.00000000   0.143E-05       0.013     2234.952   0.100E-11
     TRS4 it  10 1.00000000   0.125E-11       0.013     2207.213   0.100E-11
     Final TRS4 iteration   10 1.00000000   0.125E-11
     Chemical potential (mu):       0.05344
 
 PAO| energy:  -192.05606654672462      penalty:   4.4539360870706407E-004
 PAO|LS| adapt:  T T F
 PAO|LS| adapt: scan_steps:    0.0000000000000000       0.56717175607432602        0.0000000000000000     
 PAO|LS| adapt: energies:   -192.05279778759646       -192.05606654672462        0.0000000000000000     
 PAO| ======================= Iteration:        25 =============================

     Lanczos converged:  F threshold:   0.100E-02
     Est. extremal eigenvalues:    0.486E+01   0.133E+00
     Est. condition number :    0.367E+02

 Order=           3
     NS sqrt iter    1 1.00000000   0.125E+01       0.021     2705.446
     NS sqrt iter    2 1.00000000   0.637E+00       0.034     3369.023
     NS sqrt iter    3 1.00000000   0.205E+00       0.034     3354.667
     NS sqrt iter    4 1.00000000   0.268E-01       0.034     3352.686
     NS sqrt iter    5 1.00000000   0.132E-03       0.034     3340.135
     NS sqrt iter    6 1.00000000   0.437E-10       0.021     2315.761
     Symmetrizing Results
     Final NS sqrt iter    6 1.00000000   0.224E-11

     Est. extremal eigenvalues     -0.83705     2.58784  converged:  T
     TRS4 it   1 1.00000000   0.285E+02       0.007     2146.752   0.100E-11
     TRS4 it   2 1.00000000   0.234E+02       0.013     2222.410   0.100E-11
     TRS4 it   3 1.00000000   0.154E+02       0.013     2207.917   0.100E-11
     TRS4 it   4 1.00000000   0.886E+01       0.013     2195.207   0.100E-11
     TRS4 it   5 1.00000000   0.361E+01       0.013     2222.600   0.100E-11
     TRS4 it   6 1.00000000   0.895E+00       0.013     2208.097   0.100E-11
     TRS4 it   7 1.00000000   0.105E+00       0.013     2222.549   0.100E-11
     TRS4 it   8 1.00000000   0.222E-02       0.013     2198.786   0.100E-11
     TRS4 it   9 1.00000000   0.131E-05       0.013     2239.524   0.100E-11
     TRS4 it  10 1.00000000   0.102E-11       0.013     2201.674   0.100E-11
     Final TRS4 iteration   10 1.00000000   0.102E-11
     Chemical potential (mu):       0.05404
 
 PAO| energy:  -192.04610030568213      penalty:   4.1117563377939773E-004
 PAO|LS| adapt:  T T T
 PAO|LS| adapt: scan_steps:    0.0000000000000000       0.56717175607432602        1.1343435121486520     
 PAO|LS| adapt: energies:   -192.05279778759646       -192.05606654672462       -192.04610030568213     
 PAO|LS| adapt: suggested step_size:   0.42366504924973925     
 PAO|LS| adapt: predicted energy  -192.05649019862688     
 PAO| ======================= Iteration:        26 =============================

     Lanczos converged:  F threshold:   0.100E-02
     Est. extremal eigenvalues:    0.488E+01   0.133E+00
     Est. condition number :    0.368E+02

 Order=           3
     NS sqrt iter    1 1.00000000   0.126E+01       0.021     2675.313
     NS sqrt iter    2 1.00000000   0.639E+00       0.034     3333.031
     NS sqrt iter    3 1.00000000   0.206E+00       0.034     3353.652
     NS sqrt iter    4 1.00000000   0.269E-01       0.034     3350.236
     NS sqrt iter    5 1.00000000   0.133E-03       0.034     3369.956
     NS sqrt iter    6 1.00000000   0.442E-10       0.021     2335.734
     Symmetrizing Results
     Final NS sqrt iter    6 1.00000000   0.223E-11

     Est. extremal eigenvalues     -0.83704     2.59304  converged:  T
     TRS4 it   1 1.00000000   0.285E+02       0.007     2159.251   0.100E-11
     TRS4 it   2 1.00000000   0.235E+02       0.013     2217.930   0.100E-11
     TRS4 it   3 1.00000000   0.154E+02       0.013     2206.030   0.100E-11
     TRS4 it   4 1.00000000   0.890E+01       0.013     2212.469   0.100E-11
     TRS4 it   5 1.00000000   0.364E+01       0.013     2222.310   0.100E-11
     TRS4 it   6 1.00000000   0.908E+00       0.013     2173.716   0.100E-11
     TRS4 it   7 1.00000000   0.107E+00       0.013     2241.089   0.100E-11
     TRS4 it   8 1.00000000   0.234E-02       0.013     2194.219   0.100E-11
     TRS4 it   9 1.00000000   0.146E-05       0.013     2225.934   0.100E-11
     TRS4 it  10 1.00000000   0.133E-11       0.013     2203.752   0.100E-11
     Final TRS4 iteration   10 1.00000000   0.133E-11
     Chemical potential (mu):       0.05329
 
 PAO| energy:  -192.05647635107451      penalty:   4.5472652170887865E-004
 PAO|CG| trace_G_new    1.3357744368052085E-002
 PAO|CG| trace_G_prev    1.7190069530082341E-002
 PAO|CG| trace_G_mix    2.6903382009946361E-004
 PAO|CG| trace_D    3.5348704914217516E-002
 PAO|CG| trace_D_Gnew  -8.3092545270187993E-005
 PAO|CG| beta:   0.76141114642076291     
 PAO| norm of gradient:  0.11557570838222055     
 PAO| energy improvement:  -3.6785634780471810E-003
 PAO| step     26                 -192.056476351  0.226E-03  0.424E+00     1.488
 PAO|LS| adapt:  T F F
 PAO|LS| adapt: scan_steps:    0.0000000000000000        0.0000000000000000        0.0000000000000000     
 PAO|LS| adapt: energies:   -192.05647635107451        0.0000000000000000        0.0000000000000000     
 PAO| ======================= Iteration:        27 =============================

     Lanczos converged:  F threshold:   0.100E-02
     Est. extremal eigenvalues:    0.487E+01   0.132E+00
     Est. condition number :    0.368E+02

 Order=           3
     NS sqrt iter    1 1.00000000   0.126E+01       0.021     2694.703
     NS sqrt iter    2 1.00000000   0.637E+00       0.034     3380.284
     NS sqrt iter    3 1.00000000   0.205E+00       0.034     3345.322
     NS sqrt iter    4 1.00000000   0.268E-01       0.034     3372.425
     NS sqrt iter    5 1.00000000   0.132E-03       0.034     3377.693
     NS sqrt iter    6 1.00000000   0.440E-10       0.021     2333.940
     Symmetrizing Results
     Final NS sqrt iter    6 1.00000000   0.220E-11

     Est. extremal eigenvalues     -0.83705     2.58962  converged:  T
     TRS4 it   1 1.00000000   0.285E+02       0.007     2129.927   0.100E-11
     TRS4 it   2 1.00000000   0.234E+02       0.013     2226.261   0.100E-11
     TRS4 it   3 1.00000000   0.154E+02       0.013     2196.053   0.100E-11
     TRS4 it   4 1.00000000   0.888E+01       0.013     2186.621   0.100E-11
     TRS4 it   5 1.00000000   0.362E+01       0.013     2200.377   0.100E-11
     TRS4 it   6 1.00000000   0.899E+00       0.013     2195.936   0.100E-11
     TRS4 it   7 1.00000000   0.105E+00       0.013     2205.865   0.100E-11
     TRS4 it   8 1.00000000   0.226E-02       0.013     2236.951   0.100E-11
     TRS4 it   9 1.00000000   0.136E-05       0.013     2190.868   0.100E-11
     TRS4 it  10 1.00000000   0.109E-11       0.013     2216.948   0.100E-11
     Final TRS4 iteration   10 1.00000000   0.109E-11
     Chemical potential (mu):       0.05377
 
 PAO| energy:  -192.05920582609295      penalty:   4.1928894955991646E-004
 PAO|LS| adapt:  T T F
 PAO|LS| adapt: scan_steps:    0.0000000000000000       0.42366504924973925        0.0000000000000000     
 PAO|LS| adapt: energies:   -192.05647635107451       -192.05920582609295        0.0000000000000000     
 PAO| ======================= Iteration:        28 =============================

     Lanczos converged:  F threshold:   0.100E-02
     Est. extremal eigenvalues:    0.486E+01   0.132E+00
     Est. condition number :    0.368E+02

 Order=           3
     NS sqrt iter    1 1.00000000   0.125E+01       0.021     2689.282
     NS sqrt iter    2 1.00000000   0.636E+00       0.033     3387.746
     NS sqrt iter    3 1.00000000   0.205E+00       0.034     3379.240
     NS sqrt iter    4 1.00000000   0.266E-01       0.034     3367.999
     NS sqrt iter    5 1.00000000   0.132E-03       0.034     3328.400
     NS sqrt iter    6 1.00000000   0.440E-10       0.021     2340.343
     Symmetrizing Results
     Final NS sqrt iter    6 1.00000000   0.219E-11

     Est. extremal eigenvalues     -0.83706     2.58604  converged:  T
     TRS4 it   1 1.00000000   0.285E+02       0.007     2172.148   0.100E-11
     TRS4 it   2 1.00000000   0.234E+02       0.013     2211.189   0.100E-11
     TRS4 it   3 1.00000000   0.154E+02       0.013     2199.007   0.100E-11
     TRS4 it   4 1.00000000   0.885E+01       0.013     2243.002   0.100E-11
     TRS4 it   5 1.00000000   0.360E+01       0.013     2219.673   0.100E-11
     TRS4 it   6 1.00000000   0.890E+00       0.013     2207.650   0.100E-11
     TRS4 it   7 1.00000000   0.104E+00       0.013     2200.968   0.100E-11
     TRS4 it   8 1.00000000   0.218E-02       0.013     2201.501   0.100E-11
     TRS4 it   9 1.00000000   0.126E-05       0.013     2204.198   0.100E-11
     TRS4 it  10 1.00000000   0.972E-12       0.013     2201.501   0.100E-11
     Final TRS4 iteration   10 1.00000000   0.972E-12
     Chemical potential (mu):       0.05425
 
 PAO| energy:  -192.05596649420210      penalty:   3.8689089438518275E-004
 PAO|LS| adapt:  T T T
 PAO|LS| adapt: scan_steps:    0.0000000000000000       0.42366504924973925       0.84733009849947849     
 PAO|LS| adapt: energies:   -192.05647635107451       -192.05920582609295       -192.05596649420210     
 PAO|LS| adapt: suggested step_size:   0.40557026579942435     
 PAO|LS| adapt: predicted energy  -192.05921127010450     
 PAO| ======================= Iteration:        29 =============================

     Lanczos converged:  F threshold:   0.100E-02
     Est. extremal eigenvalues:    0.487E+01   0.132E+00
     Est. condition number :    0.368E+02

 Order=           3
     NS sqrt iter    1 1.00000000   0.126E+01       0.021     2687.941
     NS sqrt iter    2 1.00000000   0.637E+00       0.034     3359.228
     NS sqrt iter    3 1.00000000   0.205E+00       0.034     3357.308
     NS sqrt iter    4 1.00000000   0.268E-01       0.034     3364.204
     NS sqrt iter    5 1.00000000   0.132E-03       0.034     3361.472
     NS sqrt iter    6 1.00000000   0.440E-10       0.021     2339.460
     Symmetrizing Results
     Final NS sqrt iter    6 1.00000000   0.220E-11

     Est. extremal eigenvalues     -0.83705     2.58977  converged:  T
     TRS4 it   1 1.00000000   0.285E+02       0.007     2146.389   0.100E-11
     TRS4 it   2 1.00000000   0.234E+02       0.013     2195.980   0.100E-11
     TRS4 it   3 1.00000000   0.154E+02       0.013     2222.299   0.100E-11
     TRS4 it   4 1.00000000   0.888E+01       0.013     2213.276   0.100E-11
     TRS4 it   5 1.00000000   0.362E+01       0.013     2205.298   0.100E-11
     TRS4 it   6 1.00000000   0.900E+00       0.013     2214.049   0.100E-11
     TRS4 it   7 1.00000000   0.105E+00       0.013     2220.727   0.100E-11
     TRS4 it   8 1.00000000   0.226E-02       0.013     2203.022   0.100E-11
     TRS4 it   9 1.00000000   0.136E-05       0.013     2178.666   0.100E-11
[...]
     TRS4 it   4 1.00000000   0.918E+01       0.013     2202.482   0.100E-11
     TRS4 it   5 1.00000000   0.405E+01       0.013     2211.407   0.100E-11
     TRS4 it   6 1.00000000   0.122E+01       0.013     2192.466   0.100E-11
     TRS4 it   7 1.00000000   0.214E+00       0.013     2204.505   0.100E-11
     TRS4 it   8 1.00000000   0.112E-01       0.013     2204.794   0.100E-11
     TRS4 it   9 1.00000000   0.375E-04       0.013     2196.019   0.100E-11
     TRS4 it  10 1.00000000   0.623E-09       0.013     2213.719   0.100E-11
     TRS4 it  11 1.00000000   0.160E-13       0.013     2215.516   0.100E-11
     Final TRS4 iteration   11 1.00000000   0.160E-13
     Chemical potential (mu):       0.02323
 
 PAO| energy:  -191.68285645236506      penalty:   1.6855102382622458E-008
 PAO| Writing restart file.
     Est. extremal eigenvalues     -0.83766     2.59945  converged:  T
     TRS4 it   1 1.00000000   0.288E+02       0.007     2123.526   0.100E-11
     TRS4 it   2 1.00000000   0.237E+02       0.013     2214.537   0.100E-11
     TRS4 it   3 1.00000000   0.156E+02       0.013     2182.370   0.100E-11
     TRS4 it   4 1.00000000   0.918E+01       0.013     2197.830   0.100E-11
     TRS4 it   5 1.00000000   0.405E+01       0.013     2190.126   0.100E-11
     TRS4 it   6 1.00000000   0.122E+01       0.013     2221.144   0.100E-11
     TRS4 it   7 1.00000000   0.214E+00       0.013     2185.926   0.100E-11
     TRS4 it   8 1.00000000   0.112E-01       0.013     2218.113   0.100E-11
     TRS4 it   9 1.00000000   0.375E-04       0.013     2178.285   0.100E-11
     TRS4 it  10 1.00000000   0.623E-09       0.013     2194.363   0.100E-11
     TRS4 it  11 1.00000000   0.160E-13       0.013     2201.136   0.100E-11
     Final TRS4 iteration   11 1.00000000   0.160E-13
     Chemical potential (mu):       0.02323

 SCF     1     -1103.038576016     -1103.038576016    1.754525

*********************************************************
 Using MIXING_FRACTION=0.450 to mix KS matrix:  iscf=  2
 KS_nw=0.450*KS + 0.550*KS_old
*********************************************************
     Est. extremal eigenvalues     -0.83766     2.59945  converged:  T
     TRS4 it   1 1.00000000   0.288E+02       0.007     2139.956   0.100E-11
     TRS4 it   2 1.00000000   0.237E+02       0.013     2215.409   0.100E-11
     TRS4 it   3 1.00000000   0.156E+02       0.013     2203.790   0.100E-11
     TRS4 it   4 1.00000000   0.918E+01       0.013     2187.749   0.100E-11
     TRS4 it   5 1.00000000   0.405E+01       0.013     2192.828   0.100E-11
     TRS4 it   6 1.00000000   0.122E+01       0.013     2224.111   0.100E-11
     TRS4 it   7 1.00000000   0.214E+00       0.013     2190.465   0.100E-11
     TRS4 it   8 1.00000000   0.112E-01       0.013     2215.992   0.100E-11
     TRS4 it   9 1.00000000   0.375E-04       0.013     2209.258   0.100E-11
     TRS4 it  10 1.00000000   0.622E-09       0.013     2194.845   0.100E-11
     TRS4 it  11 1.00000000   0.000E+00       0.013     2217.154   0.100E-11
     Final TRS4 iteration   11 1.00000000   0.000E+00
     Chemical potential (mu):       0.02323

 SCF     2     -1103.038576017        -0.000000000    1.772472


 SCF run converged in     2 steps.

 PAO| Storing density matrix for ASPC guess in slot:           1

 ENERGY| Total FORCE_EVAL ( QS ) energy [a.u.]:            -1103.038576016728484

 -------------------------------------------------------------------------------
 -                                                                             -
 -                                DBCSR STATISTICS                             -
 -                                                                             -
 -------------------------------------------------------------------------------
 COUNTER                                    TOTAL       BLAS       SMM       ACC
 flops     5 x     5 x     4             23116800       0.0%    100.0%      0.0%     
 flops    13 x     5 x     4             29818880       0.0%    100.0%      0.0%     
 flops     5 x    13 x     4             29818880       0.0%    100.0%      0.0%     
 flops    13 x    13 x     4             39370240       0.0%    100.0%      0.0%     
 flops     4 x     4 x     5           6342574080       0.0%    100.0%      0.0%     
 flops     5 x     4 x     5           7811891200       0.0%    100.0%      0.0%     
 flops     4 x     4 x    13           8245346304       0.0%    100.0%      0.0%     
 flops    13 x     4 x     5          10155458560       0.0%    100.0%      0.0%     
 flops     5 x     4 x    13          10155458560       0.0%    100.0%      0.0%     
 flops    13 x     4 x    13          13202096128       0.0%    100.0%      0.0%     
 flops     5 x     4 x     4         389817966880       0.0%    100.0%      0.0%     
 flops    13 x     4 x     4         510212948544       0.0%    100.0%      0.0%     
 flops     4 x     4 x     4       29446618380544       0.0%    100.0%      0.0%     
 flops inhomo. stacks                           0       0.0%      0.0%      0.0%
 flops total                        30.402684E+12       0.0%    100.0%      0.0%
 flops max/rank                    959.878136E+09       0.0%    100.0%      0.0%
 matmuls inhomo. stacks                         0       0.0%      0.0%      0.0%
 matmuls total                       233862146625       0.0%    100.0%      0.0%
 number of processed stacks             238868904       0.0%    100.0%      0.0%
 average stack size                                     0.0     979.0       0.0
 marketing flops                    52.104375E+12
 -------------------------------------------------------------------------------
 # multiplications                          48901
 max memory usage/rank             619.053056E+06
 # max total images/rank                        2
 # max 3D layers                                1
 # MPI messages exchanged                20342816
 MPI messages size (bytes):
  total size                         2.426490E+12
  min size                           0.000000E+00
  max size                         541.696000E+03
  average size                     119.279938E+03
 MPI breakdown and total messages size (bytes):
             size <=      128              873258                   340608
       128 < size <=     8192              325986               1109726464
      8192 < size <=    32768               17658                403808640
     32768 < size <=   131072             8484232             624983423872
    131072 < size <=  4194304            10641682            1800372563968
   4194304 < size <= 16777216                   0                        0
  16777216 < size                               0                        0
 -------------------------------------------------------------------------------

 *** WARNING in dbcsr_mm.F:301 :: Using a non-square number of MPI ranks ***
 *** might lead to poor performance. Used ranks: 32 Suggested: 36 64     ***

 -------------------------------------------------------------------------------
 -                                                                             -
 -                      DBCSR MESSAGE PASSING PERFORMANCE                      -
 -                                                                             -
 -------------------------------------------------------------------------------
 ROUTINE             CALLS      AVE VOLUME [Bytes]
 MP_Bcast               14                     12.
 MP_Allreduce       294385                     37.
 MP_Alltoall        126259                  14593.
 MP_ISend          1636556                  55528.
 MP_IRecv          1600694                  56845.
 -------------------------------------------------------------------------------

 -------------------------------------------------------------------------------
 -                                                                             -
 -                                DBM STATISTICS                               -
 -                                                                             -
 -------------------------------------------------------------------------------
    M  x    N  x    K                                          COUNT     PERCENT
 -------------------------------------------------------------------------------

 -------------------------------------------------------------------------------
 -                                                                             -
 -                                GRID STATISTICS                              -
 -                                                                             -
 -------------------------------------------------------------------------------
 LP    KERNEL             BACKEND                              COUNT     PERCENT
 2     collocate ortho    CPU                               11475716      28.83%
 2     integrate ortho    CPU                               11475716      28.83%
 3     collocate ortho    CPU                                7374962      18.53%
 3     integrate ortho    CPU                                7374962      18.53%
 4     collocate ortho    CPU                                1047312       2.63%
 4     integrate ortho    CPU                                1047312       2.63%
 0     collocate general  CPU                                   6144       0.02%
 -------------------------------------------------------------------------------

 MEMORY| Estimated peak process memory [MiB]                                 591

 -------------------------------------------------------------------------------
 -                                                                             -
 -                         MESSAGE PASSING PERFORMANCE                         -
 -                                                                             -
 -------------------------------------------------------------------------------

 ROUTINE             CALLS      AVE VOLUME [Bytes]
 MP_Group                5
 MP_Bcast           308629                   2147.
 MP_Allreduce       767512                    514.
 MP_Sync                 5
 MP_Alltoall           369                4633968.
 MP_SendRecv          1302                  18832.
 MP_ISendRecv         1302                  18832.
 MP_Wait              3696
 MP_ISend             2166                 108220.
 MP_IRecv             2166                 108236.
 -------------------------------------------------------------------------------


 -------------------------------------------------------------------------------
 -                                                                             -
 -                           R E F E R E N C E S                               -
 -                                                                             -
 -------------------------------------------------------------------------------
 
 CP2K version 2024.3 (Development Version), the CP2K developers group (2024).
 CP2K is freely available from https://www.cp2k.org/ .
 
 T. D. Kuehne, M. Iannuzzi, M. Del Ben, V. V. Rybkin, P. Seewald, F. Stein, T. 
 Laino, R. Z. Khaliullin, O. Schuett, F. Schiffmann, D. Golze, J. Wilhelm, S. 
 Chulkov, M. H. Bani-Hashemian, V. Weber, U. Borstnik, M. Taillefumier, A. S. 
 Jakobovits, A. Lazzaro, H. Pabst, T. Mueller, R. Schade, M. Guidon, S. 
 Andermatt, N. Holmberg, G. K. Schenter, A. Hehn, A. Bussy, F. Belleflamme, G. 
 Tabacchi, A. Gloess, M. Lass, I. Bethune, C. J. Mundy, C. Plessl, M. Watkins, 
 J. VandeVondele, M. Krack, J. Hutter.
 J. Chem. Phys. 152, 194103 (2020).
 CP2K: An electronic structure and molecular dynamics software package - 
 Quickstep: Efficient and accurate electronic structure calculations.
 https://doi.org/10.1063/5.0007045

 O. Schuett, J. VandeVondele.
 J. Chem. Theory Comput. 14, 4168-4175 (2018).
 Machine Learning Adaptive Basis Sets for Efficient Large Scale Density 
 Functional Theory Simulation.
 https://doi.org/10.1021/acs.jctc.8b00378

 O. Schuett, P. Messmer, J. Hutter, J. VandeVondele.
 Electronic Structure Calculations on Graphics Processing Units, 173-190 (2016).
 GPU-Accelerated Sparse Matrix-Matrix Multiplication for Linear Scaling Density 
 Functional Theory.
 https://doi.org/10.1002/9781118670712.ch8

 A. Heinecke, G. Henry, M. Hutchinson, H. Pabst.
 Proceedings of Intl. Supercomputing Conference, 981-991 (2016).
 LIBXSMM: Accelerating Small Matrix Multiplications by Runtime Code Generation.
 https://doi.org/10.1109/SC.2016.83

 J. Hutter, M. Iannuzzi, F. Schiffmann, J. VandeVondele.
 WIREs Comput Mol Sci. 4, 15-25 (2014).
 CP2K: atomistic simulations of condensed matter systems.
 https://doi.org/10.1002/wcms.1159

 U. Borstnik, J. VandeVondele, V. Weber, J. Hutter.
 Parallel Comput. 40, 47-58 (2014).
 Sparse matrix multiplication: The distributed block-compressed sparse row 
 library.
 https://doi.org/10.1016/j.parco.2014.03.012

 A. Marek, V. Blum, R. Johanni, V. Havu, B. Lang, T. Auckenthaler, A. Heinecke, 
 H. Bungartz, H. Lederer.
 J. Phys. Condens. Matter 26, 213201 (2014).
 The ELPA library: scalable parallel eigenvalue solutions for electronic 
 structure theory and computational science.
 https://doi.org/10.1088/0953-8984/26/21/213201

 J. VandeVondele, U. Borstnik, J. Hutter.
 J. Chem. Theory Comput. 8, 3565-3573 (2012).
 Linear Scaling Self-Consistent Field Calculations with Millions of Atoms in the 
 Condensed Phase.
 https://doi.org/10.1021/ct200897x

 J. VandeVondele, J. Hutter.
 J. Chem. Phys. 127, 114105 (2007).
 Gaussian basis sets for accurate calculations on molecular systems in gas and 
 condensed phases.
 https://doi.org/10.1063/1.2770708

 J. VandeVondele, M. Krack, F. Mohamed, M. Parrinello, T. Chassaing, J. Hutter.
 Comput. Phys. Commun. 167, 103-128 (2005).
 QUICKSTEP: Fast and accurate density functional calculations using a mixed 
 Gaussian and plane waves approach.
 https://doi.org/10.1016/j.cpc.2004.12.014

 M. Krack.
 Theor. Chem. Acc. 114, 145-152 (2005).
 Pseudopotentials for H to Kr optimized for gradient-corrected 
 exchange-correlation functionals.
 https://doi.org/10.1007/s00214-005-0655-y

 M. Frigo, S. G. Johnson.
 Proc. IEEE 93, 216-231 (2005).
 The design and implementation of FFTW3.
 https://doi.org/10.1109/JPROC.2004.840301

 A. M. N. Niklasson, C. J. Tymczak, M. Challacombe.
 J. Chem. Phys. 118, 8611-8620 (2003).
 Trace resetting density matrix purification in O(N) self-consistent-field 
 theory.
 https://doi.org/10.1063/1.1559913

 C. Hartwigsen, S. Goedecker, J. Hutter.
 Phys. Rev. B 58, 3641-3662 (1998).
 Relativistic separable dual-space Gaussian pseudopotentials from H to Rn.
 https://doi.org/10.1103/PhysRevB.58.3641

 G. Lippert, J. Hutter, M. Parrinello.
 Mol. Phys. 92, 477-487 (1997).
 A hybrid Gaussian and plane wave density functional scheme.
 https://doi.org/10.1080/002689797170220

 S. Goedecker, M. Teter, J. Hutter.
 Phys. Rev. B 54, 1703-1710 (1996).
 Separable dual-space Gaussian pseudopotentials.
 https://doi.org/10.1103/PhysRevB.54.1703

 J. P. Perdew, K. Burke, M. Ernzerhof.
 Phys. Rev. Lett. 77, 3865-3868 (1996).
 Generalized gradient approximation made simple.
 https://doi.org/10.1103/PhysRevLett.77.3865


 -------------------------------------------------------------------------------
 -                                                                             -
 -                                T I M I N G                                  -
 -                                                                             -
 -------------------------------------------------------------------------------
 SUBROUTINE                       CALLS  ASD         SELF TIME        TOTAL TIME
                                MAXIMUM       AVERAGE  MAXIMUM  AVERAGE  MAXIMUM
 CP2K                                 1  1.0    0.013    0.017  426.869  426.869
 qs_energies                          1  2.0    0.000    0.000  426.709  426.709
 ls_scf                               1  3.0    0.000    0.000  425.593  425.593
 pao_update                           6  4.0    0.006    0.024  399.499  399.500
 pao_calc_energy                    797  5.0    0.003    0.018  358.160  358.163
 dbcsr_multiply_generic           48901  8.4    1.363    1.478  341.529  341.789
 multiply_cannon                  48901  9.4    2.551    3.020  276.220  279.334
 multiply_cannon_loop             48901 10.4    1.848    2.191  265.648  270.112
 ls_scf_init_matrix_S               803  7.0    0.008    0.009  203.364  203.442
 pao_rebuild_S                      797  6.0    0.002    0.003  201.832  201.910
 matrix_sqrt_Newton_Schulz          803  8.0    0.168    0.273  188.588  188.644
 multiply_cannon_multrec         391208 11.4  174.910  176.539  175.714  177.315
 pao_dm_trs4                        797  6.0    0.006    0.007  155.968  156.024
 density_matrix_trs4                810  7.0    0.206    0.342  150.098  150.159
 mp_waitall_1                   3131194 12.6   86.931   94.160   86.931   94.160
 multiply_cannon_metrocomm3      391208 11.4    0.692    0.776   69.384   74.435
 make_m2s                         97802  9.4    0.535    0.771   50.262   51.446
 arnoldi_extremal                  1613  8.5    0.013    0.014   50.250   50.285
 arnoldi_normal_ev                 1613  9.5    0.032    0.054   50.235   50.270
 make_images                      97802 10.4    7.224    7.486   48.926   50.190
 build_subspace                    4966 10.6    0.304    0.331   44.306   44.337
 dbcsr_matrix_vector_mult        152206 11.6    0.651    0.982   41.790   42.105
 pao_calc_AB                       1055  5.8    0.002    0.002   40.887   40.890
 pao_calc_AB_equi                  1055  6.8    0.039    0.097   40.885   40.888
 pao_calc_grad_lnv_wrt_AB           257  7.0    0.019    0.022   40.490   40.530
 dbcsr_matrix_vector_mult_local  152206 12.6   35.713   36.119   35.883   36.288
 make_images_data                 97802 11.4    0.865    1.045   21.384   23.752
 ls_scf_main                          6  4.0    0.000    0.001   22.857   22.858
 hybrid_alltoall_any              99404 12.4    0.882    1.862   16.748   20.858
 ls_scf_dm_to_ks                     13  5.0    0.000    0.000   20.280   20.284
 matrix_qs_to_ls                   1613  7.5    0.016    0.020   16.525   16.659
 mp_sum_l                        199867  9.5    7.675   14.608    7.675   14.608
 calculate_norms                 730352 11.4   11.489   12.411   11.489   12.411
 qs_ks_update_qs_env                 14  6.0    0.000    0.000   12.178   12.181
 rebuild_ks_matrix                   14  7.0    0.000    0.000   12.168   12.171
 qs_ks_build_kohn_sham_matrix        14  8.0    0.002    0.002   12.168   12.171
 make_images_pack                 97802 11.4   10.896   11.125   11.029   11.262
 dbcsr_multiply_generic_mpsum_f   35918  9.5    0.026    0.031    4.527   10.542
 qs_rho_update_rho_low               14  6.0    0.000    0.000    9.583    9.585
 calculate_rho_elec                  14  7.0    0.005    0.005    9.583    9.585
 sum_up_and_integrate                14  9.0    0.000    0.000    9.219    9.223
 integrate_v_rspace                  14 10.0    0.000    0.001    9.206    9.210
 grid_collocate_task_list            14  8.0    8.500    8.627    8.500    8.627
 -------------------------------------------------------------------------------

 The number of warnings for this run is : 1
 
 -------------------------------------------------------------------------------
  **** **** ******  **  PROGRAM ENDED AT                 2024-09-24 00:00:33.195
 ***** ** ***  *** **   PROGRAM RAN ON                                    moritz
 **    ****   ******    PROGRAM RAN BY                                       ole
 ***** **    ** ** **   PROGRAM PROCESS ID                                164682
  **** **  *******  **  PROGRAM STOPPED IN /home/ole/git/pao_ml_equivar/64H2O_MD
                                           /Frame1300
