 DBCSR| CPU Multiplication driver                                           XSMM (U)
 DBCSR| Multrec recursion limit                                              512 (U)
 DBCSR| Multiplication stack size                                           1000 (D)
 DBCSR| Maximum elements for images                                    UNLIMITED (U)
 DBCSR| Multiplicative factor virtual images                                   1 (U)
 DBCSR| Use multiplication densification                                       T (D)
 DBCSR| Multiplication size stacks                                             3 (U)
 DBCSR| Use memory pool for CPU allocation                                     F (U)
 DBCSR| Number of 3D layers                                               SINGLE (U)
 DBCSR| Use MPI memory allocation                                              F (U)
 DBCSR| Use RMA algorithm                                                      F (U)
 DBCSR| Use Communication thread                                               T (U)
 DBCSR| Communication thread load                                             87 (D)
 DBCSR| MPI: My process id                                                     0
 DBCSR| MPI: Number of processes                                              32
 DBCSR| OMP: Current number of threads                                         1
 DBCSR| OMP: Max number of threads                                             1
 DBCSR| Split modifier for TAS multiplication algorithm                  1.0E+00 (U)


  **** **** ******  **  PROGRAM STARTED AT               2024-09-23 17:33:47.589
 ***** ** ***  *** **   PROGRAM STARTED ON                                moritz
 **    ****   ******    PROGRAM STARTED BY                                   ole
 ***** **    ** ** **   PROGRAM PROCESS ID                                155939
  **** **  *******  **  PROGRAM STARTED IN /home/ole/git/pao_ml_equivar/64H2O_MD
                                           /Frame1300

 CP2K| version string:                 CP2K version 2024.3 (Development Version)
 CP2K| source code revision number:                                  git:3f890bb
 CP2K| cp2kflags: omp libint fftw3 libxc libgrpp pexsi elpa parallel scalapack c
 CP2K|            osma quip deepmd xsmm plumed2 spglib libdftd4 sirius libvori l
 CP2K|            libbqb libvdwxc hdf5
 CP2K| is freely available from                            https://www.cp2k.org/
 CP2K| Program compiled at                          Mo 23 Sep 2024 17:17:04 CEST
 CP2K| Program compiled on                                                moritz
 CP2K| Program compiled for                                                local
 CP2K| Data directory path                               /home/ole/git/cp2k/data
 CP2K| Input file name                                             64H2O_ref.inp

 GLOBAL| Force Environment number                                              1
 GLOBAL| Basis set file name                                        BASIS_MOLOPT
 GLOBAL| Potential file name                                      GTH_POTENTIALS
 GLOBAL| MM Potential file name                                     MM_POTENTIAL
 GLOBAL| Coordinate file name                                         coords.xyz
 GLOBAL| Method name                                                        CP2K
 GLOBAL| Project name                                                  64H2O_ref
 GLOBAL| Run type                                                         ENERGY
 GLOBAL| FFT library                                                       FFTW3
 GLOBAL| Diagonalization library                                            ELPA
 GLOBAL| DGEMM library                                                      BLAS
 GLOBAL| Minimum number of eigenvectors for ELPA usage                        16
 GLOBAL| Orthonormality check for eigenvectors                          DISABLED
 GLOBAL| Matrix multiplication library                                     COSMA
 GLOBAL| All-to-all communication in single precision                          F
 GLOBAL| FFTs using library dependent lengths                                  F
 GLOBAL| Grid backend                                                       AUTO
 GLOBAL| Global print level                                                  LOW
 GLOBAL| MPI I/O enabled                                                       T
 GLOBAL| Total number of message passing processes                            32
 GLOBAL| Number of threads for this process                                    1
 GLOBAL| This output is from process                                           0
 GLOBAL| Stack size for threads created by OpenMP (OMP_STACKSIZE)        default
 GLOBAL| CPU model name           AMD Ryzen Threadripper 3970X 32-Core Processor
 GLOBAL| CPUID                                                              1002

 MEMORY| system memory details [Kb]
 MEMORY|                        rank 0           min           max       average
 MEMORY| MemTotal            131752136     131752136     131752136     131752136
 MEMORY| MemFree             118640576     118640576     118640576     118640576
 MEMORY| Buffers                259452        259452        259452        259452
 MEMORY| Cached                6925116       6925116       6925116       6925116
 MEMORY| Slab                   695836        695836        695836        695836
 MEMORY| SReclaimable           264964        264964        264964        264964
 MEMORY| MemLikelyFree       126090108     126090108     126090108     126090108


 GENERATE|  Preliminary Number of Bonds generated:                             0
 GENERATE|  Achieved consistency in connectivity generation.

 *******************************************************************************
 *******************************************************************************
 **                                                                           **
 **     #####                         ##              ##                      **
 **    ##   ##            ##          ##              ##                      **
 **   ##     ##                       ##            ######                    **
 **   ##     ##  ##   ##  ##   #####  ##  ##   ####   ##    #####    #####    **
 **   ##     ##  ##   ##  ##  ##      ## ##   ##      ##   ##   ##  ##   ##   **
 **   ##  ## ##  ##   ##  ##  ##      ####     ###    ##   ######   ######    **
 **    ##  ###   ##   ##  ##  ##      ## ##      ##   ##   ##       ##        **
 **     #######   #####   ##   #####  ##  ##  ####    ##    #####   ##        **
 **           ##                                                    ##        **
 **                                                                           **
 **                                                ... make the atoms dance   **
 **                                                                           **
 **            Copyright (C) by CP2K developers group (2000-2024)             **
 **                      J. Chem. Phys. 152, 194103 (2020)                    **
 **                                                                           **
 *******************************************************************************


 TOTAL NUMBERS AND MAXIMUM NUMBERS

  Total number of            - Atomic kinds:                                   2
                             - Atoms:                                        192
                             - Shell sets:                                   192
                             - Shells:                                       704
                             - Primitive Cartesian functions:               1344
                             - Cartesian basis functions:                   1536
                             - Spherical basis functions:                   1472

  Maximum angular momentum of- Orbital basis functions:                        2
                             - Local part of the GTH pseudopotential:          2
                             - Non-local part of the GTH pseudopotential:      0

 ------------------------------ Linear scaling SCF -----------------------------
 eps_scf:                                                              0.100E-07
 eps_filter:                                                           0.100E-11
 mixing_fraction:                                                      0.450E+00
 max_scf:                                                                     25
 fixed chemical potential (mu)                                                 F
 has unit metric:                                                              F
 Computing inv(S):                                                             T
 Computing sqrt(S):                                                            T
 Computing S preconditioner                                                    F
 S sqrt method:                                                     NEWTONSCHULZ
 S sqrt order:                                                                 3
 Extrapolation order:                                                          1
 S preconditioner type                                                      NONE
 Polarized Atomic Orbitals (PAO)                                               F
 Purification method                                   Trace resetting 4th order
 Cluster type                                                             ATOMIC
 Computing Chebyshev                                                       FALSE
 Using PAO                                                                     F
 -------------------------------------------------------------------------------


     Lanczos converged:  F threshold:   0.100E-02
     Est. extremal eigenvalues:    0.880E+01   0.558E-02
     Est. condition number :    0.158E+04

 Order=           3
     NS sqrt iter    1 1.00000000   0.227E+01       0.066     6121.978
     NS sqrt iter    2 1.00000000   0.119E+01       0.100     7991.043
     NS sqrt iter    3 1.00000000   0.588E+00       0.100     7961.660
     NS sqrt iter    4 1.00000000   0.337E+00       0.099     8068.233
     NS sqrt iter    5 1.00000000   0.227E+00       0.099     8075.696
     NS sqrt iter    6 1.00000000   0.108E+00       0.098     8099.468
     NS sqrt iter    7 1.00000000   0.142E-01       0.099     8029.003
     NS sqrt iter    8 1.00000000   0.765E-04       0.099     8020.399
     NS sqrt iter    9 1.00000000   0.431E-10       0.068     5968.442
     Symmetrizing Results
     Final NS sqrt iter    9 1.00000000   0.711E-11



 Guess for atomic kind: O

 Electronic structure
    Total number of core electrons                                          2.00
    Total number of valence electrons                                       6.00
    Total number of electrons                                               8.00
    Multiplicity                                                   not specified
    S   [  2.00] 2.00
    P      4.00


 *******************************************************************************
                  Iteration          Convergence                     Energy [au]
 *******************************************************************************
                          1        0.708315                     -15.576645311500
                          2        0.608879                     -15.587933561584
                          3        0.102828E-01                 -15.656849565404
                          4        0.113889E-02                 -15.656866888140
                          5        0.434197E-03                 -15.656867072159
                          6        0.263771E-03                 -15.656867091904
                          7        0.478536E-06                 -15.656867103452

 Energy components [Hartree]           Total Energy ::          -15.656867103452
                                        Band Energy ::           -3.000198112285
                                     Kinetic Energy ::           11.759971203220
                                   Potential Energy ::          -27.416838306672
                                      Virial (-V/T) ::            2.331369510426
                                        Core Energy ::          -26.140716385623
                                          XC Energy ::           -3.154051012914
                                     Coulomb Energy ::           13.637900295084
                       Total Pseudopotential Energy ::          -37.935781716540
                       Local Pseudopotential Energy ::          -39.218907440693
                    Nonlocal Pseudopotential Energy ::            1.283125724153
                                        Confinement ::            0.350941276976

 Orbital energies  State     L     Occupation   Energy[a.u.]          Energy[eV]

                       1     0          2.000      -0.864471          -23.523463

                       1     1          4.000      -0.317814           -8.648154


 Total Electron Density at R=0:                                         0.000068

 Guess for atomic kind: H

 Electronic structure
    Total number of core electrons                                          0.00
    Total number of valence electrons                                       1.00
    Total number of electrons                                               1.00
    Multiplicity                                                   not specified
    S      1.00


 *******************************************************************************
                  Iteration          Convergence                     Energy [au]
 *******************************************************************************
                          1        0.437545E-02                  -0.424159432110
                          2        0.531356E-03                  -0.424178438213
                          3        0.259176E-06                  -0.424178722480

 Energy components [Hartree]           Total Energy ::           -0.424178722480
                                        Band Energy ::           -0.199015229016
                                     Kinetic Energy ::            0.464007633961
                                   Potential Energy ::           -0.888186356441
                                      Virial (-V/T) ::            1.914163240935
                                        Core Energy ::           -0.479160803564
                                          XC Energy ::           -0.244352904054
                                     Coulomb Energy ::            0.299334985138
                       Total Pseudopotential Energy ::           -0.962295316385
                       Local Pseudopotential Energy ::           -0.962295316385
                    Nonlocal Pseudopotential Energy ::            0.000000000000
                                        Confinement ::            0.191268788606

 Orbital energies  State     L     Occupation   Energy[a.u.]          Energy[eV]

                       1     0          1.000      -0.199015           -5.415480


 Total Electron Density at R=0:                                         0.242907
 Re-scaling the density matrix to get the right number of electrons
                  # Electrons              Trace(P)               Scaling factor
                          512               512.001                        1.000
 Energy with the initial guess:     -1095.906128914

     Est. extremal eigenvalues     -0.94390     5.27132  converged:  T
     TRS4 it   1 1.00000000   0.565E+02       0.019     5375.269   0.100E-11
     TRS4 it   2 1.00000000   0.540E+02       0.018     5592.918   0.100E-11
     TRS4 it   3 1.00000000   0.340E+02       0.037     5496.259   0.100E-11
     TRS4 it   4 1.00000000   0.177E+02       0.036     5587.958   0.100E-11
     TRS4 it   5 1.00000000   0.106E+02       0.036     5620.342   0.100E-11
     TRS4 it   6 1.00000000   0.479E+01       0.037     5474.839   0.100E-11
     TRS4 it   7 1.00000000   0.141E+01       0.037     5492.522   0.100E-11
     TRS4 it   8 1.00000000   0.209E+00       0.036     5601.969   0.100E-11
     TRS4 it   9 1.00000000   0.863E-02       0.037     5482.656   0.100E-11
     TRS4 it  10 1.00000000   0.218E-04       0.036     5550.189   0.100E-11
     TRS4 it  11 1.00000000   0.459E-10       0.036     5599.797   0.100E-11
     Final TRS4 iteration   11 1.00000000   0.459E-10
     Chemical potential (mu):      -0.10641

 SCF     1     -1097.962359962     -1097.962359962    2.050241

*********************************************************
 Using MIXING_FRACTION=0.450 to mix KS matrix:  iscf=  2
 KS_nw=0.450*KS + 0.550*KS_old
*********************************************************
     Est. extremal eigenvalues     -0.83672     5.35218  converged:  T
     TRS4 it   1 1.00000000   0.558E+02       0.019     5367.429   0.100E-11
     TRS4 it   2 1.00000000   0.542E+02       0.019     5281.157   0.100E-11
     TRS4 it   3 1.00000000   0.352E+02       0.036     5552.491   0.100E-11
     TRS4 it   4 1.00000000   0.184E+02       0.036     5547.845   0.100E-11
     TRS4 it   5 1.00000000   0.118E+02       0.036     5514.210   0.100E-11
     TRS4 it   6 1.00000000   0.616E+01       0.036     5572.877   0.100E-11
     TRS4 it   7 1.00000000   0.244E+01       0.036     5588.288   0.100E-11
     TRS4 it   8 1.00000000   0.669E+00       0.036     5498.294   0.100E-11
     TRS4 it   9 1.00000000   0.100E+00       0.036     5540.253   0.100E-11
     TRS4 it  10 1.00000000   0.537E-02       0.036     5500.638   0.100E-11
     TRS4 it  11 1.00000000   0.970E-05       0.036     5514.812   0.100E-11
     TRS4 it  12 1.00000000   0.342E-10       0.036     5574.483   0.100E-11
     Final TRS4 iteration   12 1.00000000   0.342E-10
     Chemical potential (mu):      -0.01769

 SCF     2     -1102.969309881        -5.006949919    2.082008

*********************************************************
 Using MIXING_FRACTION=0.450 to mix KS matrix:  iscf=  3
 KS_nw=0.450*KS + 0.550*KS_old
*********************************************************
     Est. extremal eigenvalues     -0.84402     5.34355  converged:  T
     TRS4 it   1 1.00000000   0.559E+02       0.019     5378.401   0.100E-11
     TRS4 it   2 1.00000000   0.542E+02       0.019     5393.766   0.100E-11
     TRS4 it   3 1.00000000   0.350E+02       0.037     5394.376   0.100E-11
     TRS4 it   4 1.00000000   0.183E+02       0.036     5591.993   0.100E-11
     TRS4 it   5 1.00000000   0.116E+02       0.037     5483.342   0.100E-11
     TRS4 it   6 1.00000000   0.594E+01       0.036     5567.472   0.100E-11
     TRS4 it   7 1.00000000   0.226E+01       0.036     5584.858   0.100E-11
     TRS4 it   8 1.00000000   0.581E+00       0.036     5519.055   0.100E-11
     TRS4 it   9 1.00000000   0.760E-01       0.036     5566.141   0.100E-11
     TRS4 it  10 1.00000000   0.290E-02       0.036     5555.915   0.100E-11
     TRS4 it  11 1.00000000   0.256E-05       0.036     5599.813   0.100E-11
     TRS4 it  12 1.00000000   0.263E-11       0.036     5575.925   0.100E-11
     Final TRS4 iteration   12 1.00000000   0.263E-11
     Chemical potential (mu):      -0.02661

 SCF     3     -1103.125420677        -0.156110796    2.082178

*********************************************************
 Using MIXING_FRACTION=0.450 to mix KS matrix:  iscf=  4
 KS_nw=0.450*KS + 0.550*KS_old
*********************************************************
     Est. extremal eigenvalues     -0.84011     5.34865  converged:  T
     TRS4 it   1 1.00000000   0.559E+02       0.019     5307.893   0.100E-11
     TRS4 it   2 1.00000000   0.542E+02       0.019     5265.216   0.100E-11
     TRS4 it   3 1.00000000   0.351E+02       0.037     5490.940   0.100E-11
     TRS4 it   4 1.00000000   0.183E+02       0.036     5572.108   0.100E-11
     TRS4 it   5 1.00000000   0.117E+02       0.036     5532.489   0.100E-11
     TRS4 it   6 1.00000000   0.602E+01       0.036     5597.426   0.100E-11
     TRS4 it   7 1.00000000   0.233E+01       0.036     5611.284   0.100E-11
     TRS4 it   8 1.00000000   0.617E+00       0.036     5590.169   0.100E-11
     TRS4 it   9 1.00000000   0.869E-01       0.036     5530.419   0.100E-11
     TRS4 it  10 1.00000000   0.402E-02       0.036     5618.385   0.100E-11
     TRS4 it  11 1.00000000   0.617E-05       0.037     5494.139   0.100E-11
     TRS4 it  12 1.00000000   0.179E-10       0.036     5609.755   0.100E-11
     Final TRS4 iteration   12 1.00000000   0.179E-10
     Chemical potential (mu):      -0.02017

 SCF     4     -1103.133294259        -0.007873582    2.088832

*********************************************************
 Using MIXING_FRACTION=0.450 to mix KS matrix:  iscf=  5
 KS_nw=0.450*KS + 0.550*KS_old
*********************************************************
     Est. extremal eigenvalues     -0.83872     5.34922  converged:  T
     TRS4 it   1 1.00000000   0.559E+02       0.019     5320.308   0.100E-11
     TRS4 it   2 1.00000000   0.542E+02       0.018     5638.650   0.100E-11
     TRS4 it   3 1.00000000   0.351E+02       0.037     5476.329   0.100E-11
     TRS4 it   4 1.00000000   0.183E+02       0.036     5565.233   0.100E-11
     TRS4 it   5 1.00000000   0.117E+02       0.036     5538.231   0.100E-11
     TRS4 it   6 1.00000000   0.601E+01       0.036     5544.442   0.100E-11
     TRS4 it   7 1.00000000   0.233E+01       0.036     5502.922   0.100E-11
     TRS4 it   8 1.00000000   0.616E+00       0.036     5562.022   0.100E-11
     TRS4 it   9 1.00000000   0.868E-01       0.036     5557.745   0.100E-11
     TRS4 it  10 1.00000000   0.402E-02       0.036     5593.008   0.100E-11
     TRS4 it  11 1.00000000   0.630E-05       0.036     5623.971   0.100E-11
     TRS4 it  12 1.00000000   0.201E-10       0.037     5481.807   0.100E-11
     Final TRS4 iteration   12 1.00000000   0.201E-10
     Chemical potential (mu):      -0.01929

 SCF     5     -1103.133937813        -0.000643554    2.081478

*********************************************************
 Using MIXING_FRACTION=0.450 to mix KS matrix:  iscf=  6
 KS_nw=0.450*KS + 0.550*KS_old
*********************************************************
     Est. extremal eigenvalues     -0.83811     5.35000  converged:  T
     TRS4 it   1 1.00000000   0.559E+02       0.019     5304.842   0.100E-11
     TRS4 it   2 1.00000000   0.542E+02       0.019     5372.053   0.100E-11
     TRS4 it   3 1.00000000   0.351E+02       0.037     5479.871   0.100E-11
     TRS4 it   4 1.00000000   0.183E+02       0.036     5529.387   0.100E-11
     TRS4 it   5 1.00000000   0.117E+02       0.036     5555.185   0.100E-11
     TRS4 it   6 1.00000000   0.602E+01       0.037     5461.338   0.100E-11
     TRS4 it   7 1.00000000   0.233E+01       0.036     5568.024   0.100E-11
     TRS4 it   8 1.00000000   0.621E+00       0.036     5514.852   0.100E-11
     TRS4 it   9 1.00000000   0.883E-01       0.036     5585.334   0.100E-11
     TRS4 it  10 1.00000000   0.419E-02       0.036     5577.942   0.100E-11
     TRS4 it  11 1.00000000   0.712E-05       0.036     5567.179   0.100E-11
     TRS4 it  12 1.00000000   0.263E-10       0.036     5574.001   0.100E-11
     Final TRS4 iteration   12 1.00000000   0.263E-10
     Chemical potential (mu):      -0.01826

 SCF     6     -1103.134035174        -0.000097361    2.090562

*********************************************************
 Using MIXING_FRACTION=0.450 to mix KS matrix:  iscf=  7
 KS_nw=0.450*KS + 0.550*KS_old
*********************************************************
     Est. extremal eigenvalues     -0.83764     5.35028  converged:  T
     TRS4 it   1 1.00000000   0.559E+02       0.019     5225.341   0.100E-11
     TRS4 it   2 1.00000000   0.542E+02       0.019     5346.420   0.100E-11
     TRS4 it   3 1.00000000   0.351E+02       0.037     5475.409   0.100E-11
     TRS4 it   4 1.00000000   0.183E+02       0.037     5489.662   0.100E-11
     TRS4 it   5 1.00000000   0.117E+02       0.036     5528.732   0.100E-11
     TRS4 it   6 1.00000000   0.602E+01       0.036     5607.424   0.100E-11
     TRS4 it   7 1.00000000   0.234E+01       0.036     5514.892   0.100E-11
     TRS4 it   8 1.00000000   0.621E+00       0.036     5531.221   0.100E-11
     TRS4 it   9 1.00000000   0.885E-01       0.037     5487.241   0.100E-11
     TRS4 it  10 1.00000000   0.422E-02       0.036     5500.988   0.100E-11
     TRS4 it  11 1.00000000   0.731E-05       0.036     5547.991   0.100E-11
     TRS4 it  12 1.00000000   0.282E-10       0.036     5581.533   0.100E-11
     Final TRS4 iteration   12 1.00000000   0.282E-10
     Chemical potential (mu):      -0.01788

 SCF     7     -1103.134055722        -0.000020548    2.085299

*********************************************************
 Using MIXING_FRACTION=0.450 to mix KS matrix:  iscf=  8
 KS_nw=0.450*KS + 0.550*KS_old
*********************************************************
     Est. extremal eigenvalues     -0.83746     5.35046  converged:  T
     TRS4 it   1 1.00000000   0.559E+02       0.018     5458.240   0.100E-11
     TRS4 it   2 1.00000000   0.542E+02       0.019     5379.059   0.100E-11
     TRS4 it   3 1.00000000   0.351E+02       0.036     5505.394   0.100E-11
     TRS4 it   4 1.00000000   0.183E+02       0.036     5578.150   0.100E-11
     TRS4 it   5 1.00000000   0.117E+02       0.036     5601.780   0.100E-11
     TRS4 it   6 1.00000000   0.603E+01       0.036     5625.813   0.100E-11
     TRS4 it   7 1.00000000   0.234E+01       0.036     5618.355   0.100E-11
     TRS4 it   8 1.00000000   0.622E+00       0.036     5523.321   0.100E-11
     TRS4 it   9 1.00000000   0.888E-01       0.036     5542.977   0.100E-11
     TRS4 it  10 1.00000000   0.425E-02       0.036     5600.634   0.100E-11
     TRS4 it  11 1.00000000   0.749E-05       0.036     5515.147   0.100E-11
     TRS4 it  12 1.00000000   0.298E-10       0.036     5593.995   0.100E-11
     Final TRS4 iteration   12 1.00000000   0.298E-10
     Chemical potential (mu):      -0.01764

 SCF     8     -1103.134060652        -0.000004930    2.091681


 SCF run converged in     8 steps.

 Writing restart DM 64H2O_ref_LS_DM_SPIN_1_RESTART.dm with checksum:       0.62157384E+04

 ENERGY| Total FORCE_EVAL ( QS ) energy [a.u.]:            -1103.134060651890422

 -------------------------------------------------------------------------------
 -                                                                             -
 -                                DBCSR STATISTICS                             -
 -                                                                             -
 -------------------------------------------------------------------------------
 COUNTER                                    TOTAL       BLAS       SMM       ACC
 flops     5 x     5 x     5          79442365000       0.0%    100.0%      0.0%     
 flops    13 x     5 x     5         102870050400       0.0%    100.0%      0.0%     
 flops     5 x    13 x     5         102890733400       0.0%    100.0%      0.0%     
 flops     5 x     5 x    13         103402987350       0.0%    100.0%      0.0%     
 flops    13 x     5 x    13         133880723470       0.0%    100.0%      0.0%     
 flops     5 x    13 x    13         133953139970       0.0%    100.0%      0.0%     
 flops    13 x    13 x     5         135078627580       0.0%    100.0%      0.0%     
 flops    13 x    13 x    13         175832435090       0.0%    100.0%      0.0%     
 flops inhomo. stacks                           0       0.0%      0.0%      0.0%
 flops total                       967.351062E+09       0.0%    100.0%      0.0%
 flops max/rank                     31.049880E+09       0.0%    100.0%      0.0%
 matmuls inhomo. stacks                         0       0.0%      0.0%      0.0%
 matmuls total                         1071832274       0.0%    100.0%      0.0%
 number of processed stacks               1516931       0.0%    100.0%      0.0%
 average stack size                                     0.0     706.6       0.0
 marketing flops                     1.569237E+12
 -------------------------------------------------------------------------------
 # multiplications                            246
 max memory usage/rank             620.666880E+06
 # max total images/rank                        2
 # max 3D layers                                1
 # MPI messages exchanged                  102336
 MPI messages size (bytes):
  total size                        42.384052E+09
  min size                           0.000000E+00
  max size                         541.696000E+03
  average size                     414.165625E+03
 MPI breakdown and total messages size (bytes):
             size <=      128                 312                        0
       128 < size <=     8192                  42                   279312
      8192 < size <=    32768                  62                   841968
     32768 < size <=   131072                   0                        0
    131072 < size <=  4194304              101920              42382928960
   4194304 < size <= 16777216                   0                        0
  16777216 < size                               0                        0
 -------------------------------------------------------------------------------

 *** WARNING in dbcsr_mm.F:301 :: Using a non-square number of MPI ranks ***
 *** might lead to poor performance. Used ranks: 32 Suggested: 36 64     ***

 -------------------------------------------------------------------------------
 -                                                                             -
 -                      DBCSR MESSAGE PASSING PERFORMANCE                      -
 -                                                                             -
 -------------------------------------------------------------------------------
 ROUTINE             CALLS      AVE VOLUME [Bytes]
 MP_Bcast                9                     12.
 MP_Allreduce         1762                     34.
 MP_Alltoall           546                  34827.
 MP_ISend             8604                 170915.
 MP_IRecv             8238                 179109.
 -------------------------------------------------------------------------------

 -------------------------------------------------------------------------------
 -                                                                             -
 -                                DBM STATISTICS                               -
 -                                                                             -
 -------------------------------------------------------------------------------
    M  x    N  x    K                                          COUNT     PERCENT
 -------------------------------------------------------------------------------

 -------------------------------------------------------------------------------
 -                                                                             -
 -                                GRID STATISTICS                              -
 -                                                                             -
 -------------------------------------------------------------------------------
 LP    KERNEL             BACKEND                              COUNT     PERCENT
 2     collocate ortho    CPU                                7377246      28.83%
 2     integrate ortho    CPU                                7377246      28.83%
 3     collocate ortho    CPU                                4741047      18.53%
 3     integrate ortho    CPU                                4741047      18.53%
 4     collocate ortho    CPU                                 673272       2.63%
 4     integrate ortho    CPU                                 673272       2.63%
 0     collocate general  CPU                                   6144       0.02%
 -------------------------------------------------------------------------------

 MEMORY| Estimated peak process memory [MiB]                                 592

 -------------------------------------------------------------------------------
 -                                                                             -
 -                         MESSAGE PASSING PERFORMANCE                         -
 -                                                                             -
 -------------------------------------------------------------------------------

 ROUTINE             CALLS      AVE VOLUME [Bytes]
 MP_Group                5
 MP_Bcast             2357                 165394.
 MP_Allreduce         6331                    940.
 MP_Sync                 5
 MP_Alltoall           244
 MP_SendRecv           837                  18832.
 MP_ISendRecv          837                  18832.
 MP_Wait              2391
 MP_ISend             1406                 108579.
 MP_IRecv             1406                 108603.
 -------------------------------------------------------------------------------


 -------------------------------------------------------------------------------
 -                                                                             -
 -                           R E F E R E N C E S                               -
 -                                                                             -
 -------------------------------------------------------------------------------
 
 CP2K version 2024.3 (Development Version), the CP2K developers group (2024).
 CP2K is freely available from https://www.cp2k.org/ .
 
 T. D. Kuehne, M. Iannuzzi, M. Del Ben, V. V. Rybkin, P. Seewald, F. Stein, T. 
 Laino, R. Z. Khaliullin, O. Schuett, F. Schiffmann, D. Golze, J. Wilhelm, S. 
 Chulkov, M. H. Bani-Hashemian, V. Weber, U. Borstnik, M. Taillefumier, A. S. 
 Jakobovits, A. Lazzaro, H. Pabst, T. Mueller, R. Schade, M. Guidon, S. 
 Andermatt, N. Holmberg, G. K. Schenter, A. Hehn, A. Bussy, F. Belleflamme, G. 
 Tabacchi, A. Gloess, M. Lass, I. Bethune, C. J. Mundy, C. Plessl, M. Watkins, 
 J. VandeVondele, M. Krack, J. Hutter.
 J. Chem. Phys. 152, 194103 (2020).
 CP2K: An electronic structure and molecular dynamics software package - 
 Quickstep: Efficient and accurate electronic structure calculations.
 https://doi.org/10.1063/5.0007045

 O. Schuett, P. Messmer, J. Hutter, J. VandeVondele.
 Electronic Structure Calculations on Graphics Processing Units, 173-190 (2016).
 GPU-Accelerated Sparse Matrix-Matrix Multiplication for Linear Scaling Density 
 Functional Theory.
 https://doi.org/10.1002/9781118670712.ch8

 A. Heinecke, G. Henry, M. Hutchinson, H. Pabst.
 Proceedings of Intl. Supercomputing Conference, 981-991 (2016).
 LIBXSMM: Accelerating Small Matrix Multiplications by Runtime Code Generation.
 https://doi.org/10.1109/SC.2016.83

 J. Hutter, M. Iannuzzi, F. Schiffmann, J. VandeVondele.
 WIREs Comput Mol Sci. 4, 15-25 (2014).
 CP2K: atomistic simulations of condensed matter systems.
 https://doi.org/10.1002/wcms.1159

 U. Borstnik, J. VandeVondele, V. Weber, J. Hutter.
 Parallel Comput. 40, 47-58 (2014).
 Sparse matrix multiplication: The distributed block-compressed sparse row 
 library.
 https://doi.org/10.1016/j.parco.2014.03.012

 A. Marek, V. Blum, R. Johanni, V. Havu, B. Lang, T. Auckenthaler, A. Heinecke, 
 H. Bungartz, H. Lederer.
 J. Phys. Condens. Matter 26, 213201 (2014).
 The ELPA library: scalable parallel eigenvalue solutions for electronic 
 structure theory and computational science.
 https://doi.org/10.1088/0953-8984/26/21/213201

 J. VandeVondele, U. Borstnik, J. Hutter.
 J. Chem. Theory Comput. 8, 3565-3573 (2012).
 Linear Scaling Self-Consistent Field Calculations with Millions of Atoms in the 
 Condensed Phase.
 https://doi.org/10.1021/ct200897x

 J. VandeVondele, J. Hutter.
 J. Chem. Phys. 127, 114105 (2007).
 Gaussian basis sets for accurate calculations on molecular systems in gas and 
 condensed phases.
 https://doi.org/10.1063/1.2770708

 J. VandeVondele, M. Krack, F. Mohamed, M. Parrinello, T. Chassaing, J. Hutter.
 Comput. Phys. Commun. 167, 103-128 (2005).
 QUICKSTEP: Fast and accurate density functional calculations using a mixed 
 Gaussian and plane waves approach.
 https://doi.org/10.1016/j.cpc.2004.12.014

 M. Krack.
 Theor. Chem. Acc. 114, 145-152 (2005).
 Pseudopotentials for H to Kr optimized for gradient-corrected 
 exchange-correlation functionals.
 https://doi.org/10.1007/s00214-005-0655-y

 M. Frigo, S. G. Johnson.
 Proc. IEEE 93, 216-231 (2005).
 The design and implementation of FFTW3.
 https://doi.org/10.1109/JPROC.2004.840301

 A. M. N. Niklasson, C. J. Tymczak, M. Challacombe.
 J. Chem. Phys. 118, 8611-8620 (2003).
 Trace resetting density matrix purification in O(N) self-consistent-field 
 theory.
 https://doi.org/10.1063/1.1559913

 C. Hartwigsen, S. Goedecker, J. Hutter.
 Phys. Rev. B 58, 3641-3662 (1998).
 Relativistic separable dual-space Gaussian pseudopotentials from H to Rn.
 https://doi.org/10.1103/PhysRevB.58.3641

 G. Lippert, J. Hutter, M. Parrinello.
 Mol. Phys. 92, 477-487 (1997).
 A hybrid Gaussian and plane wave density functional scheme.
 https://doi.org/10.1080/002689797170220

 S. Goedecker, M. Teter, J. Hutter.
 Phys. Rev. B 54, 1703-1710 (1996).
 Separable dual-space Gaussian pseudopotentials.
 https://doi.org/10.1103/PhysRevB.54.1703

 J. P. Perdew, K. Burke, M. Ernzerhof.
 Phys. Rev. Lett. 77, 3865-3868 (1996).
 Generalized gradient approximation made simple.
 https://doi.org/10.1103/PhysRevLett.77.3865


 -------------------------------------------------------------------------------
 -                                                                             -
 -                                T I M I N G                                  -
 -                                                                             -
 -------------------------------------------------------------------------------
 SUBROUTINE                       CALLS  ASD         SELF TIME        TOTAL TIME
                                MAXIMUM       AVERAGE  MAXIMUM  AVERAGE  MAXIMUM
 CP2K                                 1  1.0    0.013    0.015   20.377   20.377
 qs_energies                          1  2.0    0.000    0.000   20.223   20.223
 ls_scf                               1  3.0    0.000    0.000   19.202   19.203
 ls_scf_main                          1  4.0    0.000    0.000   16.652   16.653
 ls_scf_dm_to_ks                      8  5.0    0.000    0.000   12.393   12.395
 qs_ks_update_qs_env                  9  6.1    0.000    0.000    7.798    7.799
 rebuild_ks_matrix                    9  7.1    0.000    0.000    7.791    7.792
 qs_ks_build_kohn_sham_matrix         9  8.1    0.002    0.002    7.791    7.792
 qs_rho_update_rho_low                9  6.1    0.000    0.000    6.143    6.146
 calculate_rho_elec                   9  7.1    0.003    0.003    6.143    6.146
 sum_up_and_integrate                 9  9.1    0.000    0.000    5.891    5.892
 integrate_v_rspace                   9 10.1    0.000    0.000    5.883    5.884
 grid_collocate_task_list             9  8.1    5.438    5.524    5.438    5.524
 grid_integrate_task_list             9 11.1    5.191    5.268    5.191    5.268
 dbcsr_multiply_generic             246  6.2    0.012    0.013    4.658    4.663
 density_matrix_trs4                  8  5.0    0.004    0.005    4.254    4.256
 multiply_cannon                    246  7.2    0.018    0.024    3.787    3.856
 multiply_cannon_loop               246  8.2    0.019    0.020    3.714    3.794
 ls_scf_init_scf                      1  4.0    0.000    0.000    2.486    2.487
 multiply_cannon_multrec           1968  9.2    2.101    2.171    2.107    2.178
 mp_waitall_1                     16729 10.5    1.751    1.883    1.751    1.883
 fft_wrap_pw1pw2                    172 11.3    0.003    0.004    1.764    1.793
 fft_wrap_pw1pw2_200                100 12.8    0.102    0.109    1.691    1.720
 qs_vxc_create                        9  9.1    0.000    0.000    1.554    1.583
 xc_vxc_pw_create                     9 10.1    0.013    0.018    1.554    1.582
 ls_scf_initial_guess                 1  5.0    0.000    0.000    1.552    1.554
 ls_scf_qs_atomic_guess               1  6.0    0.000    0.000    1.552    1.554
 multiply_cannon_metrocomm3        1968  9.2    0.005    0.006    1.369    1.486
 fft3d_ps                           172 13.3    0.719    0.799    1.328    1.367
 xc_pw_derive                        54 12.1    0.001    0.001    1.101    1.184
 qs_energies_init_hamiltonians        1  3.0    0.000    0.000    1.020    1.020
 ls_scf_init_matrix_S                 1  5.0    0.000    0.000    0.934    0.935
 matrix_sqrt_Newton_Schulz            1  6.0    0.001    0.001    0.911    0.911
 build_core_hamiltonian_matrix        1  4.0    0.000    0.000    0.698    0.829
 xc_rho_set_and_dset_create           9 11.1    0.020    0.024    0.783    0.802
 density_rs2pw                        9  8.1    0.000    0.001    0.672    0.779
 xc_pw_divergence                     9 11.1    0.000    0.000    0.738    0.776
 make_m2s                           492  7.2    0.005    0.007    0.680    0.691
 make_images                        492  8.2    0.039    0.041    0.670    0.681
 mp_waitany                        1406 12.5    0.510    0.643    0.510    0.643
 mp_alltoall_z22v                   172 15.3    0.436    0.633    0.436    0.633
 potential_pw2rs                      9 11.1    0.001    0.001    0.599    0.601
 build_core_ppl                       1  5.0    0.477    0.580    0.477    0.580
 transfer_rs2pw                      46  9.0    0.001    0.001    0.440    0.570
 transfer_rs2pw_200                  10  9.8    0.033    0.044    0.335    0.462
 arnoldi_extremal                     9  6.1    0.000    0.000    0.419    0.420
 arnoldi_normal_ev                    9  7.1    0.000    0.001    0.418    0.419
 yz_to_x                             64 14.2    0.059    0.081    0.282    0.416
 make_images_data                   492  9.2    0.005    0.007    0.374    0.408
 -------------------------------------------------------------------------------

 The number of warnings for this run is : 1
 
 -------------------------------------------------------------------------------
  **** **** ******  **  PROGRAM ENDED AT                 2024-09-23 17:34:08.539
 ***** ** ***  *** **   PROGRAM RAN ON                                    moritz
 **    ****   ******    PROGRAM RAN BY                                       ole
 ***** **    ** ** **   PROGRAM PROCESS ID                                155939
  **** **  *******  **  PROGRAM STOPPED IN /home/ole/git/pao_ml_equivar/64H2O_MD
                                           /Frame1300
