 DBCSR| CPU Multiplication driver                                           BLAS
 DBCSR| Multrec recursion limit                                              512
 DBCSR| Multiplication stack size                                           1000
 DBCSR| Maximum elements for images                                    UNLIMITED
 DBCSR| Multiplicative factor virtual images                                   1
 DBCSR| Use multiplication densification                                       T
 DBCSR| Multiplication size stacks                                             3


  **** **** ******  **  PROGRAM STARTED AT               2019-03-28 17:24:31.043
 ***** ** ***  *** **   PROGRAM STARTED ON        oleschuett.zrh.corp.google.com
 **    ****   ******    PROGRAM STARTED BY                            oleschuett
 ***** **    ** ** **   PROGRAM PROCESS ID                                  5715
  **** **  *******  **  PROGRAM STARTED IN /usr/local/google/home/oleschuett/git
                                           /pao_ml_equivar/2H2O_rotations/phi_18

 CP2K| version string:                    CP2K version 7.0 (Development Version)
 CP2K| source code revision number:                                git:d9814d431
 CP2K| cp2kflags: libint fftw3 libxc libderiv_max_am1=5 libint_max_am=6         
 CP2K| is freely available from                            https://www.cp2k.org/
 CP2K| Program compiled at                          Mon Mar 25 16:50:07 CET 2019
 CP2K| Program compiled on                        oleschuett.zrh.corp.google.com
 CP2K| Program compiled for                                                local
 CP2K| Data directory path       /usr/local/google/home/oleschuett/git/cp2k/data
 CP2K| Input file name                                              2H2O_ref.inp

 GLOBAL| Force Environment number                                              1
 GLOBAL| Basis set file name                                        BASIS_MOLOPT
 GLOBAL| Potential file name                                      GTH_POTENTIALS
 GLOBAL| MM Potential file name                                     MM_POTENTIAL
 GLOBAL| Coordinate file name                                         coords.xyz
 GLOBAL| Method name                                                        CP2K
 GLOBAL| Project name                                                   2H2O_ref
 GLOBAL| Preferred FFT library                                             FFTW3
 GLOBAL| Preferred diagonalization lib.                                       SL
 GLOBAL| Run type                                                         ENERGY
 GLOBAL| All-to-all communication in single precision                          F
 GLOBAL| FFTs using library dependent lengths                                  F
 GLOBAL| Global print level                                                  LOW
 GLOBAL| MPI I/O enabled                                                       T
 GLOBAL| Total number of message passing processes                             1
 GLOBAL| Number of threads for this process                                    1
 GLOBAL| This output is from process                                           0
 GLOBAL| CPU model name :  Intel(R) Xeon(R) CPU E5-1650 v4 @ 3.60GHz

 MEMORY| system memory details [Kb]
 MEMORY|                        rank 0           min           max       average
 MEMORY| MemTotal             65953612      65953612      65953612      65953612
 MEMORY| MemFree               4975764       4975764       4975764       4975764
 MEMORY| Buffers               2547700       2547700       2547700       2547700
 MEMORY| Cached               25357744      25357744      25357744      25357744
 MEMORY| Slab                  3623568       3623568       3623568       3623568
 MEMORY| SReclaimable          2423020       2423020       2423020       2423020
 MEMORY| MemLikelyFree        35304228      35304228      35304228      35304228


 GENERATE|  Preliminary Number of Bonds generated:                             0
 GENERATE|  Achieved consistency in connectivity generation.

 *******************************************************************************
 *******************************************************************************
 **                                                                           **
 **     #####                         ##              ##                      **
 **    ##   ##            ##          ##              ##                      **
 **   ##     ##                       ##            ######                    **
 **   ##     ##  ##   ##  ##   #####  ##  ##   ####   ##    #####    #####    **
 **   ##     ##  ##   ##  ##  ##      ## ##   ##      ##   ##   ##  ##   ##   **
 **   ##  ## ##  ##   ##  ##  ##      ####     ###    ##   ######   ######    **
 **    ##  ###   ##   ##  ##  ##      ## ##      ##   ##   ##       ##        **
 **     #######   #####   ##   #####  ##  ##  ####    ##    #####   ##        **
 **           ##                                                    ##        **
 **                                                                           **
 **                                                ... make the atoms dance   **
 **                                                                           **
 **            Copyright (C) by CP2K developers group (2000 - 2018)           **
 **                                                                           **
 *******************************************************************************


 TOTAL NUMBERS AND MAXIMUM NUMBERS

  Total number of            - Atomic kinds:                                   2
                             - Atoms:                                          6
                             - Shell sets:                                     6
                             - Shells:                                        22
                             - Primitive Cartesian functions:                 42
                             - Cartesian basis functions:                     48
                             - Spherical basis functions:                     46

  Maximum angular momentum of- Orbital basis functions:                        2
                             - Local part of the GTH pseudopotential:          2
                             - Non-local part of the GTH pseudopotential:      0

 ------------------------------ Linear scaling SCF -----------------------------
 eps_scf:                                                              0.100E-07
 eps_filter:                                                           0.100E-07
 mixing_fraction:                                                      0.450E+00
 max_scf:                                                                     25
 fixed chemical potential (mu)                                                 F
 has unit metric:                                                              F
 Computing inv(S):                                                             T
 Computing sqrt(S):                                                            T
 Computing s preconditioner                                                    F
 sign sqrt order:                                                              3
 Extrapolation order:                                                          4
 Use single precision matrices                                                 F
 S preconditioner type                                                      NONE
 Polarized Atomic Orbitals (PAO)                                               F
 Purification method                                   Trace resetting 4th order
 Cluster type                                                             ATOMIC
 Computing Chebyshev                                                       FALSE
 Using PAO                                                                     F
 -------------------------------------------------------------------------------


     Lanczos converged:  T threshold:   0.100E-02
     Est. extremal eigenvalues:    0.405E+01   0.114E-01
     Est. condition number :    0.355E+03
     NS sqrt iter    1 1.00000000   0.105E+01       0.002      232.678
     NS sqrt iter    2 1.00000000   0.616E+00       0.002      404.980
     NS sqrt iter    3 1.00000000   0.342E+00       0.002      416.140
     NS sqrt iter    4 1.00000000   0.233E+00       0.002      407.314
     NS sqrt iter    5 1.00000000   0.117E+00       0.002      414.110
     NS sqrt iter    6 1.00000000   0.144E-01       0.002      414.379
     NS sqrt iter    7 1.00000000   0.351E-04       0.002      353.496
     Final NS sqrt iter    7 1.00000000   0.688E-08



 Guess for atomic kind: O

 Electronic structure
    Total number of core electrons                                          2.00
    Total number of valence electrons                                       6.00
    Total number of electrons                                               8.00
    Multiplicity                                                   not specified
    S   [  2.00] 2.00
    P      4.00


 *******************************************************************************
                  Iteration          Convergence                     Energy [au]
 *******************************************************************************
                          1        0.708315                     -15.576645311500
                          2        0.608879                     -15.587933561584
                          3        0.102828E-01                 -15.656849565404
                          4        0.113889E-02                 -15.656866888140
                          5        0.434197E-03                 -15.656867072159
                          6        0.263771E-03                 -15.656867091904
                          7        0.478536E-06                 -15.656867103452

 Energy components [Hartree]           Total Energy ::          -15.656867103452
                                        Band Energy ::           -3.000198112285
                                     Kinetic Energy ::           11.759971203220
                                   Potential Energy ::          -27.416838306672
                                      Virial (-V/T) ::            2.331369510426
                                        Core Energy ::          -26.140716385623
                                          XC Energy ::           -3.154051012914
                                     Coulomb Energy ::           13.637900295084
                       Total Pseudopotential Energy ::          -37.935781716540
                       Local Pseudopotential Energy ::          -39.218907440693
                    Nonlocal Pseudopotential Energy ::            1.283125724153
                                        Confinement ::            0.350941276976

 Orbital energies  State     L     Occupation   Energy[a.u.]          Energy[eV]

                       1     0          2.000      -0.864471          -23.523463

                       1     1          4.000      -0.317814           -8.648154


 Total Electron Density at R=0:                                         0.000068

 Guess for atomic kind: H

 Electronic structure
    Total number of core electrons                                          0.00
    Total number of valence electrons                                       1.00
    Total number of electrons                                               1.00
    Multiplicity                                                   not specified
    S      1.00


 *******************************************************************************
                  Iteration          Convergence                     Energy [au]
 *******************************************************************************
                          1        0.437545E-02                  -0.424159432110
                          2        0.531356E-03                  -0.424178438213
                          3        0.259176E-06                  -0.424178722480

 Energy components [Hartree]           Total Energy ::           -0.424178722480
                                        Band Energy ::           -0.199015229016
                                     Kinetic Energy ::            0.464007633961
                                   Potential Energy ::           -0.888186356441
                                      Virial (-V/T) ::            1.914163240935
                                        Core Energy ::           -0.479160803564
                                          XC Energy ::           -0.244352904054
                                     Coulomb Energy ::            0.299334985138
                       Total Pseudopotential Energy ::           -0.962295316385
                       Local Pseudopotential Energy ::           -0.962295316385
                    Nonlocal Pseudopotential Energy ::            0.000000000000
                                        Confinement ::            0.191268788606

 Orbital energies  State     L     Occupation   Energy[a.u.]          Energy[eV]

                       1     0          1.000      -0.199015           -5.415480


 Total Electron Density at R=0:                                         0.242907
 Re-scaling the density matrix to get the right number of electrons
                  # Electrons              Trace(P)               Scaling factor
                           16                15.990                        1.001
 Energy with the initial guess:       -34.130491329

     Est. extremal eigenvalues     -1.07108     3.74893  converged:  T
     TRS4 it   1 1.00000000   0.179E+01       0.001      117.484   0.100E-07
     TRS4 it   2 1.00000000   0.156E+01       0.001      117.484   0.100E-07
     TRS4 it   3 1.00000000   0.890E+00       0.001      175.770   0.100E-07
     TRS4 it   4 1.00000000   0.554E+00       0.001      178.070   0.100E-07
     TRS4 it   5 1.00000000   0.330E+00       0.001      186.173   0.100E-07
     TRS4 it   6 1.00000000   0.150E+00       0.001      200.442   0.100E-07
     TRS4 it   7 1.00000000   0.413E-01       0.001      215.184   0.100E-07
     TRS4 it   8 1.00000000   0.409E-02       0.001      220.072   0.100E-07
     TRS4 it   9 1.00000000   0.504E-04       0.001      223.992   0.100E-07
     TRS4 it  10 1.00000000   0.774E-08       0.001      227.059   0.100E-07
     Final TRS4 iteration   10 1.00000000   0.774E-08
     Chemical potential (mu):      -0.22811

 SCF     1       -34.246993587       -34.246993587    2.315550

*********************************************************
 Using MIXING_FRACTION=0.450 to mix KS matrix:  iscf=  2
 KS_nw=0.450*KS + 0.550*KS_old
*********************************************************
     Est. extremal eigenvalues     -0.92879     3.87879  converged:  T
     TRS4 it   1 1.00000000   0.176E+01       0.001      117.484   0.100E-07
     TRS4 it   2 1.00000000   0.159E+01       0.001      117.484   0.100E-07
     TRS4 it   3 1.00000000   0.954E+00       0.001      187.241   0.100E-07
     TRS4 it   4 1.00000000   0.592E+00       0.001      186.317   0.100E-07
     TRS4 it   5 1.00000000   0.395E+00       0.001      185.960   0.100E-07
     TRS4 it   6 1.00000000   0.228E+00       0.001      187.669   0.100E-07
     TRS4 it   7 1.00000000   0.104E+00       0.001      199.002   0.100E-07
     TRS4 it   8 1.00000000   0.295E-01       0.001      208.618   0.100E-07
     TRS4 it   9 1.00000000   0.330E-02       0.001      215.325   0.100E-07
     TRS4 it  10 1.00000000   0.469E-04       0.001      209.277   0.100E-07
     TRS4 it  11 1.00000000   0.977E-08       0.001      220.425   0.100E-07
     Final TRS4 iteration   11 1.00000000   0.977E-08
     Chemical potential (mu):      -0.11538

 SCF     2       -34.440046339        -0.193052753    2.321013

*********************************************************
 Using MIXING_FRACTION=0.450 to mix KS matrix:  iscf=  3
 KS_nw=0.450*KS + 0.550*KS_old
*********************************************************
     Est. extremal eigenvalues     -0.95157     3.86771  converged:  T
     TRS4 it   1 1.00000000   0.176E+01       0.001      117.484   0.100E-07
     TRS4 it   2 1.00000000   0.158E+01       0.001      117.484   0.100E-07
     TRS4 it   3 1.00000000   0.944E+00       0.001      204.756   0.100E-07
     TRS4 it   4 1.00000000   0.590E+00       0.001      202.992   0.100E-07
     TRS4 it   5 1.00000000   0.389E+00       0.001      202.555   0.100E-07
     TRS4 it   6 1.00000000   0.219E+00       0.001      204.401   0.100E-07
     TRS4 it   7 1.00000000   0.951E-01       0.001      207.195   0.100E-07
     TRS4 it   8 1.00000000   0.247E-01       0.001      205.185   0.100E-07
     TRS4 it   9 1.00000000   0.239E-02       0.001      216.243   0.100E-07
     TRS4 it  10 1.00000000   0.256E-04       0.001      212.574   0.100E-07
     TRS4 it  11 1.00000000   0.295E-08       0.001      221.192   0.100E-07
     Final TRS4 iteration   11 1.00000000   0.295E-08
     Chemical potential (mu):      -0.12583

 SCF     3       -34.449638658        -0.009592319    2.324732

*********************************************************
 Using MIXING_FRACTION=0.450 to mix KS matrix:  iscf=  4
 KS_nw=0.450*KS + 0.550*KS_old
*********************************************************
     Est. extremal eigenvalues     -0.94002     3.88033  converged:  T
     TRS4 it   1 1.00000000   0.176E+01       0.001      117.484   0.100E-07
     TRS4 it   2 1.00000000   0.159E+01       0.001      117.484   0.100E-07
     TRS4 it   3 1.00000000   0.948E+00       0.001      206.621   0.100E-07
     TRS4 it   4 1.00000000   0.593E+00       0.001      214.294   0.100E-07
     TRS4 it   5 1.00000000   0.394E+00       0.001      217.667   0.100E-07
     TRS4 it   6 1.00000000   0.225E+00       0.001      222.420   0.100E-07
     TRS4 it   7 1.00000000   0.102E+00       0.001      224.410   0.100E-07
     TRS4 it   8 1.00000000   0.286E-01       0.001      220.291   0.100E-07
     TRS4 it   9 1.00000000   0.329E-02       0.001      209.244   0.100E-07
     TRS4 it  10 1.00000000   0.502E-04       0.001      204.576   0.100E-07
     TRS4 it  11 1.00000000   0.114E-07       0.001      204.205   0.100E-07
     Final TRS4 iteration   11 1.00000000   0.114E-07
     Chemical potential (mu):      -0.11561

 SCF     4       -34.450351191        -0.000712533    2.312576

*********************************************************
 Using MIXING_FRACTION=0.450 to mix KS matrix:  iscf=  5
 KS_nw=0.450*KS + 0.550*KS_old
*********************************************************
     Est. extremal eigenvalues     -0.94033     3.88211  converged:  T
     TRS4 it   1 1.00000000   0.176E+01       0.001      117.484   0.100E-07
     TRS4 it   2 1.00000000   0.159E+01       0.001      117.484   0.100E-07
     TRS4 it   3 1.00000000   0.948E+00       0.001      211.160   0.100E-07
     TRS4 it   4 1.00000000   0.593E+00       0.001      200.040   0.100E-07
     TRS4 it   5 1.00000000   0.394E+00       0.001      206.110   0.100E-07
     TRS4 it   6 1.00000000   0.226E+00       0.001      211.063   0.100E-07
     TRS4 it   7 1.00000000   0.102E+00       0.001      215.128   0.100E-07
     TRS4 it   8 1.00000000   0.290E-01       0.001      219.261   0.100E-07
     TRS4 it   9 1.00000000   0.345E-02       0.001      216.685   0.100E-07
     TRS4 it  10 1.00000000   0.556E-04       0.001      219.625   0.100E-07
     TRS4 it  11 1.00000000   0.141E-07       0.001      211.874   0.100E-07
     Final TRS4 iteration   11 1.00000000   0.141E-07
     Chemical potential (mu):      -0.11437

 SCF     5       -34.450409823        -0.000058632    2.246280

*********************************************************
 Using MIXING_FRACTION=0.450 to mix KS matrix:  iscf=  6
 KS_nw=0.450*KS + 0.550*KS_old
*********************************************************
     Est. extremal eigenvalues     -0.93874     3.88428  converged:  T
     TRS4 it   1 1.00000000   0.176E+01       0.001      117.484   0.100E-07
     TRS4 it   2 1.00000000   0.159E+01       0.001      117.484   0.100E-07
     TRS4 it   3 1.00000000   0.949E+00       0.001      234.968   0.100E-07
     TRS4 it   4 1.00000000   0.594E+00       0.001      234.968   0.100E-07
     TRS4 it   5 1.00000000   0.395E+00       0.001      234.968   0.100E-07
     TRS4 it   6 1.00000000   0.227E+00       0.001      234.968   0.100E-07
     TRS4 it   7 1.00000000   0.103E+00       0.001      234.968   0.100E-07
     TRS4 it   8 1.00000000   0.297E-01       0.001      234.968   0.100E-07
     TRS4 it   9 1.00000000   0.364E-02       0.001      234.968   0.100E-07
     TRS4 it  10 1.00000000   0.624E-04       0.001      234.968   0.100E-07
     TRS4 it  11 1.00000000   0.177E-07       0.001      234.968   0.100E-07
     Final TRS4 iteration   11 1.00000000   0.177E-07
     Chemical potential (mu):      -0.11266

 SCF     6       -34.450416481        -0.000006658    2.121193

*********************************************************
 Using MIXING_FRACTION=0.450 to mix KS matrix:  iscf=  7
 KS_nw=0.450*KS + 0.550*KS_old
*********************************************************
     Est. extremal eigenvalues     -0.93839     3.88509  converged:  T
     TRS4 it   1 1.00000000   0.176E+01       0.001      117.484   0.100E-07
     TRS4 it   2 1.00000000   0.159E+01       0.001      117.484   0.100E-07
     TRS4 it   3 1.00000000   0.949E+00       0.001      206.169   0.100E-07
     TRS4 it   4 1.00000000   0.594E+00       0.001      211.290   0.100E-07
     TRS4 it   5 1.00000000   0.396E+00       0.001      216.125   0.100E-07
     TRS4 it   6 1.00000000   0.227E+00       0.001      217.027   0.100E-07
     TRS4 it   7 1.00000000   0.104E+00       0.001      214.372   0.100E-07
     TRS4 it   8 1.00000000   0.300E-01       0.001      218.637   0.100E-07
     TRS4 it   9 1.00000000   0.372E-02       0.001      215.616   0.100E-07
     TRS4 it  10 1.00000000   0.653E-04       0.001      217.940   0.100E-07
     TRS4 it  11 1.00000000   0.194E-07       0.001      218.528   0.100E-07
     Final TRS4 iteration   11 1.00000000   0.194E-07
     Chemical potential (mu):      -0.11204

 SCF     7       -34.450417637        -0.000001156    2.389700

*********************************************************
 Using MIXING_FRACTION=0.450 to mix KS matrix:  iscf=  8
 KS_nw=0.450*KS + 0.550*KS_old
*********************************************************
     Est. extremal eigenvalues     -0.93807     3.88560  converged:  T
     TRS4 it   1 1.00000000   0.176E+01       0.001      117.484   0.100E-07
     TRS4 it   2 1.00000000   0.159E+01       0.001      117.484   0.100E-07
     TRS4 it   3 1.00000000   0.949E+00       0.001      167.785   0.100E-07
     TRS4 it   4 1.00000000   0.594E+00       0.002      154.261   0.100E-07
     TRS4 it   5 1.00000000   0.396E+00       0.002      146.417   0.100E-07
     TRS4 it   6 1.00000000   0.228E+00       0.001      173.912   0.100E-07
     TRS4 it   7 1.00000000   0.104E+00       0.001      192.193   0.100E-07
     TRS4 it   8 1.00000000   0.302E-01       0.001      195.484   0.100E-07
     TRS4 it   9 1.00000000   0.377E-02       0.002      140.166   0.100E-07
     TRS4 it  10 1.00000000   0.671E-04       0.002      154.938   0.100E-07
     TRS4 it  11 1.00000000   0.205E-07       0.001      217.487   0.100E-07
     Final TRS4 iteration   11 1.00000000   0.205E-07
     Chemical potential (mu):      -0.11164

 SCF     8       -34.450417910        -0.000000273    2.338284

*********************************************************
 Using MIXING_FRACTION=0.450 to mix KS matrix:  iscf=  9
 KS_nw=0.450*KS + 0.550*KS_old
*********************************************************
     Est. extremal eigenvalues     -0.93794     3.88585  converged:  T
     TRS4 it   1 1.00000000   0.176E+01       0.001      117.484   0.100E-07
     TRS4 it   2 1.00000000   0.159E+01       0.001      117.484   0.100E-07
     TRS4 it   3 1.00000000   0.949E+00       0.001      226.370   0.100E-07
     TRS4 it   4 1.00000000   0.594E+00       0.001      226.763   0.100E-07
     TRS4 it   5 1.00000000   0.396E+00       0.001      234.968   0.100E-07
     TRS4 it   6 1.00000000   0.228E+00       0.002      155.666   0.100E-07
     TRS4 it   7 1.00000000   0.104E+00       0.002      141.575   0.100E-07
     TRS4 it   8 1.00000000   0.303E-01       0.002      150.146   0.100E-07
     TRS4 it   9 1.00000000   0.379E-02       0.001      164.557   0.100E-07
     TRS4 it  10 1.00000000   0.681E-04       0.001      169.660   0.100E-07
     TRS4 it  11 1.00000000   0.211E-07       0.001      170.736   0.100E-07
     Final TRS4 iteration   11 1.00000000   0.211E-07
     Chemical potential (mu):      -0.11145

 SCF     9       -34.450417983        -0.000000073    2.449128

 Writing restart DM 2H2O_ref_LS_DM_SPIN_1_RESTART.dm with checksum:       0.74023651E+02

 ENERGY| Total FORCE_EVAL ( QS ) energy (a.u.):              -34.450417983017900


 -------------------------------------------------------------------------------
 -                                                                             -
 -                                DBCSR STATISTICS                             -
 -                                                                             -
 -------------------------------------------------------------------------------
 COUNTER                                    TOTAL       BLAS       SMM       ACC
 flops     5 x     5 x     5              2778000     100.0%      0.0%      0.0%
 flops     5 x    13 x     5              3120000     100.0%      0.0%      0.0%
 flops    13 x     5 x     5              3120000     100.0%      0.0%      0.0%
 flops     5 x     5 x    13              3601000     100.0%      0.0%      0.0%
 flops    13 x     5 x    13              4062760     100.0%      0.0%      0.0%
 flops     5 x    13 x    13              4062760     100.0%      0.0%      0.0%
 flops    13 x    13 x     5              5313360     100.0%      0.0%      0.0%
 flops    13 x    13 x    13              6938126     100.0%      0.0%      0.0%
 flops inhomo. stacks                           0       0.0%      0.0%      0.0%
 flops total                        32.996006E+06     100.0%      0.0%      0.0%
 flops max/rank                     32.996006E+06     100.0%      0.0%      0.0%
 matmuls inhomo. stacks                         0       0.0%      0.0%      0.0%
 matmuls total                              35783     100.0%      0.0%      0.0%
 number of processed stacks                  1960     100.0%      0.0%      0.0%
 average stack size                                    18.3       0.0       0.0
 marketing flops                    47.889312E+06
 -------------------------------------------------------------------------------
 # multiplications                            246
 max memory usage/rank             327.446528E+06
 # max total images/rank                        1
 # max 3D layers                                1
 # MPI messages exchanged                       0
 MPI messages size (bytes):
  total size                         0.000000E+00
  min size                           0.000000E+00
  max size                           0.000000E+00
  average size                       0.000000E+00
 MPI breakdown and total messages size (bytes):
             size <=      128                   0                        0
       128 < size <=     8192                   0                        0
      8192 < size <=    32768                   0                        0
     32768 < size <=   131072                   0                        0
    131072 < size <=  4194304                   0                        0
   4194304 < size <= 16777216                   0                        0
  16777216 < size                               0                        0
 -------------------------------------------------------------------------------

 MEMORY| Estimated peak process memory [MiB]                                 313

 -------------------------------------------------------------------------------
 -                                                                             -
 -                           R E F E R E N C E S                               -
 -                                                                             -
 -------------------------------------------------------------------------------
 
 CP2K version 7.0 (Development Version), the CP2K developers group (2018).
 CP2K is freely available from https://www.cp2k.org/ .

 Schuett, Ole; Messmer, Peter; Hutter, Juerg; VandeVondele, Joost. 
 Electronic Structure Calculations on Graphics Processing Units, John Wiley & Sons, Ltd, 173-190 (2016). 
 GPU-Accelerated Sparse Matrix-Matrix Multiplication for Linear Scaling Density Functional Theory.
 https://dx.doi.org/10.1002/9781118670712.ch8


 Borstnik, U; VandeVondele, J; Weber, V; Hutter, J. 
 PARALLEL COMPUTING, 40 (5-6), 47-58 (2014). 
 Sparse matrix multiplication: The distributed block-compressed sparse
 row library.
 https://dx.doi.org/10.1016/j.parco.2014.03.012


 Hutter, J; Iannuzzi, M; Schiffmann, F; VandeVondele, J. 
 WILEY INTERDISCIPLINARY REVIEWS-COMPUTATIONAL MOLECULAR SCIENCE, 4 (1), 15-25 (2014). 
 CP2K: atomistic simulations of condensed matter systems.
 https://dx.doi.org/10.1002/wcms.1159


 VandeVondele, J; Borstnik, U; Hutter, J. 
 JOURNAL OF CHEMICAL THEORY AND COMPUTATION, 8 (10), 3565-3573 (2012). 
 Linear Scaling Self-Consistent Field Calculations with Millions of Atoms
 in the Condensed Phase.
 https://dx.doi.org/10.1021/ct200897x


 VandeVondele, J; Hutter, J. 
 JOURNAL OF CHEMICAL PHYSICS, 127 (11), 114105 (2007). 
 Gaussian basis sets for accurate calculations on molecular systems in
 gas and condensed phases.
 https://dx.doi.org/10.1063/1.2770708


 Krack, M. 
 THEORETICAL CHEMISTRY ACCOUNTS, 114 (1-3), 145-152 (2005). 
 Pseudopotentials for H to Kr optimized for gradient-corrected
 exchange-correlation functionals.
 https://dx.doi.org/10.1007/s00214-005-0655-y


 VandeVondele, J; Krack, M; Mohamed, F; Parrinello, M; Chassaing, T;
 Hutter, J. COMPUTER PHYSICS COMMUNICATIONS, 167 (2), 103-128 (2005). 
 QUICKSTEP: Fast and accurate density functional calculations using a
 mixed Gaussian and plane waves approach.
 https://dx.doi.org/10.1016/j.cpc.2004.12.014


 Frigo, M; Johnson, SG. 
 PROCEEDINGS OF THE IEEE, 93 (2), 216-231 (2005). 
 The design and implementation of FFTW3.
 https://dx.doi.org/10.1109/JPROC.2004.840301


 Niklasson, AMN; Tymczak, CJ; Challacombe, M. 
 JOURNAL OF CHEMICAL PHYSICS, 118 (19), 8611-8620 (2003). 
 Trace resetting density matrix purification in O(N)
 self-consistent-field theory.
 https://dx.doi.org/10.1063/1.1559913


 Hartwigsen, C; Goedecker, S; Hutter, J. 
 PHYSICAL REVIEW B, 58 (7), 3641-3662 (1998). 
 Relativistic separable dual-space Gaussian pseudopotentials from H to Rn.
 https://dx.doi.org/10.1103/PhysRevB.58.3641


 Lippert, G; Hutter, J; Parrinello, M. 
 MOLECULAR PHYSICS, 92 (3), 477-487 (1997). 
 A hybrid Gaussian and plane wave density functional scheme.
 https://dx.doi.org/10.1080/002689797170220


 Perdew, JP; Burke, K; Ernzerhof, M. 
 PHYSICAL REVIEW LETTERS, 77 (18), 3865-3868 (1996). 
 Generalized gradient approximation made simple.
 https://dx.doi.org/10.1103/PhysRevLett.77.3865


 Goedecker, S; Teter, M; Hutter, J. 
 PHYSICAL REVIEW B, 54 (3), 1703-1710 (1996). 
 Separable dual-space Gaussian pseudopotentials.
 https://dx.doi.org/10.1103/PhysRevB.54.1703


 -------------------------------------------------------------------------------
 -                                                                             -
 -                                T I M I N G                                  -
 -                                                                             -
 -------------------------------------------------------------------------------
 SUBROUTINE                       CALLS  ASD         SELF TIME        TOTAL TIME
                                MAXIMUM       AVERAGE  MAXIMUM  AVERAGE  MAXIMUM
 CP2K                                 1  1.0    0.012    0.012   23.852   23.852
 qs_energies                          1  2.0    0.000    0.000   23.380   23.380
 ls_scf                               1  3.0    0.000    0.000   23.222   23.222
 ls_scf_main                          1  4.0    0.001    0.001   20.819   20.819
 ls_scf_dm_to_ks                      9  5.0    0.000    0.000   20.663   20.663
 qs_ks_update_qs_env                 10  6.1    0.000    0.000   16.454   16.454
 rebuild_ks_matrix                   10  7.1    0.000    0.000   16.454   16.454
 qs_ks_build_kohn_sham_matrix        10  8.1    0.001    0.001   16.454   16.454
 qs_vxc_create                       10  9.1    0.000    0.000   10.026   10.026
 xc_vxc_pw_create                    10 10.1    0.117    0.117   10.025   10.025
 xc_rho_set_and_dset_create          10 11.1    0.036    0.036    7.397    7.397
 pw_transfer                        191 10.7    0.015    0.015    6.592    6.592
 qs_rho_update_rho                   10  6.1    0.000    0.000    6.589    6.589
 calculate_rho_elec                  10  7.1    5.199    5.199    6.589    6.589
 fft_wrap_pw1pw2                    171 11.8    0.002    0.002    6.505    6.505
 fft_wrap_pw1pw2_200                111 12.9    0.329    0.329    6.229    6.229
 sum_up_and_integrate                10  9.1    0.018    0.018    5.528    5.528
 integrate_v_rspace                  10 10.1    4.783    4.783    5.511    5.511
 xc_functional_eval                  10 12.1    0.000    0.000    5.271    5.271
 pbe_lda_eval                        10 13.1    5.271    5.271    5.271    5.271
 fft3d_s                            172 13.7    3.509    3.509    3.526    3.526
 ls_scf_init_scf                      1  4.0    0.000    0.000    2.402    2.402
 ls_scf_initial_guess                 1  5.0    0.000    0.000    2.383    2.383
 ls_scf_qs_atomic_guess               1  6.0    0.000    0.000    2.383    2.383
 pw_gather_s                         81 13.2    1.487    1.487    1.487    1.487
 density_rs2pw                       10  8.1    0.001    0.001    1.375    1.375
 pw_scatter_s                        90 14.3    1.149    1.149    1.149    1.149
 potential_pw2rs                     10 11.1    0.002    0.002    0.726    0.726
 -------------------------------------------------------------------------------

 The number of warnings for this run is : 0
 
 -------------------------------------------------------------------------------
  **** **** ******  **  PROGRAM ENDED AT                 2019-03-28 17:24:54.981
 ***** ** ***  *** **   PROGRAM RAN ON            oleschuett.zrh.corp.google.com
 **    ****   ******    PROGRAM RAN BY                                oleschuett
 ***** **    ** ** **   PROGRAM PROCESS ID                                  5715
  **** **  *******  **  PROGRAM STOPPED IN /usr/local/google/home/oleschuett/git
                                           /pao_ml_equivar/2H2O_rotations/phi_18
