 DBCSR| CPU Multiplication driver                                           XSMM (U)
 DBCSR| Multrec recursion limit                                              512 (U)
 DBCSR| Multiplication stack size                                           1000 (D)
 DBCSR| Maximum elements for images                                    UNLIMITED (U)
 DBCSR| Multiplicative factor virtual images                                   1 (U)
 DBCSR| Use multiplication densification                                       T (D)
 DBCSR| Multiplication size stacks                                             3 (U)
 DBCSR| Use memory pool for CPU allocation                                     F (U)
 DBCSR| OMP: Current number of threads                                         1
 DBCSR| OMP: Max number of threads                                             1
 DBCSR| Split modifier for TAS multiplication algorithm                  1.0E+00 (U)


  **** **** ******  **  PROGRAM STARTED AT               2023-02-01 10:45:19.663
 ***** ** ***  *** **   PROGRAM STARTED ON                                moritz
 **    ****   ******    PROGRAM STARTED BY                                   ole
 ***** **    ** ** **   PROGRAM PROCESS ID                                148589
  **** **  *******  **  PROGRAM STARTED IN /home/ole/git/pao_ml_equivar/2H2O_rot
                                           ations/phi_18

 CP2K| version string:                 CP2K version 2023.1 (Development Version)
 CP2K| source code revision number:                                  git:03b4147
 CP2K| cp2kflags: omp libint fftw3 libxc quip xsmm spglib libvori libbqb libtorc
 CP2K|            h
 CP2K| is freely available from                            https://www.cp2k.org/
 CP2K| Program compiled at                           Mi 01 Feb 2023 10:36:52 CET
 CP2K| Program compiled on                                                moritz
 CP2K| Program compiled for                                                local
 CP2K| Data directory path                               /home/ole/git/cp2k/data
 CP2K| Input file name                                            2H2O_pao44.inp

 GLOBAL| Force Environment number                                              1
 GLOBAL| Basis set file name                                        BASIS_MOLOPT
 GLOBAL| Potential file name                                      GTH_POTENTIALS
 GLOBAL| MM Potential file name                                     MM_POTENTIAL
 GLOBAL| Coordinate file name                                         coords.xyz
 GLOBAL| Method name                                                        CP2K
 GLOBAL| Project name                                                 2H2O_pao44
 GLOBAL| Run type                                                         ENERGY
 GLOBAL| FFT library                                                       FFTW3
 GLOBAL| Diagonalization library                                       ScaLAPACK
 GLOBAL| DGEMM library                                                      BLAS
 GLOBAL| Orthonormality check for eigenvectors                          DISABLED
 GLOBAL| Matrix multiplication library                                 ScaLAPACK
 GLOBAL| All-to-all communication in single precision                          F
 GLOBAL| FFTs using library dependent lengths                                  F
 GLOBAL| Grid backend                                                       AUTO
 GLOBAL| Global print level                                                  LOW
 GLOBAL| MPI I/O enabled                                                       T
 GLOBAL| Total number of message passing processes                             1
 GLOBAL| Number of threads for this process                                    1
 GLOBAL| This output is from process                                           0
 GLOBAL| Stack size for threads created by OpenMP (OMP_STACKSIZE)        default
 GLOBAL| CPU model name           AMD Ryzen Threadripper 3970X 32-Core Processor
 GLOBAL| CPUID                                                              1002
 GLOBAL| Compiled for CPUID                                                    0

 *** HINT in environment.F:884 :: The compiler target flags (generic) used ***
 *** to build this binary cannot exploit all extensions of this CPU model  ***
 *** (x86_avx2). Consider compiler target flags as part of FCFLAGS and     ***
 *** CFLAGS (ARCH file).                                                   ***


 MEMORY| system memory details [Kb]
 MEMORY|                        rank 0           min           max       average
 MEMORY| MemTotal            131773860     131773860     131773860     131773860
 MEMORY| MemFree             118711192     118711192     118711192     118711192
 MEMORY| Buffers                301580        301580        301580        301580
 MEMORY| Cached                7018548       7018548       7018548       7018548
 MEMORY| Slab                   776140        776140        776140        776140
 MEMORY| SReclaimable           331304        331304        331304        331304
 MEMORY| MemLikelyFree       126362624     126362624     126362624     126362624


 GENERATE|  Preliminary Number of Bonds generated:                             0
 GENERATE|  Achieved consistency in connectivity generation.

 *******************************************************************************
 *******************************************************************************
 **                                                                           **
 **     #####                         ##              ##                      **
 **    ##   ##            ##          ##              ##                      **
 **   ##     ##                       ##            ######                    **
 **   ##     ##  ##   ##  ##   #####  ##  ##   ####   ##    #####    #####    **
 **   ##     ##  ##   ##  ##  ##      ## ##   ##      ##   ##   ##  ##   ##   **
 **   ##  ## ##  ##   ##  ##  ##      ####     ###    ##   ######   ######    **
 **    ##  ###   ##   ##  ##  ##      ## ##      ##   ##   ##       ##        **
 **     #######   #####   ##   #####  ##  ##  ####    ##    #####   ##        **
 **           ##                                                    ##        **
 **                                                                           **
 **                                                ... make the atoms dance   **
 **                                                                           **
 **            Copyright (C) by CP2K developers group (2000-2023)             **
 **                      J. Chem. Phys. 152, 194103 (2020)                    **
 **                                                                           **
 *******************************************************************************


 TOTAL NUMBERS AND MAXIMUM NUMBERS

  Total number of            - Atomic kinds:                                   2
                             - Atoms:                                          6
                             - Shell sets:                                     6
                             - Shells:                                        22
                             - Primitive Cartesian functions:                 42
                             - Cartesian basis functions:                     48
                             - Spherical basis functions:                     46

  Maximum angular momentum of- Orbital basis functions:                        2
                             - Local part of the GTH pseudopotential:          2
                             - Non-local part of the GTH pseudopotential:      0

 ------------------------------ Linear scaling SCF -----------------------------
 eps_scf:                                                              0.100E-07
 eps_filter:                                                           0.100E-07
 mixing_fraction:                                                      0.450E+00
 max_scf:                                                                     25
 fixed chemical potential (mu)                                                 F
 has unit metric:                                                              F
 Computing inv(S):                                                             T
 Computing sqrt(S):                                                            T
 Computing S preconditioner                                                    F
 S sqrt method:                                                     NEWTONSCHULZ
 S sqrt order:                                                                 3
 Extrapolation order:                                                          1
 Use single precision matrices                                                 F
 S preconditioner type                                                      NONE
 Polarized Atomic Orbitals (PAO)                                               T
 Purification method                                   Trace resetting 4th order
 Cluster type                                                             ATOMIC
 Computing Chebyshev                                                       FALSE
 Using PAO                                                                     T
 -------------------------------------------------------------------------------

 
 PAO|                                  EPS_PAO                           0.1E-04
 PAO|                                  MIXING                            0.5E+00
 PAO|                                  MAX_PAO                              1000
 PAO|                                  MAX_CYCLES                           1000
 PAO|                                  PARAMETERIZATION              EQUIVARIANT
 PAO|                                  PRECONDITION                            F
 PAO|                                  REGULARIZATION                    0.0E+00
 PAO|                                  EPS_PGF                           0.1E-09
 PAO|                                  PENALTY_DISTANCE                  0.1E+00
 PAO|                                  PENALTY_STRENGTH                  0.5E-02
 PAO|                                  LINPOT_PRECONDITION_DELTA         0.0E+00
 PAO|                                  LINPOT_INITGUESS_DELT             0.0E+00
 PAO|                                  LINPOT_REGULARIZATION_DELTA       0.0E+00
 PAO|                                  LINPOT_REGULARIZATION_STRENGTH    0.0E+00
 PAO|                                  OPTIMIZER                              CG
 PAO|                                  CG_INIT_STEPS                           2
 PAO|                                  CG_RESET_LIMIT                    0.1E+00
 PAO|                                  CHECK_UNITARY_TOL                -0.1E+01
 PAO|                                  CHECK_GRADIENT_TOL               -0.1E+01
 PAO|                                  NUM_GRADIENT_ORDER                      2
 PAO|                                  NUM_GRADIENT_EPS                  0.1E-07
 PAO|                                  PRINT%RESTART%WRITE_CYCLES            100
 PAO|                                  RESTART_FILE 
 PAO|                                  PREOPT_DM_FILE 2H2O_ref_LS_DM_SPIN_1_RESTART.dm
 PAO|                                  MACHINE_LEARNING%METHOD       GAUSSIAN_PR
 PAO|                                  MACHINE_LEARNING%PRIOR               ZERO
 PAO|                                  MACHINE_LEARNING%DESCRIPTOR     POTENTIAL
 PAO|                                  MACHINE_LEARNING%TOLERANCE        0.1E-01
 PAO|                                  MACHINE_LEARNING%GP_NOISE_VAR     0.1E+00
 PAO|                                  MACHINE_LEARNING%GP_SCALE         0.5E-01
 

 Calculating atomic Fock matrix for atomic kind: O

 Electronic structure
    Total number of core electrons                                          2.00
    Total number of valence electrons                                       6.00
    Total number of electrons                                               8.00
    Multiplicity                                                   not specified
    S   [  2.00] 2.00
    P      4.00


 *******************************************************************************
                  Iteration          Convergence                     Energy [au]
 *******************************************************************************
                          1        0.708315                     -15.576645311500
                          2        0.608879                     -15.587933561584
                          3        0.102828E-01                 -15.656849565404
                          4        0.113889E-02                 -15.656866888140
                          5        0.434197E-03                 -15.656867072159
                          6        0.263771E-03                 -15.656867091904
                          7        0.478536E-06                 -15.656867103452

 Energy components [Hartree]           Total Energy ::          -15.656867103452
                                        Band Energy ::           -3.000198112285
                                     Kinetic Energy ::           11.759971203220
                                   Potential Energy ::          -27.416838306672
                                      Virial (-V/T) ::            2.331369510426
                                        Core Energy ::          -26.140716385623
                                          XC Energy ::           -3.154051012914
                                     Coulomb Energy ::           13.637900295084
                       Total Pseudopotential Energy ::          -37.935781716540
                       Local Pseudopotential Energy ::          -39.218907440693
                    Nonlocal Pseudopotential Energy ::            1.283125724153
                                        Confinement ::            0.350941276976

 Orbital energies  State     L     Occupation   Energy[a.u.]          Energy[eV]

                       1     0          2.000      -0.864471          -23.523463

                       1     1          4.000      -0.317814           -8.648154


 Total Electron Density at R=0:                                         0.000068

 Calculating atomic Fock matrix for atomic kind: H

 Electronic structure
    Total number of core electrons                                          0.00
    Total number of valence electrons                                       1.00
    Total number of electrons                                               1.00
    Multiplicity                                                   not specified
    S      1.00


 *******************************************************************************
                  Iteration          Convergence                     Energy [au]
 *******************************************************************************
                          1        0.437545E-02                  -0.424159432110
                          2        0.531356E-03                  -0.424178438213
                          3        0.259176E-06                  -0.424178722480

 Energy components [Hartree]           Total Energy ::           -0.424178722480
                                        Band Energy ::           -0.199015229016
                                     Kinetic Energy ::            0.464007633961
                                   Potential Energy ::           -0.888186356441
                                      Virial (-V/T) ::            1.914163240935
                                        Core Energy ::           -0.479160803564
                                          XC Energy ::           -0.244352904054
                                     Coulomb Energy ::            0.299334985138
                       Total Pseudopotential Energy ::           -0.962295316385
                       Local Pseudopotential Energy ::           -0.962295316385
                    Nonlocal Pseudopotential Energy ::            0.000000000000
                                        Confinement ::            0.191268788606

 Orbital energies  State     L     Occupation   Energy[a.u.]          Energy[eV]

                       1     0          1.000      -0.199015           -5.415480


 Total Electron Density at R=0:                                         0.242907
 PAO| Made initial guess for matrix_X with norm:   4.8989794855663558     

     Lanczos converged:  T threshold:   0.100E-02
     Est. extremal eigenvalues:    0.335E+01   0.115E+00
     Est. condition number :    0.293E+02

 Order=           3
     NS sqrt iter    1 1.00000000   0.820E+00       0.001       64.512
     NS sqrt iter    2 1.00000000   0.440E+00       0.001      110.592
     NS sqrt iter    3 1.00000000   0.170E+00       0.001      110.592
     NS sqrt iter    4 1.00000000   0.206E-01       0.001      110.592
     NS sqrt iter    5 1.00000000   0.530E-04       0.001       90.112
     Symmetrizing Results
     Final NS sqrt iter    5 1.00000000   0.317E-08

 PAO| Read restart DM 2H2O_ref_LS_DM_SPIN_1_RESTART.dm with checksum:    74.023651131804044     
 PAO| Quickstep energy from restart density:  -34.450417983024749     
 PAO| ======================= Iteration:         1 =============================

     Lanczos converged:  T threshold:   0.100E-02
     Est. extremal eigenvalues:    0.335E+01   0.115E+00
     Est. condition number :    0.293E+02

 Order=           3
     NS sqrt iter    1 1.00000000   0.820E+00       0.001       64.512
     NS sqrt iter    2 1.00000000   0.440E+00       0.001      110.592
     NS sqrt iter    3 1.00000000   0.170E+00       0.001      110.592
     NS sqrt iter    4 1.00000000   0.206E-01       0.001      110.592
     NS sqrt iter    5 1.00000000   0.530E-04       0.001       90.112
     Symmetrizing Results
     Final NS sqrt iter    5 1.00000000   0.317E-08

     Est. extremal eigenvalues     -0.92046     1.88625  converged:  T
     TRS4 it   1 1.00000000   0.881E+00       0.000       16.128   0.100E-07
     TRS4 it   2 1.00000000   0.691E+00       0.000       32.256   0.100E-07
     TRS4 it   3 1.00000000   0.499E+00       0.000       32.256   0.100E-07
     TRS4 it   4 1.00000000   0.313E+00       0.000       32.256   0.100E-07
     TRS4 it   5 1.00000000   0.155E+00       0.000       32.256   0.100E-07
     TRS4 it   6 1.00000000   0.488E-01       0.000       32.256   0.100E-07
     TRS4 it   7 1.00000000   0.681E-02       0.000       32.256   0.100E-07
     TRS4 it   8 1.00000000   0.186E-03       0.000       32.256   0.100E-07
     TRS4 it   9 1.00000000   0.154E-06       0.000       32.256   0.100E-07
     TRS4 it  10 1.00000000   0.107E-12       0.000       32.256   0.100E-07
     Final TRS4 iteration   10 1.00000000   0.107E-12
     Chemical potential (mu):      -0.06612
 
 PAO| energy:  -7.6293227661463172      penalty:   2.8349688781380113E-033
 PAO|CG| warming up with steepest descent
 PAO|CG| beta:    0.0000000000000000     
 PAO| norm of gradient:  0.78332492712509871     
 PAO|LS| adapt:  T F F
 PAO|LS| adapt: scan_steps:    0.0000000000000000        0.0000000000000000        0.0000000000000000     
 PAO|LS| adapt: energies:   -7.6293227661463172        0.0000000000000000        0.0000000000000000     
 PAO| ======================= Iteration:         2 =============================

     Lanczos converged:  T threshold:   0.100E-02
     Est. extremal eigenvalues:    0.327E+01   0.127E+00
     Est. condition number :    0.256E+02

 Order=           3
     NS sqrt iter    1 1.00000000   0.803E+00       0.001       64.512
     NS sqrt iter    2 1.00000000   0.425E+00       0.001      110.592
     NS sqrt iter    3 1.00000000   0.153E+00       0.001      110.592
     NS sqrt iter    4 1.00000000   0.142E-01       0.001      110.592
     NS sqrt iter    5 1.00000000   0.166E-04       0.001       82.944
     Symmetrizing Results
     Final NS sqrt iter    5 1.00000000   0.418E-09

     Est. extremal eigenvalues     -0.92412     1.83064  converged:  T
     TRS4 it   1 1.00000000   0.877E+00       0.000       16.128   0.100E-07
     TRS4 it   2 1.00000000   0.673E+00       0.000       32.256   0.100E-07
     TRS4 it   3 1.00000000   0.483E+00       0.000       32.256   0.100E-07
     TRS4 it   4 1.00000000   0.293E+00       0.000       32.256   0.100E-07
     TRS4 it   5 1.00000000   0.136E+00       0.000       32.256   0.100E-07
     TRS4 it   6 1.00000000   0.375E-01       0.000       32.256   0.100E-07
     TRS4 it   7 1.00000000   0.407E-02       0.000       32.256   0.100E-07
     TRS4 it   8 1.00000000   0.670E-04       0.000       32.256   0.100E-07
     TRS4 it   9 1.00000000   0.200E-07       0.000       32.256   0.100E-07
     Final TRS4 iteration    9 1.00000000   0.200E-07
     Chemical potential (mu):      -0.05406
 
 PAO| energy:  -7.6848043003191204      penalty:   2.2471745752892355E-008
 PAO|LS| adapt:  T T F
 PAO|LS| adapt: scan_steps:    0.0000000000000000       0.10000000000000001        0.0000000000000000     
 PAO|LS| adapt: energies:   -7.6293227661463172       -7.6848043003191204        0.0000000000000000     
 PAO| ======================= Iteration:         3 =============================

     Lanczos converged:  T threshold:   0.100E-02
     Est. extremal eigenvalues:    0.317E+01   0.139E+00
     Est. condition number :    0.228E+02

 Order=           3
     NS sqrt iter    1 1.00000000   0.786E+00       0.001       64.512
     NS sqrt iter    2 1.00000000   0.408E+00       0.001      110.592
     NS sqrt iter    3 1.00000000   0.136E+00       0.001      110.592
     NS sqrt iter    4 1.00000000   0.975E-02       0.001      110.592
     NS sqrt iter    5 1.00000000   0.543E-05       0.001       82.944
     Symmetrizing Results
     Final NS sqrt iter    5 1.00000000   0.448E-10

     Est. extremal eigenvalues     -0.92755     1.78548  converged:  T
     TRS4 it   1 1.00000000   0.874E+00       0.000       16.128   0.100E-07
     TRS4 it   2 1.00000000   0.656E+00       0.000       32.256   0.100E-07
     TRS4 it   3 1.00000000   0.468E+00       0.000       32.256   0.100E-07
     TRS4 it   4 1.00000000   0.273E+00       0.000       32.256   0.100E-07
     TRS4 it   5 1.00000000   0.117E+00       0.000       32.256   0.100E-07
     TRS4 it   6 1.00000000   0.279E-01       0.000       32.256   0.100E-07
     TRS4 it   7 1.00000000   0.225E-02       0.000       32.256   0.100E-07
     TRS4 it   8 1.00000000   0.205E-04       0.000       32.256   0.100E-07
     TRS4 it   9 1.00000000   0.187E-08       0.000       32.256   0.100E-07
     Final TRS4 iteration    9 1.00000000   0.187E-08
     Chemical potential (mu):      -0.04102
 
 PAO| energy:  -7.7278706207751515      penalty:   3.5954758646825267E-007
 PAO|LS| adapt:  T T F
 PAO|LS| adapt: scan_steps:    0.0000000000000000       0.20000000000000001        0.0000000000000000     
 PAO|LS| adapt: energies:   -7.6293227661463172       -7.7278706207751515        0.0000000000000000     
 PAO| ======================= Iteration:         4 =============================

     Lanczos converged:  T threshold:   0.100E-02
     Est. extremal eigenvalues:    0.298E+01   0.157E+00
     Est. condition number :    0.189E+02

 Order=           3
     NS sqrt iter    1 1.00000000   0.749E+00       0.001       64.512
     NS sqrt iter    2 1.00000000   0.374E+00       0.001      110.592
     NS sqrt iter    3 1.00000000   0.106E+00       0.001      110.592
     NS sqrt iter    4 1.00000000   0.473E-02       0.001      110.592
     NS sqrt iter    5 1.00000000   0.756E-06       0.001       82.944
     Symmetrizing Results
     Final NS sqrt iter    5 1.00000000   0.947E-12

     Est. extremal eigenvalues     -0.93289     1.71928  converged:  T
     TRS4 it   1 1.00000000   0.868E+00       0.000       16.128   0.100E-07
     TRS4 it   2 1.00000000   0.628E+00       0.000       32.256   0.100E-07
     TRS4 it   3 1.00000000   0.437E+00       0.000       32.256   0.100E-07
     TRS4 it   4 1.00000000   0.235E+00       0.000       32.256   0.100E-07
     TRS4 it   5 1.00000000   0.851E-01       0.000       32.256   0.100E-07
     TRS4 it   6 1.00000000   0.142E-01       0.000       32.256   0.100E-07
     TRS4 it   7 1.00000000   0.557E-03       0.000       32.256   0.100E-07
     TRS4 it   8 1.00000000   0.123E-05       0.000       32.256   0.100E-07
     TRS4 it   9 1.00000000   0.671E-11       0.000       32.256   0.100E-07
     Final TRS4 iteration    9 1.00000000   0.671E-11
     Chemical potential (mu):      -0.01224
 
 PAO| energy:  -7.7751305979054797      penalty:   5.7527586188739066E-006
 PAO|LS| Need extra step
 PAO|LS| adapt:  T T F
 PAO|LS| adapt: scan_steps:    0.0000000000000000       0.40000000000000002        0.0000000000000000     
 PAO|LS| adapt: energies:   -7.6293227661463172       -7.7751305979054797        0.0000000000000000     
 PAO| ======================= Iteration:         5 =============================

     Lanczos converged:  T threshold:   0.100E-02
     Est. extremal eigenvalues:    0.263E+01   0.185E+00
     Est. condition number :    0.142E+02

 Order=           3
     NS sqrt iter    1 1.00000000   0.687E+00       0.001       64.512
     NS sqrt iter    2 1.00000000   0.313E+00       0.001      110.592
     NS sqrt iter    3 1.00000000   0.654E-01       0.001      110.592
     NS sqrt iter    4 1.00000000   0.130E-02       0.001      110.592
     NS sqrt iter    5 1.00000000   0.210E-07       0.001       55.936
     Symmetrizing Results
     Final NS sqrt iter    5 1.00000000   0.233E-08

     Est. extremal eigenvalues     -0.93416     1.64492  converged:  T
     TRS4 it   1 1.00000000   0.862E+00       0.000       16.128   0.100E-07
     TRS4 it   2 1.00000000   0.590E+00       0.000       32.256   0.100E-07
     TRS4 it   3 1.00000000   0.388E+00       0.000       32.256   0.100E-07
     TRS4 it   4 1.00000000   0.178E+00       0.000       32.256   0.100E-07
     TRS4 it   5 1.00000000   0.451E-01       0.000       32.256   0.100E-07
     TRS4 it   6 1.00000000   0.357E-02       0.000       32.256   0.100E-07
     TRS4 it   7 1.00000000   0.290E-04       0.000       32.256   0.100E-07
     TRS4 it   8 1.00000000   0.241E-08       0.000       32.256   0.100E-07
     Final TRS4 iteration    8 1.00000000   0.241E-08
     Chemical potential (mu):       0.03825
 
 PAO| energy:  -7.7203402440094653      penalty:   9.2044115785064169E-005
 PAO|LS| Need extra step
 PAO|LS| adapt:  T T T
 PAO|LS| adapt: scan_steps:    0.0000000000000000       0.40000000000000002       0.80000000000000004     
 PAO|LS| adapt: energies:   -7.6293227661463172       -7.7751305979054797       -7.7203402440094653     
 PAO|LS| adapt: suggested step_size:   0.49074606289770217     
 PAO|LS| adapt: predicted energy  -7.7802927715123289     
 PAO| ======================= Iteration:         6 =============================

     Lanczos converged:  T threshold:   0.100E-02
     Est. extremal eigenvalues:    0.289E+01   0.164E+00
     Est. condition number :    0.176E+02

 Order=           3
     NS sqrt iter    1 1.00000000   0.733E+00       0.001       64.512
     NS sqrt iter    2 1.00000000   0.359E+00       0.001      110.592
     NS sqrt iter    3 1.00000000   0.946E-01       0.001      110.592
     NS sqrt iter    4 1.00000000   0.347E-02       0.001      110.592
     NS sqrt iter    5 1.00000000   0.330E-06       0.001       82.560
     Symmetrizing Results
     Final NS sqrt iter    5 1.00000000   0.182E-09

     Est. extremal eigenvalues     -0.93438     1.69710  converged:  T
     TRS4 it   1 1.00000000   0.867E+00       0.000       16.128   0.100E-07
     TRS4 it   2 1.00000000   0.618E+00       0.000       32.256   0.100E-07
     TRS4 it   3 1.00000000   0.425E+00       0.000       32.256   0.100E-07
     TRS4 it   4 1.00000000   0.220E+00       0.000       32.256   0.100E-07
     TRS4 it   5 1.00000000   0.733E-01       0.000       32.256   0.100E-07
     TRS4 it   6 1.00000000   0.103E-01       0.000       32.256   0.100E-07
     TRS4 it   7 1.00000000   0.277E-03       0.000       32.256   0.100E-07
     TRS4 it   8 1.00000000   0.290E-06       0.000       32.256   0.100E-07
     TRS4 it   9 1.00000000   0.373E-12       0.000       32.256   0.100E-07
     Final TRS4 iteration    9 1.00000000   0.373E-12
     Chemical potential (mu):       0.00172
 
 PAO| energy:  -7.7795800380234441      penalty:   1.3033571662402332E-005
 PAO|CG| warming up with steepest descent
 PAO|CG| beta:    0.0000000000000000     
 PAO| norm of gradient:  0.41741392572007502     
 PAO| energy improvement: -0.15025727187712690     
 PAO| step      6                   -7.779580038  0.261E-01  0.491E+00     0.058
 PAO|LS| adapt:  T F F
 PAO|LS| adapt: scan_steps:    0.0000000000000000        0.0000000000000000        0.0000000000000000     
 PAO|LS| adapt: energies:   -7.7795800380234441        0.0000000000000000        0.0000000000000000     
 PAO| ======================= Iteration:         7 =============================

     Lanczos converged:  T threshold:   0.100E-02
     Est. extremal eigenvalues:    0.281E+01   0.178E+00
     Est. condition number :    0.158E+02

 Order=           3
     NS sqrt iter    1 1.00000000   0.716E+00       0.001       64.512
     NS sqrt iter    2 1.00000000   0.338E+00       0.001      110.592
     NS sqrt iter    3 1.00000000   0.791E-01       0.001      110.592
     NS sqrt iter    4 1.00000000   0.211E-02       0.001      110.592
     NS sqrt iter    5 1.00000000   0.833E-07       0.001       75.776
     Symmetrizing Results
     Final NS sqrt iter    5 1.00000000   0.109E-08

     Est. extremal eigenvalues     -0.93612     1.68476  converged:  T
     TRS4 it   1 1.00000000   0.866E+00       0.000       16.128   0.100E-07
     TRS4 it   2 1.00000000   0.616E+00       0.000       32.256   0.100E-07
     TRS4 it   3 1.00000000   0.425E+00       0.000       32.256   0.100E-07
     TRS4 it   4 1.00000000   0.221E+00       0.000       32.256   0.100E-07
     TRS4 it   5 1.00000000   0.739E-01       0.000       32.256   0.100E-07
     TRS4 it   6 1.00000000   0.102E-01       0.000       32.256   0.100E-07
     TRS4 it   7 1.00000000   0.257E-03       0.000       32.256   0.100E-07
     TRS4 it   8 1.00000000   0.237E-06       0.000       32.256   0.100E-07
     TRS4 it   9 1.00000000   0.245E-12       0.000       32.256   0.100E-07
     Final TRS4 iteration    9 1.00000000   0.245E-12
     Chemical potential (mu):       0.00388
 
 PAO| energy:  -7.7737596018955717      penalty:   1.9761217323181999E-005
 PAO|LS| adapt:  T F T
 PAO|LS| adapt: scan_steps:    0.0000000000000000        0.0000000000000000       0.49074606289770217     
 PAO|LS| adapt: energies:   -7.7795800380234441        0.0000000000000000       -7.7737596018955717     
 PAO| ======================= Iteration:         8 =============================

     Lanczos converged:  T threshold:   0.100E-02
     Est. extremal eigenvalues:    0.285E+01   0.171E+00
     Est. condition number :    0.167E+02

 Order=           3
     NS sqrt iter    1 1.00000000   0.725E+00       0.001       64.512
     NS sqrt iter    2 1.00000000   0.349E+00       0.001      110.592
     NS sqrt iter    3 1.00000000   0.867E-01       0.001      110.592
     NS sqrt iter    4 1.00000000   0.272E-02       0.001      110.592
     NS sqrt iter    5 1.00000000   0.169E-06       0.001       79.488
     Symmetrizing Results
     Final NS sqrt iter    5 1.00000000   0.131E-08

     Est. extremal eigenvalues     -0.93619     1.69027  converged:  T
     TRS4 it   1 1.00000000   0.865E+00       0.000       16.128   0.100E-07
     TRS4 it   2 1.00000000   0.617E+00       0.000       32.256   0.100E-07
     TRS4 it   3 1.00000000   0.424E+00       0.000       32.256   0.100E-07
     TRS4 it   4 1.00000000   0.220E+00       0.000       32.256   0.100E-07
     TRS4 it   5 1.00000000   0.734E-01       0.000       32.256   0.100E-07
     TRS4 it   6 1.00000000   0.103E-01       0.000       32.256   0.100E-07
     TRS4 it   7 1.00000000   0.274E-03       0.000       32.256   0.100E-07
     TRS4 it   8 1.00000000   0.279E-06       0.000       32.256   0.100E-07
     TRS4 it   9 1.00000000   0.344E-12       0.000       32.256   0.100E-07
     Final TRS4 iteration    9 1.00000000   0.344E-12
     Chemical potential (mu):       0.00231
 
 PAO| energy:  -7.7992611014347011      penalty:   1.4139619866397059E-005
 PAO|LS| adapt:  T T T
 PAO|LS| adapt: scan_steps:    0.0000000000000000       0.24537303144885109       0.49074606289770217     
 PAO|LS| adapt: energies:   -7.7795800380234441       -7.7992611014347011       -7.7737596018955717     
 PAO|LS| adapt: suggested step_size:   0.22956850461602502     
 PAO|LS| adapt: predicted energy  -7.7993548253032312     
 PAO| ======================= Iteration:         9 =============================

     Lanczos converged:  T threshold:   0.100E-02
     Est. extremal eigenvalues:    0.285E+01   0.170E+00
     Est. condition number :    0.167E+02

 Order=           3
     NS sqrt iter    1 1.00000000   0.725E+00       0.001       64.512
     NS sqrt iter    2 1.00000000   0.349E+00       0.001      110.592
     NS sqrt iter    3 1.00000000   0.872E-01       0.001      110.592
     NS sqrt iter    4 1.00000000   0.276E-02       0.001      110.592
     NS sqrt iter    5 1.00000000   0.177E-06       0.001       79.744
     Symmetrizing Results
     Final NS sqrt iter    5 1.00000000   0.120E-08

     Est. extremal eigenvalues     -0.93613     1.69067  converged:  T
     TRS4 it   1 1.00000000   0.865E+00       0.000       16.128   0.100E-07
     TRS4 it   2 1.00000000   0.617E+00       0.000       32.256   0.100E-07
     TRS4 it   3 1.00000000   0.424E+00       0.000       32.256   0.100E-07
     TRS4 it   4 1.00000000   0.220E+00       0.000       32.256   0.100E-07
     TRS4 it   5 1.00000000   0.733E-01       0.000       32.256   0.100E-07
     TRS4 it   6 1.00000000   0.103E-01       0.000       32.256   0.100E-07
     TRS4 it   7 1.00000000   0.275E-03       0.000       32.256   0.100E-07
     TRS4 it   8 1.00000000   0.281E-06       0.000       32.256   0.100E-07
     TRS4 it   9 1.00000000   0.347E-12       0.000       32.256   0.100E-07
     Final TRS4 iteration    9 1.00000000   0.347E-12
     Chemical potential (mu):       0.00224
 
 PAO| energy:  -7.7993784713988568      penalty:   1.3970039122971578E-005
 PAO|CG| trace_G_new    3.6945151577046732E-002
 PAO|CG| trace_G_prev   0.17423438538504432     
 PAO|CG| trace_G_mix   -1.4495004858233679E-003
 PAO|CG| trace_D   0.17423438538504432     
 PAO|CG| trace_D_Gnew   1.4495004858233679E-003
 PAO|CG| beta:   0.22036208282320927     
 PAO| norm of gradient:  0.19221121605423219     
 PAO| energy improvement:  -1.9798433375412650E-002
 PAO| step      9                   -7.799378471  0.120E-01  0.230E+00     0.036
 PAO|LS| adapt:  T F F
 PAO|LS| adapt: scan_steps:    0.0000000000000000        0.0000000000000000        0.0000000000000000     
 PAO|LS| adapt: energies:   -7.7993784713988568        0.0000000000000000        0.0000000000000000     
 PAO| ======================= Iteration:        10 =============================

     Lanczos converged:  T threshold:   0.100E-02
     Est. extremal eigenvalues:    0.282E+01   0.176E+00
     Est. condition number :    0.160E+02

 Order=           3
     NS sqrt iter    1 1.00000000   0.717E+00       0.001       64.512
     NS sqrt iter    2 1.00000000   0.341E+00       0.001      110.592
     NS sqrt iter    3 1.00000000   0.816E-01       0.001      110.592
     NS sqrt iter    4 1.00000000   0.227E-02       0.001      110.592
     NS sqrt iter    5 1.00000000   0.985E-07       0.001       76.544
     Symmetrizing Results
     Final NS sqrt iter    5 1.00000000   0.106E-08

     Est. extremal eigenvalues     -0.93702     1.68647  converged:  T
     TRS4 it   1 1.00000000   0.864E+00       0.000       16.128   0.100E-07
     TRS4 it   2 1.00000000   0.615E+00       0.000       32.256   0.100E-07
     TRS4 it   3 1.00000000   0.422E+00       0.000       32.256   0.100E-07
     TRS4 it   4 1.00000000   0.217E+00       0.000       32.256   0.100E-07
     TRS4 it   5 1.00000000   0.713E-01       0.000       32.256   0.100E-07
     TRS4 it   6 1.00000000   0.965E-02       0.000       32.256   0.100E-07
     TRS4 it   7 1.00000000   0.238E-03       0.000       32.256   0.100E-07
     TRS4 it   8 1.00000000   0.205E-06       0.000       32.256   0.100E-07
     TRS4 it   9 1.00000000   0.185E-12       0.000       32.256   0.100E-07
     Final TRS4 iteration    9 1.00000000   0.185E-12
     Chemical potential (mu):       0.00548
 
 PAO| energy:  -7.8044257215068171      penalty:   1.4514448336792198E-005
 PAO|LS| adapt:  T T F
 PAO|LS| adapt: scan_steps:    0.0000000000000000       0.22956850461602502        0.0000000000000000     
 PAO|LS| adapt: energies:   -7.7993784713988568       -7.8044257215068171        0.0000000000000000     
 PAO| ======================= Iteration:        11 =============================

     Lanczos converged:  T threshold:   0.100E-02
     Est. extremal eigenvalues:    0.278E+01   0.182E+00
     Est. condition number :    0.153E+02

 Order=           3
     NS sqrt iter    1 1.00000000   0.710E+00       0.001       64.512
     NS sqrt iter    2 1.00000000   0.333E+00       0.001      110.592
     NS sqrt iter    3 1.00000000   0.762E-01       0.001      110.592
     NS sqrt iter    4 1.00000000   0.186E-02       0.001      110.592
     NS sqrt iter    5 1.00000000   0.542E-07       0.001       71.680
     Symmetrizing Results
     Final NS sqrt iter    5 1.00000000   0.380E-09

     Est. extremal eigenvalues     -0.93693     1.68376  converged:  T
     TRS4 it   1 1.00000000   0.863E+00       0.000       16.128   0.100E-07
     TRS4 it   2 1.00000000   0.614E+00       0.000       32.256   0.100E-07
     TRS4 it   3 1.00000000   0.420E+00       0.000       32.256   0.100E-07
     TRS4 it   4 1.00000000   0.215E+00       0.000       32.256   0.100E-07
     TRS4 it   5 1.00000000   0.694E-01       0.000       32.256   0.100E-07
     TRS4 it   6 1.00000000   0.908E-02       0.000       32.256   0.100E-07
     TRS4 it   7 1.00000000   0.206E-03       0.000       32.256   0.100E-07
     TRS4 it   8 1.00000000   0.150E-06       0.000       32.256   0.100E-07
     TRS4 it   9 1.00000000   0.973E-13       0.000       32.256   0.100E-07
     Final TRS4 iteration    9 1.00000000   0.973E-13
     Chemical potential (mu):       0.00884
 
 PAO| energy:  -7.8029953989748781      penalty:   1.5732364440446592E-005
 PAO|LS| adapt:  T T T
 PAO|LS| adapt: scan_steps:    0.0000000000000000       0.22956850461602502       0.45913700923205003     
 PAO|LS| adapt: energies:   -7.7993784713988568       -7.8044257215068171       -7.8029953989748781     
 PAO|LS| adapt: suggested step_size:   0.29366139103285716     
 PAO|LS| adapt: predicted energy  -7.8046781726528218     
 PAO| ======================= Iteration:        12 =============================

     Lanczos converged:  T threshold:   0.100E-02
     Est. extremal eigenvalues:    0.280E+01   0.178E+00
     Est. condition number :    0.158E+02

 Order=           3
     NS sqrt iter    1 1.00000000   0.715E+00       0.001       64.512
     NS sqrt iter    2 1.00000000   0.339E+00       0.001      110.592
     NS sqrt iter    3 1.00000000   0.800E-01       0.001      110.592
     NS sqrt iter    4 1.00000000   0.215E-02       0.001      110.592
     NS sqrt iter    5 1.00000000   0.835E-07       0.001       75.776
     Symmetrizing Results
     Final NS sqrt iter    5 1.00000000   0.102E-08

     Est. extremal eigenvalues     -0.93709     1.68556  converged:  T
     TRS4 it   1 1.00000000   0.864E+00       0.000       16.128   0.100E-07
     TRS4 it   2 1.00000000   0.615E+00       0.000       32.256   0.100E-07
     TRS4 it   3 1.00000000   0.422E+00       0.000       32.256   0.100E-07
     TRS4 it   4 1.00000000   0.216E+00       0.000       32.256   0.100E-07
     TRS4 it   5 1.00000000   0.708E-01       0.000       32.256   0.100E-07
     TRS4 it   6 1.00000000   0.949E-02       0.000       32.256   0.100E-07
     TRS4 it   7 1.00000000   0.229E-03       0.000       32.256   0.100E-07
     TRS4 it   8 1.00000000   0.188E-06       0.000       32.256   0.100E-07
     TRS4 it   9 1.00000000   0.155E-12       0.000       32.256   0.100E-07
     Final TRS4 iteration    9 1.00000000   0.155E-12
     Chemical potential (mu):       0.00641
 
 PAO| energy:  -7.8046620421421027      penalty:   1.4779048904668881E-005
 PAO|CG| trace_G_new    1.1849513147742378E-002
 PAO|CG| trace_G_prev    3.6945151577046732E-002
 PAO|CG| trace_G_mix   -4.5804628595471925E-004
 PAO|CG| trace_D    4.4767047182674657E-002
 PAO|CG| trace_D_Gnew   2.1028861187682578E-004
 PAO|CG| beta:   0.33313057081469749     
 PAO| norm of gradient:  0.10885546907593746     
 PAO| energy improvement:  -5.2835707432459245E-003
 PAO| step     12                   -7.804662042  0.680E-02  0.294E+00     0.036
 PAO|LS| adapt:  T F F
 PAO|LS| adapt: scan_steps:    0.0000000000000000        0.0000000000000000        0.0000000000000000     
 PAO|LS| adapt: energies:   -7.8046620421421027        0.0000000000000000        0.0000000000000000     
 PAO| ======================= Iteration:        13 =============================

     Lanczos converged:  T threshold:   0.100E-02
     Est. extremal eigenvalues:    0.277E+01   0.182E+00
     Est. condition number :    0.152E+02

 Order=           3
     NS sqrt iter    1 1.00000000   0.708E+00       0.001       64.512
     NS sqrt iter    2 1.00000000   0.332E+00       0.001      110.592
     NS sqrt iter    3 1.00000000   0.757E-01       0.001      110.592
     NS sqrt iter    4 1.00000000   0.183E-02       0.001      110.592
     NS sqrt iter    5 1.00000000   0.526E-07       0.001       71.680
     Symmetrizing Results
     Final NS sqrt iter    5 1.00000000   0.375E-09

     Est. extremal eigenvalues     -0.93758     1.67951  converged:  T
     TRS4 it   1 1.00000000   0.863E+00       0.000       16.128   0.100E-07
     TRS4 it   2 1.00000000   0.612E+00       0.000       32.256   0.100E-07
     TRS4 it   3 1.00000000   0.418E+00       0.000       32.256   0.100E-07
     TRS4 it   4 1.00000000   0.212E+00       0.000       32.256   0.100E-07
     TRS4 it   5 1.00000000   0.673E-01       0.000       32.256   0.100E-07
     TRS4 it   6 1.00000000   0.851E-02       0.000       32.256   0.100E-07
     TRS4 it   7 1.00000000   0.181E-03       0.000       32.256   0.100E-07
     TRS4 it   8 1.00000000   0.115E-06       0.000       32.256   0.100E-07
     TRS4 it   9 1.00000000   0.565E-13       0.000       32.256   0.100E-07
     Final TRS4 iteration    9 1.00000000   0.565E-13
     Chemical potential (mu):       0.01104
 
 PAO| energy:  -7.8067322013506333      penalty:   1.5090107035080404E-005
 PAO|LS| adapt:  T T F
 PAO|LS| adapt: scan_steps:    0.0000000000000000       0.29366139103285716        0.0000000000000000     
 PAO|LS| adapt: energies:   -7.8046620421421027       -7.8067322013506333        0.0000000000000000     
 PAO| ======================= Iteration:        14 =============================

     Lanczos converged:  T threshold:   0.100E-02
     Est. extremal eigenvalues:    0.274E+01   0.186E+00
     Est. condition number :    0.147E+02

 Order=           3
     NS sqrt iter    1 1.00000000   0.702E+00       0.001       64.512
     NS sqrt iter    2 1.00000000   0.325E+00       0.001      110.592
     NS sqrt iter    3 1.00000000   0.716E-01       0.001      110.592
     NS sqrt iter    4 1.00000000   0.156E-02       0.001      110.592
     NS sqrt iter    5 1.00000000   0.330E-07       0.001       65.280
     Symmetrizing Results
     Final NS sqrt iter    5 1.00000000   0.338E-08

     Est. extremal eigenvalues     -0.93755     1.67382  converged:  T
     TRS4 it   1 1.00000000   0.862E+00       0.000       16.128   0.100E-07
     TRS4 it   2 1.00000000   0.609E+00       0.000       32.256   0.100E-07
     TRS4 it   3 1.00000000   0.414E+00       0.000       32.256   0.100E-07
     TRS4 it   4 1.00000000   0.207E+00       0.000       32.256   0.100E-07
     TRS4 it   5 1.00000000   0.640E-01       0.000       32.256   0.100E-07
     TRS4 it   6 1.00000000   0.764E-02       0.000       32.256   0.100E-07
     TRS4 it   7 1.00000000   0.144E-03       0.000       32.256   0.100E-07
     TRS4 it   8 1.00000000   0.702E-07       0.000       32.256   0.100E-07
     Final TRS4 iteration    8 1.00000000   0.702E-07
     Chemical potential (mu):       0.01306
 
 PAO| energy:  -7.8060739250563405      penalty:   1.5882981835347560E-005
 PAO|LS| adapt:  T T T
 PAO|LS| adapt: scan_steps:    0.0000000000000000       0.29366139103285716       0.58732278206571431     
 PAO|LS| adapt: energies:   -7.8046620421421027       -7.8067322013506333       -7.8060739250563405     
 PAO|LS| adapt: suggested step_size:   0.36964183846171134     
 PAO|LS| adapt: predicted energy  -7.8068235271929272     
 PAO| ======================= Iteration:        15 =============================

     Lanczos converged:  T threshold:   0.100E-02
     Est. extremal eigenvalues:    0.276E+01   0.183E+00
     Est. condition number :    0.151E+02

 Order=           3
     NS sqrt iter    1 1.00000000   0.707E+00       0.001       64.512
     NS sqrt iter    2 1.00000000   0.330E+00       0.001      110.592
     NS sqrt iter    3 1.00000000   0.746E-01       0.001      110.592
     NS sqrt iter    4 1.00000000   0.176E-02       0.001      110.592
     NS sqrt iter    5 1.00000000   0.467E-07       0.001       70.912
     Symmetrizing Results
     Final NS sqrt iter    5 1.00000000   0.341E-09

     Est. extremal eigenvalues     -0.93762     1.67801  converged:  T
     TRS4 it   1 1.00000000   0.863E+00       0.000       16.128   0.100E-07
     TRS4 it   2 1.00000000   0.611E+00       0.000       32.256   0.100E-07
     TRS4 it   3 1.00000000   0.417E+00       0.000       32.256   0.100E-07
     TRS4 it   4 1.00000000   0.210E+00       0.000       32.256   0.100E-07
     TRS4 it   5 1.00000000   0.664E-01       0.000       32.256   0.100E-07
     TRS4 it   6 1.00000000   0.827E-02       0.000       32.256   0.100E-07
     TRS4 it   7 1.00000000   0.171E-03       0.000       32.256   0.100E-07
     TRS4 it   8 1.00000000   0.101E-06       0.000       32.256   0.100E-07
     TRS4 it   9 1.00000000   0.434E-13       0.000       32.256   0.100E-07
     Final TRS4 iteration    9 1.00000000   0.434E-13
     Chemical potential (mu):       0.01223
 
 PAO| energy:  -7.8068205216032389      penalty:   1.5246018834733201E-005
 PAO|CG| trace_G_new    2.6154775257747568E-003
 PAO|CG| trace_G_prev    1.1849513147742378E-002
 PAO|CG| trace_G_mix    6.6356398301210562E-005
 PAO|CG| trace_D    1.6677472825084531E-002
 PAO|CG| trace_D_Gnew   3.3935226456486043E-005
 PAO|CG| beta:   0.21512454526110350     
 PAO| norm of gradient:   5.1141739565395666E-002
 PAO| energy improvement:  -2.1584794611362312E-003
 PAO| step     15                   -7.806820522  0.320E-02  0.370E+00     0.036
 PAO|LS| adapt:  T F F
 PAO|LS| adapt: scan_steps:    0.0000000000000000        0.0000000000000000        0.0000000000000000     
 PAO|LS| adapt: energies:   -7.8068205216032389        0.0000000000000000        0.0000000000000000     
 PAO| ======================= Iteration:        16 =============================

     Lanczos converged:  T threshold:   0.100E-02
     Est. extremal eigenvalues:    0.275E+01   0.184E+00
     Est. condition number :    0.150E+02

 Order=           3
     NS sqrt iter    1 1.00000000   0.705E+00       0.001       64.512
     NS sqrt iter    2 1.00000000   0.329E+00       0.001      110.592
     NS sqrt iter    3 1.00000000   0.740E-01       0.001      110.592
     NS sqrt iter    4 1.00000000   0.171E-02       0.001      110.592
     NS sqrt iter    5 1.00000000   0.427E-07       0.001       70.272
     Symmetrizing Results
     Final NS sqrt iter    5 1.00000000   0.350E-09

     Est. extremal eigenvalues     -0.93765     1.67794  converged:  T
     TRS4 it   1 1.00000000   0.863E+00       0.000       16.128   0.100E-07
     TRS4 it   2 1.00000000   0.610E+00       0.000       32.256   0.100E-07
     TRS4 it   3 1.00000000   0.415E+00       0.000       32.256   0.100E-07
     TRS4 it   4 1.00000000   0.209E+00       0.000       32.256   0.100E-07
     TRS4 it   5 1.00000000   0.653E-01       0.000       32.256   0.100E-07
     TRS4 it   6 1.00000000   0.802E-02       0.000       32.256   0.100E-07
     TRS4 it   7 1.00000000   0.161E-03       0.000       32.256   0.100E-07
     TRS4 it   8 1.00000000   0.909E-07       0.000       32.256   0.100E-07
     TRS4 it   9 1.00000000   0.350E-13       0.000       32.256   0.100E-07
     Final TRS4 iteration    9 1.00000000   0.350E-13
     Chemical potential (mu):       0.01306
 
 PAO| energy:  -7.8069484088652894      penalty:   1.5027389866724609E-005
 PAO|LS| adapt:  T T F
 PAO|LS| adapt: scan_steps:    0.0000000000000000       0.36964183846171134        0.0000000000000000     
 PAO|LS| adapt: energies:   -7.8068205216032389       -7.8069484088652894        0.0000000000000000     
 PAO| ======================= Iteration:        17 =============================

     Lanczos converged:  T threshold:   0.100E-02
     Est. extremal eigenvalues:    0.275E+01   0.184E+00
     Est. condition number :    0.149E+02

 Order=           3
     NS sqrt iter    1 1.00000000   0.703E+00       0.001       64.512
     NS sqrt iter    2 1.00000000   0.328E+00       0.001      110.592
     NS sqrt iter    3 1.00000000   0.734E-01       0.001      110.592
     NS sqrt iter    4 1.00000000   0.166E-02       0.001      110.592
     NS sqrt iter    5 1.00000000   0.392E-07       0.001       69.504
     Symmetrizing Results
     Final NS sqrt iter    5 1.00000000   0.292E-09

     Est. extremal eigenvalues     -0.93755     1.67795  converged:  T
     TRS4 it   1 1.00000000   0.864E+00       0.000       16.128   0.100E-07
     TRS4 it   2 1.00000000   0.610E+00       0.000       32.256   0.100E-07
     TRS4 it   3 1.00000000   0.414E+00       0.000       32.256   0.100E-07
     TRS4 it   4 1.00000000   0.207E+00       0.000       32.256   0.100E-07
     TRS4 it   5 1.00000000   0.643E-01       0.000       32.256   0.100E-07
     TRS4 it   6 1.00000000   0.777E-02       0.000       32.256   0.100E-07
     TRS4 it   7 1.00000000   0.152E-03       0.000       32.256   0.100E-07
     TRS4 it   8 1.00000000   0.819E-07       0.000       32.256   0.100E-07
     TRS4 it   9 1.00000000   0.291E-13       0.000       32.256   0.100E-07
     Final TRS4 iteration    9 1.00000000   0.291E-13
     Chemical potential (mu):       0.01387
 
 PAO| energy:  -7.8053981545583460      penalty:   1.4933511886694068E-005
 PAO|LS| adapt:  T T T
 PAO|LS| adapt: scan_steps:    0.0000000000000000       0.36964183846171134       0.73928367692342267     
 PAO|LS| adapt: energies:   -7.8068205216032389       -7.8069484088652894       -7.8053981545583460     
 PAO|LS| adapt: suggested step_size:   0.21299046316779346     
 PAO|LS| adapt: predicted energy  -7.8070991059256398     
 PAO| ======================= Iteration:        18 =============================

     Lanczos converged:  T threshold:   0.100E-02
     Est. extremal eigenvalues:    0.276E+01   0.183E+00
     Est. condition number :    0.150E+02

 Order=           3
     NS sqrt iter    1 1.00000000   0.706E+00       0.001       64.512
     NS sqrt iter    2 1.00000000   0.329E+00       0.001      110.592
     NS sqrt iter    3 1.00000000   0.743E-01       0.001      110.592
     NS sqrt iter    4 1.00000000   0.173E-02       0.001      110.592
     NS sqrt iter    5 1.00000000   0.443E-07       0.001       70.656
     Symmetrizing Results
     Final NS sqrt iter    5 1.00000000   0.352E-09

     Est. extremal eigenvalues     -0.93765     1.67796  converged:  T
     TRS4 it   1 1.00000000   0.863E+00       0.000       16.128   0.100E-07
     TRS4 it   2 1.00000000   0.610E+00       0.000       32.256   0.100E-07
     TRS4 it   3 1.00000000   0.416E+00       0.000       32.256   0.100E-07
     TRS4 it   4 1.00000000   0.210E+00       0.000       32.256   0.100E-07
     TRS4 it   5 1.00000000   0.658E-01       0.000       32.256   0.100E-07
     TRS4 it   6 1.00000000   0.813E-02       0.000       32.256   0.100E-07
     TRS4 it   7 1.00000000   0.165E-03       0.000       32.256   0.100E-07
     TRS4 it   8 1.00000000   0.951E-07       0.000       32.256   0.100E-07
     TRS4 it   9 1.00000000   0.380E-13       0.000       32.256   0.100E-07
     Final TRS4 iteration    9 1.00000000   0.380E-13
     Chemical potential (mu):       0.01271
 
 PAO| energy:  -7.8070986346682663      penalty:   1.5105078267225656E-005
 PAO|CG| trace_G_new    7.2866492538019734E-004
 PAO|CG| trace_G_prev    2.6154775257747568E-003
 PAO|CG| trace_G_mix    1.6670914651514596E-006
 PAO|CG| trace_D    3.3726865185769533E-003
 PAO|CG| trace_D_Gnew  -1.8079973215325315E-006
 PAO|CG| beta:   0.27795988562344637     
 PAO| norm of gradient:   2.6993794201264062E-002
 PAO| energy improvement:  -2.7811306502734112E-004
 PAO| step     18                   -7.807098635  0.169E-02  0.213E+00     0.036
 PAO|LS| adapt:  T F F
 PAO|LS| adapt: scan_steps:    0.0000000000000000        0.0000000000000000        0.0000000000000000     
 PAO|LS| adapt: energies:   -7.8070986346682663        0.0000000000000000        0.0000000000000000     
 PAO| ======================= Iteration:        19 =============================

     Lanczos converged:  T threshold:   0.100E-02
     Est. extremal eigenvalues:    0.276E+01   0.183E+00
     Est. condition number :    0.151E+02

 Order=           3
     NS sqrt iter    1 1.00000000   0.706E+00       0.001       64.512
     NS sqrt iter    2 1.00000000   0.330E+00       0.001      110.592
     NS sqrt iter    3 1.00000000   0.745E-01       0.001      110.592
     NS sqrt iter    4 1.00000000   0.174E-02       0.001      110.592
     NS sqrt iter    5 1.00000000   0.448E-07       0.001       70.784
     Symmetrizing Results
     Final NS sqrt iter    5 1.00000000   0.355E-09

     Est. extremal eigenvalues     -0.93765     1.67830  converged:  T
     TRS4 it   1 1.00000000   0.863E+00       0.000       16.128   0.100E-07
     TRS4 it   2 1.00000000   0.610E+00       0.000       32.256   0.100E-07
     TRS4 it   3 1.00000000   0.416E+00       0.000       32.256   0.100E-07
     TRS4 it   4 1.00000000   0.209E+00       0.000       32.256   0.100E-07
     TRS4 it   5 1.00000000   0.657E-01       0.000       32.256   0.100E-07
     TRS4 it   6 1.00000000   0.812E-02       0.000       32.256   0.100E-07
     TRS4 it   7 1.00000000   0.166E-03       0.000       32.256   0.100E-07
     TRS4 it   8 1.00000000   0.967E-07       0.000       32.256   0.100E-07
     TRS4 it   9 1.00000000   0.406E-13       0.000       32.256   0.100E-07
     Final TRS4 iteration    9 1.00000000   0.406E-13
     Chemical potential (mu):       0.01243
 
 PAO| energy:  -7.8072170703835342      penalty:   1.4815257327362838E-005
 PAO|LS| adapt:  T T F
 PAO|LS| adapt: scan_steps:    0.0000000000000000       0.21299046316779346        0.0000000000000000     
 PAO|LS| adapt: energies:   -7.8070986346682663       -7.8072170703835342        0.0000000000000000     
 PAO| ======================= Iteration:        20 =============================

     Lanczos converged:  T threshold:   0.100E-02
     Est. extremal eigenvalues:    0.276E+01   0.183E+00
     Est. condition number :    0.151E+02

 Order=           3
     NS sqrt iter    1 1.00000000   0.705E+00       0.001       64.512
     NS sqrt iter    2 1.00000000   0.330E+00       0.001      110.592
     NS sqrt iter    3 1.00000000   0.747E-01       0.001      110.592
     NS sqrt iter    4 1.00000000   0.175E-02       0.001      110.592
     NS sqrt iter    5 1.00000000   0.454E-07       0.001       71.040
     Symmetrizing Results
     Final NS sqrt iter    5 1.00000000   0.336E-09

     Est. extremal eigenvalues     -0.93765     1.67865  converged:  T
     TRS4 it   1 1.00000000   0.863E+00       0.000       16.128   0.100E-07
     TRS4 it   2 1.00000000   0.610E+00       0.000       32.256   0.100E-07
     TRS4 it   3 1.00000000   0.416E+00       0.000       32.256   0.100E-07
     TRS4 it   4 1.00000000   0.209E+00       0.000       32.256   0.100E-07
     TRS4 it   5 1.00000000   0.656E-01       0.000       32.256   0.100E-07
     TRS4 it   6 1.00000000   0.811E-02       0.000       32.256   0.100E-07
     TRS4 it   7 1.00000000   0.166E-03       0.000       32.256   0.100E-07
     TRS4 it   8 1.00000000   0.984E-07       0.000       32.256   0.100E-07
     TRS4 it   9 1.00000000   0.421E-13       0.000       32.256   0.100E-07
     Final TRS4 iteration    9 1.00000000   0.421E-13
     Chemical potential (mu):       0.01215
 
 PAO| energy:  -7.8072613602273568      penalty:   1.4537914942726910E-005
 PAO|LS| adapt:  T T F
 PAO|LS| adapt: scan_steps:    0.0000000000000000       0.42598092633558693        0.0000000000000000     
 PAO|LS| adapt: energies:   -7.8070986346682663       -7.8072613602273568        0.0000000000000000     
 PAO| ======================= Iteration:        21 =============================

     Lanczos converged:  T threshold:   0.100E-02
     Est. extremal eigenvalues:    0.276E+01   0.183E+00
     Est. condition number :    0.151E+02

 Order=           3
     NS sqrt iter    1 1.00000000   0.705E+00       0.001       64.512
     NS sqrt iter    2 1.00000000   0.330E+00       0.001      110.592
     NS sqrt iter    3 1.00000000   0.752E-01       0.001      110.592
     NS sqrt iter    4 1.00000000   0.177E-02       0.001      110.592
     NS sqrt iter    5 1.00000000   0.465E-07       0.001       71.296
     Symmetrizing Results
     Final NS sqrt iter    5 1.00000000   0.356E-09

     Est. extremal eigenvalues     -0.93764     1.67936  converged:  T
     TRS4 it   1 1.00000000   0.863E+00       0.000       16.128   0.100E-07
     TRS4 it   2 1.00000000   0.610E+00       0.000       32.256   0.100E-07
     TRS4 it   3 1.00000000   0.415E+00       0.000       32.256   0.100E-07
     TRS4 it   4 1.00000000   0.209E+00       0.000       32.256   0.100E-07
     TRS4 it   5 1.00000000   0.654E-01       0.000       32.256   0.100E-07
     TRS4 it   6 1.00000000   0.810E-02       0.000       32.256   0.100E-07
     TRS4 it   7 1.00000000   0.168E-03       0.000       32.256   0.100E-07
     TRS4 it   8 1.00000000   0.102E-06       0.000       32.256   0.100E-07
     TRS4 it   9 1.00000000   0.446E-13       0.000       32.256   0.100E-07
     Final TRS4 iteration    9 1.00000000   0.446E-13
     Chemical potential (mu):       0.01158
 
 PAO| energy:  -7.8071250762492959      penalty:   1.4020090128592079E-005
 PAO|LS| Need extra step
 PAO|LS| adapt:  T T T
 PAO|LS| adapt: scan_steps:    0.0000000000000000       0.42598092633558693       0.85196185267117386     
 PAO|LS| adapt: energies:   -7.8070986346682663       -7.8072613602273568       -7.8071250762492959     
 PAO|LS| adapt: suggested step_size:   0.44481579242057367     
 PAO|LS| adapt: predicted energy  -7.8072616525078367     
 PAO| ======================= Iteration:        22 =============================

     Lanczos converged:  T threshold:   0.100E-02
     Est. extremal eigenvalues:    0.276E+01   0.183E+00
     Est. condition number :    0.151E+02

 Order=           3
     NS sqrt iter    1 1.00000000   0.705E+00       0.001       64.512
     NS sqrt iter    2 1.00000000   0.330E+00       0.001      110.592
     NS sqrt iter    3 1.00000000   0.747E-01       0.001      110.592
     NS sqrt iter    4 1.00000000   0.175E-02       0.001      110.592
     NS sqrt iter    5 1.00000000   0.454E-07       0.001       71.040
     Symmetrizing Results
     Final NS sqrt iter    5 1.00000000   0.336E-09

     Est. extremal eigenvalues     -0.93765     1.67868  converged:  T
     TRS4 it   1 1.00000000   0.863E+00       0.000       16.128   0.100E-07
     TRS4 it   2 1.00000000   0.610E+00       0.000       32.256   0.100E-07
     TRS4 it   3 1.00000000   0.416E+00       0.000       32.256   0.100E-07
     TRS4 it   4 1.00000000   0.209E+00       0.000       32.256   0.100E-07
     TRS4 it   5 1.00000000   0.656E-01       0.000       32.256   0.100E-07
     TRS4 it   6 1.00000000   0.811E-02       0.000       32.256   0.100E-07
     TRS4 it   7 1.00000000   0.166E-03       0.000       32.256   0.100E-07
     TRS4 it   8 1.00000000   0.985E-07       0.000       32.256   0.100E-07
     TRS4 it   9 1.00000000   0.424E-13       0.000       32.256   0.100E-07
     Final TRS4 iteration    9 1.00000000   0.424E-13
     Chemical potential (mu):       0.01212
 
 PAO| energy:  -7.8072616883662453      penalty:   1.4513984008370166E-005
 PAO|CG| trace_G_new    2.2500634274373634E-004
 PAO|CG| trace_G_prev    7.2866492538019734E-004
 PAO|CG| trace_G_mix    3.0841321718254016E-006
 PAO|CG| trace_D    9.9024951413784939E-004
 PAO|CG| trace_D_Gnew  -1.8973236376602085E-006
 PAO|CG| beta:   0.30456002868001097     
 PAO| norm of gradient:   1.5000211423301218E-002
 PAO| energy improvement:  -1.6305369797908753E-004
 PAO| step     22                   -7.807261688  0.938E-03  0.445E+00     0.048
 PAO|LS| adapt:  T F F
 PAO|LS| adapt: scan_steps:    0.0000000000000000        0.0000000000000000        0.0000000000000000     
 PAO|LS| adapt: energies:   -7.8072616883662453        0.0000000000000000        0.0000000000000000     
 PAO| ======================= Iteration:        23 =============================

     Lanczos converged:  T threshold:   0.100E-02
     Est. extremal eigenvalues:    0.276E+01   0.183E+00
     Est. condition number :    0.151E+02

 Order=           3
     NS sqrt iter    1 1.00000000   0.705E+00       0.001       64.512
     NS sqrt iter    2 1.00000000   0.330E+00       0.001      110.592
     NS sqrt iter    3 1.00000000   0.748E-01       0.001      110.592
     NS sqrt iter    4 1.00000000   0.175E-02       0.001      110.592
     NS sqrt iter    5 1.00000000   0.455E-07       0.001       71.040
     Symmetrizing Results
     Final NS sqrt iter    5 1.00000000   0.338E-09

     Est. extremal eigenvalues     -0.93765     1.67845  converged:  T
     TRS4 it   1 1.00000000   0.863E+00       0.000       16.128   0.100E-07
     TRS4 it   2 1.00000000   0.610E+00       0.000       32.256   0.100E-07
     TRS4 it   3 1.00000000   0.416E+00       0.000       32.256   0.100E-07
     TRS4 it   4 1.00000000   0.209E+00       0.000       32.256   0.100E-07
     TRS4 it   5 1.00000000   0.657E-01       0.000       32.256   0.100E-07
     TRS4 it   6 1.00000000   0.815E-02       0.000       32.256   0.100E-07
     TRS4 it   7 1.00000000   0.168E-03       0.000       32.256   0.100E-07
     TRS4 it   8 1.00000000   0.101E-06       0.000       32.256   0.100E-07
     TRS4 it   9 1.00000000   0.439E-13       0.000       32.256   0.100E-07
     Final TRS4 iteration    9 1.00000000   0.439E-13
     Chemical potential (mu):       0.01182
 
 PAO| energy:  -7.8073118426850741      penalty:   1.3830027783824825E-005
 PAO|LS| adapt:  T T F
 PAO|LS| adapt: scan_steps:    0.0000000000000000       0.44481579242057367        0.0000000000000000     
 PAO|LS| adapt: energies:   -7.8072616883662453       -7.8073118426850741        0.0000000000000000     
 PAO| ======================= Iteration:        24 =============================

     Lanczos converged:  T threshold:   0.100E-02
     Est. extremal eigenvalues:    0.276E+01   0.183E+00
     Est. condition number :    0.151E+02

 Order=           3
     NS sqrt iter    1 1.00000000   0.705E+00       0.001       64.512
     NS sqrt iter    2 1.00000000   0.330E+00       0.001      110.592
     NS sqrt iter    3 1.00000000   0.748E-01       0.001      110.592
     NS sqrt iter    4 1.00000000   0.175E-02       0.001      110.592
     NS sqrt iter    5 1.00000000   0.455E-07       0.001       71.040
     Symmetrizing Results
     Final NS sqrt iter    5 1.00000000   0.341E-09

     Est. extremal eigenvalues     -0.93765     1.67820  converged:  T
     TRS4 it   1 1.00000000   0.863E+00       0.000       16.128   0.100E-07
     TRS4 it   2 1.00000000   0.610E+00       0.000       32.256   0.100E-07
     TRS4 it   3 1.00000000   0.416E+00       0.000       32.256   0.100E-07
     TRS4 it   4 1.00000000   0.209E+00       0.000       32.256   0.100E-07
     TRS4 it   5 1.00000000   0.658E-01       0.000       32.256   0.100E-07
     TRS4 it   6 1.00000000   0.818E-02       0.000       32.256   0.100E-07
     TRS4 it   7 1.00000000   0.170E-03       0.000       32.256   0.100E-07
     TRS4 it   8 1.00000000   0.103E-06       0.000       32.256   0.100E-07
     TRS4 it   9 1.00000000   0.466E-13       0.000       32.256   0.100E-07
     Final TRS4 iteration    9 1.00000000   0.466E-13
     Chemical potential (mu):       0.01152
 
 PAO| energy:  -7.8072609651007330      penalty:   1.3174689972009424E-005
 PAO|LS| adapt:  T T T
 PAO|LS| adapt: scan_steps:    0.0000000000000000       0.44481579242057367       0.88963158484114735     
 PAO|LS| adapt: energies:   -7.8072616883662453       -7.8073118426850741       -7.8072609651007330     
 PAO|LS| adapt: suggested step_size:   0.44322362246275987     
 PAO|LS| adapt: predicted energy  -7.8073118433322870     
 PAO| ======================= Iteration:        25 =============================

     Lanczos converged:  T threshold:   0.100E-02
     Est. extremal eigenvalues:    0.276E+01   0.183E+00
     Est. condition number :    0.151E+02

 Order=           3
     NS sqrt iter    1 1.00000000   0.705E+00       0.001       64.512
     NS sqrt iter    2 1.00000000   0.330E+00       0.001      110.592
     NS sqrt iter    3 1.00000000   0.748E-01       0.001      110.592
     NS sqrt iter    4 1.00000000   0.175E-02       0.001      110.592
     NS sqrt iter    5 1.00000000   0.455E-07       0.001       71.040
     Symmetrizing Results
     Final NS sqrt iter    5 1.00000000   0.338E-09

     Est. extremal eigenvalues     -0.93765     1.67845  converged:  T
     TRS4 it   1 1.00000000   0.863E+00       0.000       16.128   0.100E-07
     TRS4 it   2 1.00000000   0.610E+00       0.000       32.256   0.100E-07
     TRS4 it   3 1.00000000   0.416E+00       0.000       32.256   0.100E-07
     TRS4 it   4 1.00000000   0.209E+00       0.000       32.256   0.100E-07
     TRS4 it   5 1.00000000   0.657E-01       0.000       32.256   0.100E-07
     TRS4 it   6 1.00000000   0.815E-02       0.000       32.256   0.100E-07
     TRS4 it   7 1.00000000   0.168E-03       0.000       32.256   0.100E-07
     TRS4 it   8 1.00000000   0.101E-06       0.000       32.256   0.100E-07
     TRS4 it   9 1.00000000   0.446E-13       0.000       32.256   0.100E-07
     Final TRS4 iteration    9 1.00000000   0.446E-13
     Chemical potential (mu):       0.01182
 
 PAO| energy:  -7.8073118427471346      penalty:   1.3832424528068370E-005
 PAO|CG| trace_G_new    8.1387057052707812E-005
 PAO|CG| trace_G_prev    2.2500634274373634E-004
 PAO|CG| trace_G_mix    7.3889276929962452E-007
 PAO|CG| trace_D    3.1801442772135539E-004
 PAO|CG| trace_D_Gnew  -3.6760063726603883E-007
 PAO|CG| beta:   0.35842618167995288     
 PAO| norm of gradient:   9.0214775426593966E-003
 PAO| energy improvement:  -5.0154380889289030E-005
 PAO| step     25                   -7.807311843  0.564E-03  0.443E+00     0.036
 PAO|LS| adapt:  T F F
 PAO|LS| adapt: scan_steps:    0.0000000000000000        0.0000000000000000        0.0000000000000000     
 PAO|LS| adapt: energies:   -7.8073118427471346        0.0000000000000000        0.0000000000000000     
 PAO| ======================= Iteration:        26 =============================

     Lanczos converged:  T threshold:   0.100E-02
     Est. extremal eigenvalues:    0.276E+01   0.183E+00
     Est. condition number :    0.151E+02

 Order=           3
     NS sqrt iter    1 1.00000000   0.705E+00       0.001       64.512
     NS sqrt iter    2 1.00000000   0.330E+00       0.001      110.592
     NS sqrt iter    3 1.00000000   0.746E-01       0.001      110.592
     NS sqrt iter    4 1.00000000   0.175E-02       0.001      110.592
     NS sqrt iter    5 1.00000000   0.451E-07       0.001       70.912
     Symmetrizing Results
     Final NS sqrt iter    5 1.00000000   0.336E-09

     Est. extremal eigenvalues     -0.93765     1.67808  converged:  T
     TRS4 it   1 1.00000000   0.863E+00       0.000       16.128   0.100E-07
     TRS4 it   2 1.00000000   0.610E+00       0.000       32.256   0.100E-07
     TRS4 it   3 1.00000000   0.416E+00       0.000       32.256   0.100E-07
     TRS4 it   4 1.00000000   0.209E+00       0.000       32.256   0.100E-07
     TRS4 it   5 1.00000000   0.656E-01       0.000       32.256   0.100E-07
     TRS4 it   6 1.00000000   0.812E-02       0.000       32.256   0.100E-07
     TRS4 it   7 1.00000000   0.167E-03       0.000       32.256   0.100E-07
     TRS4 it   8 1.00000000   0.993E-07       0.000       32.256   0.100E-07
     TRS4 it   9 1.00000000   0.426E-13       0.000       32.256   0.100E-07
     Final TRS4 iteration    9 1.00000000   0.426E-13
     Chemical potential (mu):       0.01196
 
 PAO| energy:  -7.8073162231528119      penalty:   1.3105497719857745E-005
 PAO|LS| adapt:  T T F
 PAO|LS| adapt: scan_steps:    0.0000000000000000       0.44322362246275987        0.0000000000000000     
 PAO|LS| adapt: energies:   -7.8073118427471346       -7.8073162231528119        0.0000000000000000     
 PAO| ======================= Iteration:        27 =============================

     Lanczos converged:  T threshold:   0.100E-02
     Est. extremal eigenvalues:    0.276E+01   0.183E+00
     Est. condition number :    0.151E+02

 Order=           3
     NS sqrt iter    1 1.00000000   0.705E+00       0.001       64.512
     NS sqrt iter    2 1.00000000   0.329E+00       0.001      110.592
     NS sqrt iter    3 1.00000000   0.745E-01       0.001      110.592
     NS sqrt iter    4 1.00000000   0.174E-02       0.001      110.592
     NS sqrt iter    5 1.00000000   0.448E-07       0.001       70.784
     Symmetrizing Results
     Final NS sqrt iter    5 1.00000000   0.337E-09

     Est. extremal eigenvalues     -0.93765     1.67771  converged:  T
     TRS4 it   1 1.00000000   0.863E+00       0.000       16.128   0.100E-07
     TRS4 it   2 1.00000000   0.610E+00       0.000       32.256   0.100E-07
     TRS4 it   3 1.00000000   0.415E+00       0.000       32.256   0.100E-07
     TRS4 it   4 1.00000000   0.209E+00       0.000       32.256   0.100E-07
     TRS4 it   5 1.00000000   0.655E-01       0.000       32.256   0.100E-07
     TRS4 it   6 1.00000000   0.810E-02       0.000       32.256   0.100E-07
     TRS4 it   7 1.00000000   0.166E-03       0.000       32.256   0.100E-07
     TRS4 it   8 1.00000000   0.978E-07       0.000       32.256   0.100E-07
     TRS4 it   9 1.00000000   0.410E-13       0.000       32.256   0.100E-07
     Final TRS4 iteration    9 1.00000000   0.410E-13
     Chemical potential (mu):       0.01211
 
 PAO| energy:  -7.8072569923236639      penalty:   1.2402664147492677E-005
 PAO|LS| adapt:  T T T
 PAO|LS| adapt: scan_steps:    0.0000000000000000       0.44322362246275987       0.88644724492551974     
 PAO|LS| adapt: energies:   -7.8073118427471346       -7.8073162231528119       -7.8072569923236639     
 PAO|LS| adapt: suggested step_size:   0.25213313780958724     
 PAO|LS| adapt: predicted energy  -7.8073221351763777     
 PAO| ======================= Iteration:        28 =============================

     Lanczos converged:  T threshold:   0.100E-02
     Est. extremal eigenvalues:    0.276E+01   0.183E+00
     Est. condition number :    0.151E+02

 Order=           3
     NS sqrt iter    1 1.00000000   0.705E+00       0.001       64.512
     NS sqrt iter    2 1.00000000   0.330E+00       0.001      110.592
     NS sqrt iter    3 1.00000000   0.747E-01       0.001      110.592
     NS sqrt iter    4 1.00000000   0.175E-02       0.001      110.592
     NS sqrt iter    5 1.00000000   0.453E-07       0.001       71.040
     Symmetrizing Results
     Final NS sqrt iter    5 1.00000000   0.337E-09

     Est. extremal eigenvalues     -0.93765     1.67824  converged:  T
     TRS4 it   1 1.00000000   0.863E+00       0.000       16.128   0.100E-07
     TRS4 it   2 1.00000000   0.610E+00       0.000       32.256   0.100E-07
     TRS4 it   3 1.00000000   0.416E+00       0.000       32.256   0.100E-07
     TRS4 it   4 1.00000000   0.209E+00       0.000       32.256   0.100E-07
     TRS4 it   5 1.00000000   0.656E-01       0.000       32.256   0.100E-07
     TRS4 it   6 1.00000000   0.813E-02       0.000       32.256   0.100E-07
     TRS4 it   7 1.00000000   0.167E-03       0.000       32.256   0.100E-07
     TRS4 it   8 1.00000000   0.100E-06       0.000       32.256   0.100E-07
     TRS4 it   9 1.00000000   0.431E-13       0.000       32.256   0.100E-07
     Final TRS4 iteration    9 1.00000000   0.431E-13
     Chemical potential (mu):       0.01190
 
 PAO| energy:  -7.8073221255375644      penalty:   1.3415929010974214E-005
 PAO|CG| trace_G_new    3.3206940339706472E-005
 PAO|CG| trace_G_prev    8.1387057052707812E-005
 PAO|CG| trace_G_mix    5.5947870381230019E-008
 PAO|CG| trace_D    1.2250567217091479E-004
 PAO|CG| trace_D_Gnew  -2.6841921602795471E-008
 PAO|CG| beta:   0.40732511617733058     
 PAO| norm of gradient:   5.7625463416537022E-003
 PAO| energy improvement:  -1.0282790429805289E-005
 PAO| step     28                   -7.807322126  0.360E-03  0.252E+00     0.037
 PAO|LS| adapt:  T F F
 PAO|LS| adapt: scan_steps:    0.0000000000000000        0.0000000000000000        0.0000000000000000     
 PAO|LS| adapt: energies:   -7.8073221255375644        0.0000000000000000        0.0000000000000000     
 PAO| ======================= Iteration:        29 =============================

     Lanczos converged:  T threshold:   0.100E-02
     Est. extremal eigenvalues:    0.276E+01   0.183E+00
     Est. condition number :    0.151E+02

 Order=           3
     NS sqrt iter    1 1.00000000   0.705E+00       0.001       64.512
     NS sqrt iter    2 1.00000000   0.330E+00       0.001      110.592
     NS sqrt iter    3 1.00000000   0.746E-01       0.001      110.592
     NS sqrt iter    4 1.00000000   0.175E-02       0.001      110.592
     NS sqrt iter    5 1.00000000   0.452E-07       0.001       71.040
     Symmetrizing Results
     Final NS sqrt iter    5 1.00000000   0.336E-09

     Est. extremal eigenvalues     -0.93765     1.67814  converged:  T
     TRS4 it   1 1.00000000   0.863E+00       0.000       16.128   0.100E-07
     TRS4 it   2 1.00000000   0.610E+00       0.000       32.256   0.100E-07
     TRS4 it   3 1.00000000   0.415E+00       0.000       32.256   0.100E-07
     TRS4 it   4 1.00000000   0.209E+00       0.000       32.256   0.100E-07
     TRS4 it   5 1.00000000   0.655E-01       0.000       32.256   0.100E-07
     TRS4 it   6 1.00000000   0.811E-02       0.000       32.256   0.100E-07
     TRS4 it   7 1.00000000   0.166E-03       0.000       32.256   0.100E-07
     TRS4 it   8 1.00000000   0.985E-07       0.000       32.256   0.100E-07
     TRS4 it   9 1.00000000   0.426E-13       0.000       32.256   0.100E-07
     Final TRS4 iteration    9 1.00000000   0.426E-13
     Chemical potential (mu):       0.01205
 
 PAO| energy:  -7.8073294881792554      penalty:   1.2976256129897428E-005
 PAO|LS| adapt:  T T F
 PAO|LS| adapt: scan_steps:    0.0000000000000000       0.25213313780958724        0.0000000000000000     
 PAO|LS| adapt: energies:   -7.8073221255375644       -7.8073294881792554        0.0000000000000000     
 PAO| ======================= Iteration:        30 =============================

     Lanczos converged:  T threshold:   0.100E-02
     Est. extremal eigenvalues:    0.276E+01   0.183E+00
     Est. condition number :    0.151E+02

 Order=           3
     NS sqrt iter    1 1.00000000   0.705E+00       0.001       64.512
     NS sqrt iter    2 1.00000000   0.329E+00       0.001      110.592
     NS sqrt iter    3 1.00000000   0.745E-01       0.001      110.592
     NS sqrt iter    4 1.00000000   0.174E-02       0.001      110.592
     NS sqrt iter    5 1.00000000   0.451E-07       0.001       70.784
     Symmetrizing Results
     Final NS sqrt iter    5 1.00000000   0.339E-09

     Est. extremal eigenvalues     -0.93766     1.67804  converged:  T
     TRS4 it   1 1.00000000   0.863E+00       0.000       16.128   0.100E-07
     TRS4 it   2 1.00000000   0.610E+00       0.000       32.256   0.100E-07
     TRS4 it   3 1.00000000   0.415E+00       0.000       32.256   0.100E-07
     TRS4 it   4 1.00000000   0.209E+00       0.000       32.256   0.100E-07
     TRS4 it   5 1.00000000   0.655E-01       0.000       32.256   0.100E-07
     TRS4 it   6 1.00000000   0.809E-02       0.000       32.256   0.100E-07
     TRS4 it   7 1.00000000   0.165E-03       0.000       32.256   0.100E-07
     TRS4 it   8 1.00000000   0.971E-07       0.000       32.256   0.100E-07
     TRS4 it   9 1.00000000   0.415E-13       0.000       32.256   0.100E-07
     Final TRS4 iteration    9 1.00000000   0.415E-13
     Chemical potential (mu):       0.01220
 
 PAO| energy:  -7.8073348260126521      penalty:   1.2544793142607404E-005
 PAO|LS| adapt:  T T F
 PAO|LS| adapt: scan_steps:    0.0000000000000000       0.50426627561917448        0.0000000000000000     
 PAO|LS| adapt: energies:   -7.8073221255375644       -7.8073348260126521        0.0000000000000000     
 PAO| ======================= Iteration:        31 =============================

     Lanczos converged:  T threshold:   0.100E-02
     Est. extremal eigenvalues:    0.276E+01   0.183E+00
     Est. condition number :    0.151E+02

 Order=           3
     NS sqrt iter    1 1.00000000   0.704E+00       0.001       64.512
     NS sqrt iter    2 1.00000000   0.329E+00       0.001      110.592
     NS sqrt iter    3 1.00000000   0.744E-01       0.001      110.592
     NS sqrt iter    4 1.00000000   0.174E-02       0.001      110.592
     NS sqrt iter    5 1.00000000   0.450E-07       0.001       70.784
     Symmetrizing Results
     Final NS sqrt iter    5 1.00000000   0.337E-09

     Est. extremal eigenvalues     -0.93766     1.67783  converged:  T
     TRS4 it   1 1.00000000   0.863E+00       0.000       16.128   0.100E-07
     TRS4 it   2 1.00000000   0.610E+00       0.000       32.256   0.100E-07
     TRS4 it   3 1.00000000   0.415E+00       0.000       32.256   0.100E-07
     TRS4 it   4 1.00000000   0.209E+00       0.000       32.256   0.100E-07
     TRS4 it   5 1.00000000   0.653E-01       0.000       32.256   0.100E-07
     TRS4 it   6 1.00000000   0.804E-02       0.000       32.256   0.100E-07
     TRS4 it   7 1.00000000   0.163E-03       0.000       32.256   0.100E-07
     TRS4 it   8 1.00000000   0.944E-07       0.000       32.256   0.100E-07
     TRS4 it   9 1.00000000   0.387E-13       0.000       32.256   0.100E-07
     Final TRS4 iteration    9 1.00000000   0.387E-13
     Chemical potential (mu):       0.01250
 
 PAO| energy:  -7.8073394291287661      penalty:   1.1706319341347490E-005
 PAO|LS| Need extra step
 PAO|LS| adapt:  T T F
 PAO|LS| adapt: scan_steps:    0.0000000000000000        1.0085325512383490        0.0000000000000000     
 PAO|LS| adapt: energies:   -7.8073221255375644       -7.8073394291287661        0.0000000000000000     
 PAO| ======================= Iteration:        32 =============================

     Lanczos converged:  T threshold:   0.100E-02
     Est. extremal eigenvalues:    0.275E+01   0.183E+00
     Est. condition number :    0.150E+02

 Order=           3
     NS sqrt iter    1 1.00000000   0.703E+00       0.001       64.512
[...]
     TRS4 it   1 1.00000000   0.876E+00       0.000       16.128   0.100E-07
     TRS4 it   2 1.00000000   0.631E+00       0.000       32.256   0.100E-07
     TRS4 it   3 1.00000000   0.455E+00       0.000       32.256   0.100E-07
     TRS4 it   4 1.00000000   0.278E+00       0.000       32.256   0.100E-07
     TRS4 it   5 1.00000000   0.138E+00       0.000       32.256   0.100E-07
     TRS4 it   6 1.00000000   0.435E-01       0.000       32.256   0.100E-07
     TRS4 it   7 1.00000000   0.610E-02       0.000       32.256   0.100E-07
     TRS4 it   8 1.00000000   0.159E-03       0.000       32.256   0.100E-07
     TRS4 it   9 1.00000000   0.114E-06       0.000       32.256   0.100E-07
     TRS4 it  10 1.00000000   0.587E-13       0.000       32.256   0.100E-07
     Final TRS4 iteration   10 1.00000000   0.587E-13
     Chemical potential (mu):      -0.07701
 
 PAO| energy:  -7.8067205873969900      penalty:   2.5300164226983665E-008
 PAO|CG| warming up with steepest descent
 PAO|CG| beta:    0.0000000000000000     
 PAO| norm of gradient:   1.2120601148910295E-004
 PAO| energy improvement:  -5.2761954805191635E-009
 PAO| step    431                   -7.806720587  0.758E-05  0.256E+00     0.054
 PAO| converged after          431  steps :-)
 PAO| Recalculating energy after mixing.

     Lanczos converged:  T threshold:   0.100E-02
     Est. extremal eigenvalues:    0.252E+01   0.190E+00
     Est. condition number :    0.132E+02

 Order=           3
     NS sqrt iter    1 1.00000000   0.639E+00       0.001       64.512
     NS sqrt iter    2 1.00000000   0.278E+00       0.001      110.592
     NS sqrt iter    3 1.00000000   0.492E-01       0.001      110.592
     NS sqrt iter    4 1.00000000   0.804E-03       0.001      110.592
     NS sqrt iter    5 1.00000000   0.688E-08       0.001       38.272
     Symmetrizing Results
     Final NS sqrt iter    5 1.00000000   0.399E-09

     Est. extremal eigenvalues     -0.93735     1.62583  converged:  T
     TRS4 it   1 1.00000000   0.876E+00       0.000       16.128   0.100E-07
     TRS4 it   2 1.00000000   0.631E+00       0.000       32.256   0.100E-07
     TRS4 it   3 1.00000000   0.455E+00       0.000       32.256   0.100E-07
     TRS4 it   4 1.00000000   0.278E+00       0.000       32.256   0.100E-07
     TRS4 it   5 1.00000000   0.138E+00       0.000       32.256   0.100E-07
     TRS4 it   6 1.00000000   0.435E-01       0.000       32.256   0.100E-07
     TRS4 it   7 1.00000000   0.610E-02       0.000       32.256   0.100E-07
     TRS4 it   8 1.00000000   0.159E-03       0.000       32.256   0.100E-07
     TRS4 it   9 1.00000000   0.114E-06       0.000       32.256   0.100E-07
     TRS4 it  10 1.00000000   0.591E-13       0.000       32.256   0.100E-07
     Final TRS4 iteration   10 1.00000000   0.591E-13
     Chemical potential (mu):      -0.07701
 
 PAO| energy:  -7.8067205860779287      penalty:   2.5562933472432614E-008
 PAO| Writing restart file.
     Est. extremal eigenvalues     -0.93735     1.62583  converged:  T
     TRS4 it   1 1.00000000   0.876E+00       0.000       16.128   0.100E-07
     TRS4 it   2 1.00000000   0.631E+00       0.000       32.256   0.100E-07
     TRS4 it   3 1.00000000   0.455E+00       0.000       32.256   0.100E-07
     TRS4 it   4 1.00000000   0.278E+00       0.000       32.256   0.100E-07
     TRS4 it   5 1.00000000   0.138E+00       0.000       32.256   0.100E-07
     TRS4 it   6 1.00000000   0.435E-01       0.000       32.256   0.100E-07
     TRS4 it   7 1.00000000   0.610E-02       0.000       32.256   0.100E-07
     TRS4 it   8 1.00000000   0.159E-03       0.000       32.256   0.100E-07
     TRS4 it   9 1.00000000   0.114E-06       0.000       32.256   0.100E-07
     TRS4 it  10 1.00000000   0.591E-13       0.000       32.256   0.100E-07
     Final TRS4 iteration   10 1.00000000   0.591E-13
     Chemical potential (mu):      -0.07701

 SCF     1       -34.449870872       -34.449870872    1.976090

*********************************************************
 Using MIXING_FRACTION=0.450 to mix KS matrix:  iscf=  2
 KS_nw=0.450*KS + 0.550*KS_old
*********************************************************
     Est. extremal eigenvalues     -0.93736     1.62583  converged:  T
     TRS4 it   1 1.00000000   0.876E+00       0.000       16.128   0.100E-07
     TRS4 it   2 1.00000000   0.631E+00       0.000       32.256   0.100E-07
     TRS4 it   3 1.00000000   0.455E+00       0.000       32.256   0.100E-07
     TRS4 it   4 1.00000000   0.278E+00       0.000       32.256   0.100E-07
     TRS4 it   5 1.00000000   0.138E+00       0.000       32.256   0.100E-07
     TRS4 it   6 1.00000000   0.435E-01       0.000       32.256   0.100E-07
     TRS4 it   7 1.00000000   0.610E-02       0.000       32.256   0.100E-07
     TRS4 it   8 1.00000000   0.159E-03       0.000       32.256   0.100E-07
     TRS4 it   9 1.00000000   0.114E-06       0.000       32.256   0.100E-07
     TRS4 it  10 1.00000000   0.578E-13       0.000       32.256   0.100E-07
     Final TRS4 iteration   10 1.00000000   0.578E-13
     Chemical potential (mu):      -0.07701

 SCF     2       -34.449870873        -0.000000000    1.164567


 SCF run converged in     2 steps.

 PAO| Storing density matrix for ASPC guess in slot:           1

 ENERGY| Total FORCE_EVAL ( QS ) energy [a.u.]:              -34.449870872655318

 -------------------------------------------------------------------------------
 -                                                                             -
 -                                DBCSR STATISTICS                             -
 -                                                                             -
 -------------------------------------------------------------------------------
 COUNTER                                    TOTAL       BLAS       SMM       ACC
 flops     5 x     5 x     4                20000       0.0%    100.0%      0.0%
 flops    13 x     5 x     4                20800       0.0%    100.0%      0.0%
 flops     5 x    13 x     4                20800       0.0%    100.0%      0.0%
 flops    13 x    13 x     4                40560       0.0%    100.0%      0.0%
 flops     4 x     4 x     5              3383040       0.0%    100.0%      0.0%
 flops     5 x     4 x     5              4124800       0.0%    100.0%      0.0%
 flops     4 x     4 x    13              4397952       0.0%    100.0%      0.0%
 flops    13 x     4 x     5              5362240       0.0%    100.0%      0.0%
 flops     5 x     4 x    13              5362240       0.0%    100.0%      0.0%
 flops     5 x     4 x     4              6501920       0.0%    100.0%      0.0%
 flops    13 x     4 x    13              6970912       0.0%    100.0%      0.0%
 flops    13 x     4 x     4              8618688       0.0%    100.0%      0.0%
 flops     4 x     4 x     4            437574272       0.0%    100.0%      0.0%
 flops inhomo. stacks                           0       0.0%      0.0%      0.0%
 flops total                       482.398224E+06       0.0%    100.0%      0.0%
 flops max/rank                    482.398224E+06       0.0%    100.0%      0.0%
 matmuls inhomo. stacks                         0       0.0%      0.0%      0.0%
 matmuls total                            3558234       0.0%    100.0%      0.0%
 number of processed stacks                 28357       0.0%    100.0%      0.0%
 average stack size                                     0.0     125.5       0.0
 marketing flops                   785.058624E+06
 -------------------------------------------------------------------------------
 # multiplications                          23731
 max memory usage/rank             505.237504E+06
 # max total images/rank                        1
 # max 3D layers                                1
 # MPI messages exchanged                       0
 -------------------------------------------------------------------------------

 -------------------------------------------------------------------------------
 -                                                                             -
 -                                DBM STATISTICS                               -
 -                                                                             -
 -------------------------------------------------------------------------------
    M  x    N  x    K                                          COUNT     PERCENT
 -------------------------------------------------------------------------------

 -------------------------------------------------------------------------------
 -                                                                             -
 -                                GRID STATISTICS                              -
 -                                                                             -
 -------------------------------------------------------------------------------
 LP    KERNEL             BACKEND                              COUNT     PERCENT
 2     collocate ortho    REF                                  38000      30.74%
 2     integrate ortho    REF                                  38000      30.74%
 3     collocate ortho    REF                                  19560      15.82%
 3     integrate ortho    REF                                  19560      15.82%
 4     collocate ortho    REF                                   4250       3.44%
 4     integrate ortho    REF                                   4250       3.44%
 0     collocate general  REF                                      6       0.00%
 -------------------------------------------------------------------------------

 MEMORY| Estimated peak process memory [MiB]                                 482

 -------------------------------------------------------------------------------
 -                                                                             -
 -                           R E F E R E N C E S                               -
 -                                                                             -
 -------------------------------------------------------------------------------
 
 CP2K version 2023.1 (Development Version), the CP2K developers group (2023).
 CP2K is freely available from https://www.cp2k.org/ .

 Kuehne,Thomas D.; Iannuzzi,Marcella; Del Ben,Mauro;
 Rybkin,Vladimir V.; Seewald,Patrick; Stein,Frederick; Laino,Teodoro;
 Khaliullin,Rustam Z.; Schuett,Ole; Schiffmann,Florian; Golze,Dorothea;
 Wilhelm,Jan; Chulkov,Sergey; Bani-Hashemian,Mohammad Hossein;
 Weber,Valery; Borstnik,Urban; Taillefumier,Mathieu;
 Jakobovits,Alice Shoshana; Lazzaro,Alfio; Pabst,Hans; Mueller,Tiziano;
 Schade,Robert; Guidon,Manuel; Andermatt,Samuel; Holmberg,Nico;
 Schenter,Gregory K.; Hehn,Anna; Bussy,Augustin; Belleflamme,Fabian;
 Tabacchi,Gloria; Gloess,Andreas; Lass,Michael; Bethune,Iain;
 Mundy,Christopher J.; Plessl,Christian; Watkins,Matt;
 VandeVondele,Joost; Krack,Matthias; Hutter,Juerg. 
 The Journal of Chemical Physics, 152 (19), (2020). 
 CP2K: An electronic structure and molecular dynamics software package -
 Quickstep: Efficient and accurate electronic structure calculations.
 https://doi.org/10.1063/5.0007045

 Schuett, O; VandeVondele, J. 
 Journal of Chemical Theory and Computation, 14, (2018). 
 Machine Learning Adaptive Basis Sets for Efficient Large Scale
 Density Functional Theory Simulation.
 https://doi.org/10.1021/acs.jctc.8b00378

 Schuett, Ole; Messmer, Peter; Hutter, Juerg; VandeVondele, Joost. 
 Electronic Structure Calculations on Graphics Processing Units, John
 Wiley & Sons, Ltd, 173-190 (2016). 
 GPU-Accelerated Sparse Matrix-Matrix Multiplication for
 Linear Scaling Density Functional Theory.
 https://doi.org/10.1002/9781118670712.ch8

 Heinecke, A; Henry, G; Hutchinson, M; Pabst, H. 
 Proceedings of Intl. Supercomputing Conference, 981-991 (2016). 
 LIBXSMM: Accelerating Small Matrix Multiplications
 by Runtime Code Generation.
 https://doi.org/10.1109/SC.2016.83

 Borstnik, U; VandeVondele, J; Weber, V; Hutter, J. 
 PARALLEL COMPUTING, 40 (5-6), 47-58 (2014). 
 Sparse matrix multiplication: The distributed block-compressed sparse
 row library.
 https://doi.org/10.1016/j.parco.2014.03.012

 Hutter, J; Iannuzzi, M; Schiffmann, F; VandeVondele, J. 
 WIREs Comput Mol Sci., 4 (1), 15-25 (2014). 
 CP2K: atomistic simulations of condensed matter systems.
 https://doi.org/10.1002/wcms.1159

 VandeVondele, J; Borstnik, U; Hutter, J. 
 JOURNAL OF CHEMICAL THEORY AND COMPUTATION, 8 (10), 3565-3573 (2012). 
 Linear Scaling Self-Consistent Field Calculations with Millions of Atoms
 in the Condensed Phase.
 https://doi.org/10.1021/ct200897x

 VandeVondele, J; Hutter, J. 
 JOURNAL OF CHEMICAL PHYSICS, 127 (11), 114105 (2007). 
 Gaussian basis sets for accurate calculations on molecular systems in
 gas and condensed phases.
 https://doi.org/10.1063/1.2770708

 Krack, M. 
 THEORETICAL CHEMISTRY ACCOUNTS, 114 (1-3), 145-152 (2005). 
 Pseudopotentials for H to Kr optimized for gradient-corrected
 exchange-correlation functionals.
 https://doi.org/10.1007/s00214-005-0655-y

 VandeVondele, J; Krack, M; Mohamed, F; Parrinello, M; Chassaing, T;
 Hutter, J. COMPUTER PHYSICS COMMUNICATIONS, 167 (2), 103-128 (2005). 
 QUICKSTEP: Fast and accurate density functional calculations using a
 mixed Gaussian and plane waves approach.
 https://doi.org/10.1016/j.cpc.2004.12.014

 Frigo, M; Johnson, SG. 
 PROCEEDINGS OF THE IEEE, 93 (2), 216-231 (2005). 
 The design and implementation of FFTW3.
 https://doi.org/10.1109/JPROC.2004.840301

 Niklasson, AMN; Tymczak, CJ; Challacombe, M. 
 JOURNAL OF CHEMICAL PHYSICS, 118 (19), 8611-8620 (2003). 
 Trace resetting density matrix purification in O(N)
 self-consistent-field theory.
 https://doi.org/10.1063/1.1559913

 Hartwigsen, C; Goedecker, S; Hutter, J. 
 PHYSICAL REVIEW B, 58 (7), 3641-3662 (1998). 
 Relativistic separable dual-space Gaussian pseudopotentials from H to Rn.
 https://doi.org/10.1103/PhysRevB.58.3641

 Lippert, G; Hutter, J; Parrinello, M. 
 MOLECULAR PHYSICS, 92 (3), 477-487 (1997). 
 A hybrid Gaussian and plane wave density functional scheme.
 https://doi.org/10.1080/002689797170220

 Perdew, JP; Burke, K; Ernzerhof, M. 
 PHYSICAL REVIEW LETTERS, 77 (18), 3865-3868 (1996). 
 Generalized gradient approximation made simple.
 https://doi.org/10.1103/PhysRevLett.77.3865

 Goedecker, S; Teter, M; Hutter, J. 
 PHYSICAL REVIEW B, 54 (3), 1703-1710 (1996). 
 Separable dual-space Gaussian pseudopotentials.
 https://doi.org/10.1103/PhysRevB.54.1703


 -------------------------------------------------------------------------------
 -                                                                             -
 -                                T I M I N G                                  -
 -                                                                             -
 -------------------------------------------------------------------------------
 SUBROUTINE                       CALLS  ASD         SELF TIME        TOTAL TIME
                                MAXIMUM       AVERAGE  MAXIMUM  AVERAGE  MAXIMUM
 CP2K                                 1  1.0    0.009    0.009   24.669   24.669
 qs_energies                          1  2.0    0.000    0.000   24.291   24.291
 ls_scf                               1  3.0    0.000    0.000   24.167   24.167
 ls_scf_main                          4  4.0    0.001    0.001   16.491   16.491
 ls_scf_dm_to_ks                      9  5.0    0.000    0.000   16.430   16.430
 qs_ks_update_qs_env                 10  6.0    0.000    0.000   14.461   14.461
 rebuild_ks_matrix                   10  7.0    0.000    0.000   14.460   14.460
 qs_ks_build_kohn_sham_matrix        10  8.0    0.003    0.003   14.460   14.460
 qs_vxc_create                       10  9.0    0.000    0.000    9.141    9.141
 xc_vxc_pw_create                    10 10.0    0.202    0.202    9.141    9.141
 pw_transfer                        191 11.1    0.023    0.023    7.859    7.859
 fft_wrap_pw1pw2                    171 12.3    0.003    0.003    7.522    7.522
 fft_wrap_pw1pw2_200                111 13.7    0.991    0.991    7.324    7.324
 xc_pw_derive                        60 12.0    0.001    0.001    5.557    5.557
 xc_rho_set_and_dset_create          10 11.0    0.220    0.220    5.378    5.378
 pao_update                           4  4.0    0.005    0.005    5.335    5.335
 pao_calc_energy                    434  5.0    0.002    0.002    4.837    4.837
 qs_rho_update_rho_low               10  6.0    0.000    0.000    4.275    4.275
 calculate_rho_elec                  10  7.0    0.044    0.044    4.275    4.275
 dbcsr_multiply_generic           23731  8.4    0.245    0.245    3.836    3.836
 xc_pw_divergence                    10 11.0    0.001    0.001    3.431    3.431
 sum_up_and_integrate                10  9.0    0.101    0.101    3.424    3.424
 integrate_v_rspace                  10 10.0    0.001    0.001    3.322    3.322
 fft3d_s                            172 14.2    2.825    2.825    2.839    2.839
 grid_integrate_task_list            10 11.0    2.595    2.595    2.595    2.595
 pao_dm_trs4                        434  6.0    0.001    0.001    2.537    2.537
 density_matrix_trs4                443  7.0    0.081    0.081    2.450    2.450
 pao_guess_initial_P                  1  4.0    0.000    0.000    2.310    2.310
 pao_read_preopt_dm                   1  5.0    0.000    0.000    2.310    2.310
 ls_scf_init_matrix_S               438  7.0    0.002    0.002    2.289    2.289
 grid_collocate_task_list            10  8.0    2.268    2.268    2.268    2.268
 pao_rebuild_S                      434  6.0    0.001    0.001    2.267    2.267
 matrix_sqrt_Newton_Schulz          438  8.0    0.057    0.057    2.067    2.067
 density_rs2pw                       10  8.0    0.001    0.001    1.963    1.963
 pw_scatter_s                        90 14.7    1.922    1.922    1.922    1.922
 xc_functional_eval                  10 12.0    0.000    0.000    1.919    1.919
 pbe_lda_eval                        10 13.0    1.919    1.919    1.919    1.919
 pw_gather_s                         81 13.8    1.736    1.736    1.736    1.736
 make_m2s                         47462  9.4    0.090    0.090    1.459    1.459
 multiply_cannon                  23731  9.4    0.573    0.573    1.421    1.421
 make_images                      47462 10.4    0.373    0.373    1.298    1.298
 pw_derive                           60 13.0    1.196    1.196    1.196    1.196
 pw_copy                            120 11.8    1.051    1.051    1.051    1.051
 pw_poisson_solve                    10  9.0    0.162    0.162    0.795    0.795
 arnoldi_extremal                   881  8.5    0.002    0.002    0.746    0.746
 arnoldi_normal_ev                  881  9.5    0.006    0.006    0.744    0.744
 potential_pw2rs                     10 11.0    0.001    0.001    0.726    0.726
 pw_axpy                             90 10.3    0.666    0.666    0.666    0.666
 build_subspace                     881 10.5    0.032    0.032    0.585    0.585
 dbcsr_matrix_vector_mult         21135 11.5    0.066    0.066    0.542    0.542
 pao_calc_AB                        571  5.8    0.000    0.000    0.494    0.494
 pao_calc_AB_equi                   571  6.8    0.014    0.014    0.494    0.494
 -------------------------------------------------------------------------------

 The number of warnings for this run is : 0
 
 -------------------------------------------------------------------------------
  **** **** ******  **  PROGRAM ENDED AT                 2023-02-01 10:45:44.497
 ***** ** ***  *** **   PROGRAM RAN ON                                    moritz
 **    ****   ******    PROGRAM RAN BY                                       ole
 ***** **    ** ** **   PROGRAM PROCESS ID                                148589
  **** **  *******  **  PROGRAM STOPPED IN /home/ole/git/pao_ml_equivar/2H2O_rot
                                           ations/phi_18
