 DBCSR| CPU Multiplication driver                                           XSMM (U)
 DBCSR| Multrec recursion limit                                              512 (U)
 DBCSR| Multiplication stack size                                           1000 (D)
 DBCSR| Maximum elements for images                                    UNLIMITED (U)
 DBCSR| Multiplicative factor virtual images                                   1 (U)
 DBCSR| Use multiplication densification                                       T (D)
 DBCSR| Multiplication size stacks                                             3 (U)
 DBCSR| Use memory pool for CPU allocation                                     F (U)
 DBCSR| Number of 3D layers                                               SINGLE (U)
 DBCSR| Use MPI memory allocation                                              F (U)
 DBCSR| Use RMA algorithm                                                      F (U)
 DBCSR| Use Communication thread                                               T (U)
 DBCSR| Communication thread load                                             87 (D)
 DBCSR| MPI: My process id                                                     0
 DBCSR| MPI: Number of processes                                              32
 DBCSR| OMP: Current number of threads                                         1
 DBCSR| OMP: Max number of threads                                             1
 DBCSR| Split modifier for TAS multiplication algorithm                  1.0E+00 (U)


  **** **** ******  **  PROGRAM STARTED AT               2024-09-24 05:42:41.017
 ***** ** ***  *** **   PROGRAM STARTED ON                                moritz
 **    ****   ******    PROGRAM STARTED BY                                   ole
 ***** **    ** ** **   PROGRAM PROCESS ID                                169661
  **** **  *******  **  PROGRAM STARTED IN /home/ole/git/pao_ml_equivar/64H2O_MD
                                           /Frame6000

 CP2K| version string:                 CP2K version 2024.3 (Development Version)
 CP2K| source code revision number:                                  git:3f890bb
 CP2K| cp2kflags: omp libint fftw3 libxc libgrpp pexsi elpa parallel scalapack c
 CP2K|            osma quip deepmd xsmm plumed2 spglib libdftd4 sirius libvori l
 CP2K|            libbqb libvdwxc hdf5
 CP2K| is freely available from                            https://www.cp2k.org/
 CP2K| Program compiled at                          Mo 23 Sep 2024 17:17:04 CEST
 CP2K| Program compiled on                                                moritz
 CP2K| Program compiled for                                                local
 CP2K| Data directory path                               /home/ole/git/cp2k/data
 CP2K| Input file name                                           64H2O_pao44.inp

 GLOBAL| Force Environment number                                              1
 GLOBAL| Basis set file name                                        BASIS_MOLOPT
 GLOBAL| Potential file name                                      GTH_POTENTIALS
 GLOBAL| MM Potential file name                                     MM_POTENTIAL
 GLOBAL| Coordinate file name                                         coords.xyz
 GLOBAL| Method name                                                        CP2K
 GLOBAL| Project name                                                64H2O_pao44
 GLOBAL| Run type                                                         ENERGY
 GLOBAL| FFT library                                                       FFTW3
 GLOBAL| Diagonalization library                                            ELPA
 GLOBAL| DGEMM library                                                      BLAS
 GLOBAL| Minimum number of eigenvectors for ELPA usage                        16
 GLOBAL| Orthonormality check for eigenvectors                          DISABLED
 GLOBAL| Matrix multiplication library                                     COSMA
 GLOBAL| All-to-all communication in single precision                          F
 GLOBAL| FFTs using library dependent lengths                                  F
 GLOBAL| Grid backend                                                       AUTO
 GLOBAL| Global print level                                                  LOW
 GLOBAL| MPI I/O enabled                                                       T
 GLOBAL| Total number of message passing processes                            32
 GLOBAL| Number of threads for this process                                    1
 GLOBAL| This output is from process                                           0
 GLOBAL| Stack size for threads created by OpenMP (OMP_STACKSIZE)        default
 GLOBAL| CPU model name           AMD Ryzen Threadripper 3970X 32-Core Processor
 GLOBAL| CPUID                                                              1002

 MEMORY| system memory details [Kb]
 MEMORY|                        rank 0           min           max       average
 MEMORY| MemTotal            131752136     131752136     131752136     131752136
 MEMORY| MemFree             114242424     114242424     114242424     114242424
 MEMORY| Buffers               2026032       2026032       2026032       2026032
 MEMORY| Cached                8715416       8715416       8715420       8715417
 MEMORY| Slab                  1643360       1643360       1643360       1643360
 MEMORY| SReclaimable          1146032       1146032       1146032       1146032
 MEMORY| MemLikelyFree       126129904     126129904     126129908     126129905


 GENERATE|  Preliminary Number of Bonds generated:                             0
 GENERATE|  Achieved consistency in connectivity generation.

 *******************************************************************************
 *******************************************************************************
 **                                                                           **
 **     #####                         ##              ##                      **
 **    ##   ##            ##          ##              ##                      **
 **   ##     ##                       ##            ######                    **
 **   ##     ##  ##   ##  ##   #####  ##  ##   ####   ##    #####    #####    **
 **   ##     ##  ##   ##  ##  ##      ## ##   ##      ##   ##   ##  ##   ##   **
 **   ##  ## ##  ##   ##  ##  ##      ####     ###    ##   ######   ######    **
 **    ##  ###   ##   ##  ##  ##      ## ##      ##   ##   ##       ##        **
 **     #######   #####   ##   #####  ##  ##  ####    ##    #####   ##        **
 **           ##                                                    ##        **
 **                                                                           **
 **                                                ... make the atoms dance   **
 **                                                                           **
 **            Copyright (C) by CP2K developers group (2000-2024)             **
 **                      J. Chem. Phys. 152, 194103 (2020)                    **
 **                                                                           **
 *******************************************************************************


 TOTAL NUMBERS AND MAXIMUM NUMBERS

  Total number of            - Atomic kinds:                                   2
                             - Atoms:                                        192
                             - Shell sets:                                   192
                             - Shells:                                       704
                             - Primitive Cartesian functions:               1344
                             - Cartesian basis functions:                   1536
                             - Spherical basis functions:                   1472

  Maximum angular momentum of- Orbital basis functions:                        2
                             - Local part of the GTH pseudopotential:          2
                             - Non-local part of the GTH pseudopotential:      0

 ------------------------------ Linear scaling SCF -----------------------------
 eps_scf:                                                              0.100E-07
 eps_filter:                                                           0.100E-11
 mixing_fraction:                                                      0.450E+00
 max_scf:                                                                     25
 fixed chemical potential (mu)                                                 F
 has unit metric:                                                              F
 Computing inv(S):                                                             T
 Computing sqrt(S):                                                            T
 Computing S preconditioner                                                    F
 S sqrt method:                                                     NEWTONSCHULZ
 S sqrt order:                                                                 3
 Extrapolation order:                                                          1
 S preconditioner type                                                      NONE
 Polarized Atomic Orbitals (PAO)                                               T
 Purification method                                   Trace resetting 4th order
 Cluster type                                                             ATOMIC
 Computing Chebyshev                                                       FALSE
 Using PAO                                                                     T
 -------------------------------------------------------------------------------

 
 PAO|                                  EPS_PAO                           0.5E-06
 PAO|                                  MIXING                            0.5E+00
 PAO|                                  MAX_PAO                              1500
 PAO|                                  MAX_CYCLES                           1000
 PAO|                                  PARAMETERIZATION              EQUIVARIANT
 PAO|                                  PRECONDITION                            F
 PAO|                                  REGULARIZATION                    0.0E+00
 PAO|                                  EPS_PGF                           0.1E-09
 PAO|                                  PENALTY_DISTANCE                  0.1E+00
 PAO|                                  PENALTY_STRENGTH                  0.5E-02
 PAO|                                  LINPOT_PRECONDITION_DELTA         0.0E+00
 PAO|                                  LINPOT_INITGUESS_DELT             0.0E+00
 PAO|                                  LINPOT_REGULARIZATION_DELTA       0.0E+00
 PAO|                                  LINPOT_REGULARIZATION_STRENGTH    0.0E+00
 PAO|                                  OPTIMIZER                              CG
 PAO|                                  CG_INIT_STEPS                           2
 PAO|                                  CG_RESET_LIMIT                    0.1E+00
 PAO|                                  CHECK_UNITARY_TOL                -0.1E+01
 PAO|                                  CHECK_GRADIENT_TOL               -0.1E+01
 PAO|                                  NUM_GRADIENT_ORDER                      2
 PAO|                                  NUM_GRADIENT_EPS                  0.1E-07
 PAO|                                  PRINT%RESTART%WRITE_CYCLES            100
 PAO|                                  RESTART_FILE 
 PAO|                                  PREOPT_DM_FILE 64H2O_ref_LS_DM_SPIN_1_RESTART.dm
 PAO|                                  MACHINE_LEARNING%METHOD       GAUSSIAN_PR
 PAO|                                  MACHINE_LEARNING%PRIOR               ZERO
 PAO|                                  MACHINE_LEARNING%DESCRIPTOR     POTENTIAL
 PAO|                                  MACHINE_LEARNING%TOLERANCE        0.1E-01
 PAO|                                  MACHINE_LEARNING%GP_NOISE_VAR     0.1E+00
 PAO|                                  MACHINE_LEARNING%GP_SCALE         0.5E-01
 

 Calculating atomic Fock matrix for atomic kind: O

 Electronic structure
    Total number of core electrons                                          2.00
    Total number of valence electrons                                       6.00
    Total number of electrons                                               8.00
    Multiplicity                                                   not specified
    S   [  2.00] 2.00
    P      4.00


 *******************************************************************************
                  Iteration          Convergence                     Energy [au]
 *******************************************************************************
                          1        0.708315                     -15.576645311500
                          2        0.608879                     -15.587933561584
                          3        0.102828E-01                 -15.656849565404
                          4        0.113889E-02                 -15.656866888140
                          5        0.434197E-03                 -15.656867072159
                          6        0.263771E-03                 -15.656867091904
                          7        0.478536E-06                 -15.656867103452

 Energy components [Hartree]           Total Energy ::          -15.656867103452
                                        Band Energy ::           -3.000198112285
                                     Kinetic Energy ::           11.759971203220
                                   Potential Energy ::          -27.416838306672
                                      Virial (-V/T) ::            2.331369510426
                                        Core Energy ::          -26.140716385623
                                          XC Energy ::           -3.154051012914
                                     Coulomb Energy ::           13.637900295084
                       Total Pseudopotential Energy ::          -37.935781716540
                       Local Pseudopotential Energy ::          -39.218907440693
                    Nonlocal Pseudopotential Energy ::            1.283125724153
                                        Confinement ::            0.350941276976

 Orbital energies  State     L     Occupation   Energy[a.u.]          Energy[eV]

                       1     0          2.000      -0.864471          -23.523463

                       1     1          4.000      -0.317814           -8.648154


 Total Electron Density at R=0:                                         0.000068

 Calculating atomic Fock matrix for atomic kind: H

 Electronic structure
    Total number of core electrons                                          0.00
    Total number of valence electrons                                       1.00
    Total number of electrons                                               1.00
    Multiplicity                                                   not specified
    S      1.00


 *******************************************************************************
                  Iteration          Convergence                     Energy [au]
 *******************************************************************************
                          1        0.437545E-02                  -0.424159432110
                          2        0.531356E-03                  -0.424178438213
                          3        0.259176E-06                  -0.424178722480

 Energy components [Hartree]           Total Energy ::           -0.424178722480
                                        Band Energy ::           -0.199015229016
                                     Kinetic Energy ::            0.464007633961
                                   Potential Energy ::           -0.888186356441
                                      Virial (-V/T) ::            1.914163240935
                                        Core Energy ::           -0.479160803564
                                          XC Energy ::           -0.244352904054
                                     Coulomb Energy ::            0.299334985138
                       Total Pseudopotential Energy ::           -0.962295316385
                       Local Pseudopotential Energy ::           -0.962295316385
                    Nonlocal Pseudopotential Energy ::            0.000000000000
                                        Confinement ::            0.191268788606

 Orbital energies  State     L     Occupation   Energy[a.u.]          Energy[eV]

                       1     0          1.000      -0.199015           -5.415480


 Total Electron Density at R=0:                                         0.242907
 PAO| Made initial guess for matrix_X with norm:   27.712812921102035     

     Lanczos converged:  F threshold:   0.100E-02
     Est. extremal eigenvalues:    0.622E+01   0.968E-01
     Est. condition number :    0.642E+02

 Order=           3
     NS sqrt iter    1 1.00000000   0.152E+01       0.021     2659.186
     NS sqrt iter    2 1.00000000   0.823E+00       0.034     3337.917
     NS sqrt iter    3 1.00000000   0.331E+00       0.034     3333.460
     NS sqrt iter    4 1.00000000   0.927E-01       0.034     3342.803
     NS sqrt iter    5 1.00000000   0.335E-02       0.034     3335.243
     NS sqrt iter    6 1.00000000   0.273E-06       0.029     2903.117
     Symmetrizing Results
     Final NS sqrt iter    6 1.00000000   0.128E-12

 PAO| Read restart DM 64H2O_ref_LS_DM_SPIN_1_RESTART.dm with checksum:    6133.6488008161105     
 PAO| Quickstep energy from restart density:  -1103.1363300252119     
 PAO| ======================= Iteration:         1 =============================

     Lanczos converged:  F threshold:   0.100E-02
     Est. extremal eigenvalues:    0.622E+01   0.968E-01
     Est. condition number :    0.642E+02

 Order=           3
     NS sqrt iter    1 1.00000000   0.152E+01       0.021     2686.806
     NS sqrt iter    2 1.00000000   0.823E+00       0.034     3351.480
     NS sqrt iter    3 1.00000000   0.331E+00       0.034     3344.121
     NS sqrt iter    4 1.00000000   0.927E-01       0.034     3359.307
     NS sqrt iter    5 1.00000000   0.335E-02       0.034     3337.945
     NS sqrt iter    6 1.00000000   0.273E-06       0.029     2907.894
     Symmetrizing Results
     Final NS sqrt iter    6 1.00000000   0.128E-12

     Est. extremal eigenvalues     -0.81589     2.61086  converged:  T
     TRS4 it   1 1.00000000   0.272E+02       0.007     2080.735   0.100E-11
     TRS4 it   2 1.00000000   0.236E+02       0.013     2172.155   0.100E-11
     TRS4 it   3 1.00000000   0.160E+02       0.013     2172.497   0.100E-11
     TRS4 it   4 1.00000000   0.999E+01       0.013     2196.492   0.100E-11
     TRS4 it   5 1.00000000   0.483E+01       0.013     2163.404   0.100E-11
     TRS4 it   6 1.00000000   0.161E+01       0.013     2190.187   0.100E-11
     TRS4 it   7 1.00000000   0.320E+00       0.013     2173.635   0.100E-11
     TRS4 it   8 1.00000000   0.234E-01       0.013     2198.853   0.100E-11
     TRS4 it   9 1.00000000   0.210E-03       0.013     2187.253   0.100E-11
     TRS4 it  10 1.00000000   0.142E-07       0.013     2192.171   0.100E-11
     TRS4 it  11 1.00000000   0.888E-14       0.013     2164.148   0.100E-11
     Final TRS4 iteration   11 1.00000000   0.888E-14
     Chemical potential (mu):       0.00654
 
 PAO| energy:  -186.38718551403929      penalty:   1.3798902865545668E-031
 PAO|CG| warming up with steepest descent
 PAO|CG| beta:    0.0000000000000000     
 PAO| norm of gradient:   3.9907161491209173     
 PAO|LS| adapt:  T F F
 PAO|LS| adapt: scan_steps:    0.0000000000000000        0.0000000000000000        0.0000000000000000     
 PAO|LS| adapt: energies:   -186.38718551403929        0.0000000000000000        0.0000000000000000     
 PAO| ======================= Iteration:         2 =============================

     Lanczos converged:  F threshold:   0.100E-02
     Est. extremal eigenvalues:    0.600E+01   0.102E+00
     Est. condition number :    0.586E+02

 Order=           3
     NS sqrt iter    1 1.00000000   0.148E+01       0.021     2699.440
     NS sqrt iter    2 1.00000000   0.794E+00       0.034     3354.461
     NS sqrt iter    3 1.00000000   0.311E+00       0.034     3326.266
     NS sqrt iter    4 1.00000000   0.781E-01       0.034     3323.158
     NS sqrt iter    5 1.00000000   0.209E-02       0.034     3352.642
     NS sqrt iter    6 1.00000000   0.802E-07       0.029     2911.568
     Symmetrizing Results
     Final NS sqrt iter    6 1.00000000   0.140E-13

     Est. extremal eigenvalues     -0.81897     2.61167  converged:  T
     TRS4 it   1 1.00000000   0.275E+02       0.007     2113.886   0.100E-11
     TRS4 it   2 1.00000000   0.236E+02       0.013     2169.466   0.100E-11
     TRS4 it   3 1.00000000   0.159E+02       0.013     2201.547   0.100E-11
     TRS4 it   4 1.00000000   0.978E+01       0.013     2192.026   0.100E-11
     TRS4 it   5 1.00000000   0.461E+01       0.013     2190.824   0.100E-11
     TRS4 it   6 1.00000000   0.148E+01       0.013     2174.934   0.100E-11
     TRS4 it   7 1.00000000   0.273E+00       0.013     2183.945   0.100E-11
     TRS4 it   8 1.00000000   0.168E-01       0.013     2177.047   0.100E-11
     TRS4 it   9 1.00000000   0.991E-04       0.013     2200.864   0.100E-11
     TRS4 it  10 1.00000000   0.355E-08       0.013     2182.923   0.100E-11
     TRS4 it  11 1.00000000   0.000E+00       0.013     2179.231   0.100E-11
     Final TRS4 iteration   11 1.00000000   0.000E+00
     Chemical potential (mu):       0.01203
 
 PAO| energy:  -187.84876923202296      penalty:   4.7562811692354197E-007
 PAO|LS| adapt:  T T F
 PAO|LS| adapt: scan_steps:    0.0000000000000000       0.10000000000000001        0.0000000000000000     
 PAO|LS| adapt: energies:   -186.38718551403929       -187.84876923202296        0.0000000000000000     
 PAO| ======================= Iteration:         3 =============================

     Lanczos converged:  F threshold:   0.100E-02
     Est. extremal eigenvalues:    0.579E+01   0.107E+00
     Est. condition number :    0.540E+02

 Order=           3
     NS sqrt iter    1 1.00000000   0.144E+01       0.021     2647.771
     NS sqrt iter    2 1.00000000   0.765E+00       0.034     3353.027
     NS sqrt iter    3 1.00000000   0.291E+00       0.034     3344.085
     NS sqrt iter    4 1.00000000   0.655E-01       0.034     3314.270
     NS sqrt iter    5 1.00000000   0.133E-02       0.034     3330.161
     NS sqrt iter    6 1.00000000   0.248E-07       0.030     2867.260
     Symmetrizing Results
     Final NS sqrt iter    6 1.00000000   0.315E-14

     Est. extremal eigenvalues     -0.82191     2.61644  converged:  T
     TRS4 it   1 1.00000000   0.277E+02       0.007     2120.912   0.100E-11
     TRS4 it   2 1.00000000   0.236E+02       0.013     2183.307   0.100E-11
     TRS4 it   3 1.00000000   0.158E+02       0.013     2186.885   0.100E-11
     TRS4 it   4 1.00000000   0.959E+01       0.013     2181.815   0.100E-11
     TRS4 it   5 1.00000000   0.441E+01       0.013     2168.451   0.100E-11
     TRS4 it   6 1.00000000   0.135E+01       0.013     2172.739   0.100E-11
     TRS4 it   7 1.00000000   0.231E+00       0.013     2186.949   0.100E-11
     TRS4 it   8 1.00000000   0.117E-01       0.013     2198.956   0.100E-11
     TRS4 it   9 1.00000000   0.436E-04       0.013     2188.067   0.100E-11
     TRS4 it  10 1.00000000   0.789E-09       0.013     2166.007   0.100E-11
     TRS4 it  11 1.00000000   0.231E-13       0.013     2193.027   0.100E-11
     Final TRS4 iteration   11 1.00000000   0.231E-13
     Chemical potential (mu):       0.01820
 
 PAO| energy:  -189.03180941219222      penalty:   7.6100498708057907E-006
 PAO|LS| adapt:  T T F
 PAO|LS| adapt: scan_steps:    0.0000000000000000       0.20000000000000001        0.0000000000000000     
 PAO|LS| adapt: energies:   -186.38718551403929       -189.03180941219222        0.0000000000000000     
 PAO| ======================= Iteration:         4 =============================

     Lanczos converged:  T threshold:   0.100E-02
     Est. extremal eigenvalues:    0.538E+01   0.116E+00
     Est. condition number :    0.466E+02

 Order=           3
     NS sqrt iter    1 1.00000000   0.135E+01       0.021     2660.221
     NS sqrt iter    2 1.00000000   0.710E+00       0.034     3347.338
     NS sqrt iter    3 1.00000000   0.253E+00       0.034     3344.317
     NS sqrt iter    4 1.00000000   0.460E-01       0.034     3340.758
     NS sqrt iter    5 1.00000000   0.549E-03       0.034     3331.029
     NS sqrt iter    6 1.00000000   0.241E-08       0.029     2835.821
     Symmetrizing Results
     Final NS sqrt iter    6 1.00000000   0.142E-13

     Est. extremal eigenvalues     -0.82687     2.62505  converged:  T
     TRS4 it   1 1.00000000   0.282E+02       0.007     2100.549   0.100E-11
     TRS4 it   2 1.00000000   0.237E+02       0.013     2207.325   0.100E-11
     TRS4 it   3 1.00000000   0.156E+02       0.013     2185.189   0.100E-11
     TRS4 it   4 1.00000000   0.926E+01       0.013     2192.355   0.100E-11
     TRS4 it   5 1.00000000   0.405E+01       0.013     2195.296   0.100E-11
     TRS4 it   6 1.00000000   0.114E+01       0.013     2196.355   0.100E-11
     TRS4 it   7 1.00000000   0.164E+00       0.013     2179.353   0.100E-11
     TRS4 it   8 1.00000000   0.545E-02       0.013     2211.065   0.100E-11
     TRS4 it   9 1.00000000   0.785E-05       0.013     2188.333   0.100E-11
     TRS4 it  10 1.00000000   0.316E-10       0.013     2197.160   0.100E-11
     Final TRS4 iteration   10 1.00000000   0.316E-10
     Chemical potential (mu):       0.03699
 
 PAO| energy:  -190.51973774674869      penalty:   1.2176079793312321E-004
 PAO|LS| Need extra step
 PAO|LS| adapt:  T T F
 PAO|LS| adapt: scan_steps:    0.0000000000000000       0.40000000000000002        0.0000000000000000     
 PAO|LS| adapt: energies:   -186.38718551403929       -190.51973774674869        0.0000000000000000     
 PAO| ======================= Iteration:         5 =============================

     Lanczos converged:  T threshold:   0.100E-02
     Est. extremal eigenvalues:    0.471E+01   0.130E+00
     Est. condition number :    0.363E+02

 Order=           3
     NS sqrt iter    1 1.00000000   0.123E+01       0.021     2685.296
     NS sqrt iter    2 1.00000000   0.619E+00       0.034     3349.719
     NS sqrt iter    3 1.00000000   0.195E+00       0.034     3344.533
     NS sqrt iter    4 1.00000000   0.240E-01       0.034     3324.514
     NS sqrt iter    5 1.00000000   0.104E-03       0.034     3345.616
     NS sqrt iter    6 1.00000000   0.250E-10       0.019     2185.191
     Symmetrizing Results
     Final NS sqrt iter    6 1.00000000   0.207E-11

     Est. extremal eigenvalues     -0.83049     2.62493  converged:  T
     TRS4 it   1 1.00000000   0.288E+02       0.007     2129.902   0.100E-11
     TRS4 it   2 1.00000000   0.237E+02       0.013     2200.582   0.100E-11
     TRS4 it   3 1.00000000   0.154E+02       0.013     2191.702   0.100E-11
     TRS4 it   4 1.00000000   0.877E+01       0.013     2196.270   0.100E-11
     TRS4 it   5 1.00000000   0.353E+01       0.013     2201.169   0.100E-11
     TRS4 it   6 1.00000000   0.844E+00       0.013     2196.357   0.100E-11
     TRS4 it   7 1.00000000   0.894E-01       0.013     2201.288   0.100E-11
     TRS4 it   8 1.00000000   0.147E-02       0.013     2215.886   0.100E-11
     TRS4 it   9 1.00000000   0.511E-06       0.013     2189.154   0.100E-11
     TRS4 it  10 1.00000000   0.144E-12       0.013     2195.909   0.100E-11
     Final TRS4 iteration   10 1.00000000   0.144E-12
     Chemical potential (mu):       0.05971
 
 PAO| energy:  -190.11226833812668      penalty:   1.9481727669318012E-003
 PAO|LS| Need extra step
 PAO|LS| adapt:  T T T
 PAO|LS| adapt: scan_steps:    0.0000000000000000       0.40000000000000002       0.80000000000000004     
 PAO|LS| adapt: energies:   -186.38718551403929       -190.51973774674869       -190.11226833812668     
 PAO|LS| adapt: suggested step_size:   0.56409978270477934     
 PAO|LS| adapt: predicted energy  -190.90179104799248     
 PAO| ======================= Iteration:         6 =============================

     Lanczos converged:  T threshold:   0.100E-02
     Est. extremal eigenvalues:    0.508E+01   0.122E+00
     Est. condition number :    0.418E+02

 Order=           3
     NS sqrt iter    1 1.00000000   0.129E+01       0.021     2664.810
     NS sqrt iter    2 1.00000000   0.668E+00       0.034     3340.253
     NS sqrt iter    3 1.00000000   0.226E+00       0.034     3334.104
     NS sqrt iter    4 1.00000000   0.348E-01       0.034     3343.640
     NS sqrt iter    5 1.00000000   0.272E-03       0.034     3334.315
     NS sqrt iter    6 1.00000000   0.356E-09       0.029     2669.111
     Symmetrizing Results
     Final NS sqrt iter    6 1.00000000   0.317E-12

     Est. extremal eigenvalues     -0.82953     2.62741  converged:  T
     TRS4 it   1 1.00000000   0.285E+02       0.007     2095.076   0.100E-11
     TRS4 it   2 1.00000000   0.237E+02       0.013     2199.789   0.100E-11
     TRS4 it   3 1.00000000   0.155E+02       0.013     2184.057   0.100E-11
     TRS4 it   4 1.00000000   0.903E+01       0.013     2181.713   0.100E-11
     TRS4 it   5 1.00000000   0.380E+01       0.013     2196.714   0.100E-11
     TRS4 it   6 1.00000000   0.994E+00       0.013     2203.021   0.100E-11
     TRS4 it   7 1.00000000   0.125E+00       0.013     2195.891   0.100E-11
     TRS4 it   8 1.00000000   0.301E-02       0.013     2197.892   0.100E-11
     TRS4 it   9 1.00000000   0.219E-05       0.013     2203.461   0.100E-11
     TRS4 it  10 1.00000000   0.255E-11       0.013     2207.964   0.100E-11
     Final TRS4 iteration   10 1.00000000   0.255E-11
     Chemical potential (mu):       0.04729
 
 PAO| energy:  -190.87516315258807      penalty:   4.8160529143998035E-004
 PAO|CG| warming up with steepest descent
 PAO|CG| beta:    0.0000000000000000     
 PAO| norm of gradient:   2.1082441705488262     
 PAO| energy improvement:  -4.4879776385487844     
 PAO| step      6                 -190.875163153  0.412E-02  0.564E+00     2.467
 PAO|LS| adapt:  T F F
 PAO|LS| adapt: scan_steps:    0.0000000000000000        0.0000000000000000        0.0000000000000000     
 PAO|LS| adapt: energies:   -190.87516315258807        0.0000000000000000        0.0000000000000000     
 PAO| ======================= Iteration:         7 =============================

     Lanczos converged:  T threshold:   0.100E-02
     Est. extremal eigenvalues:    0.491E+01   0.129E+00
     Est. condition number :    0.381E+02

 Order=           3
     NS sqrt iter    1 1.00000000   0.126E+01       0.021     2693.486
     NS sqrt iter    2 1.00000000   0.642E+00       0.034     3343.627
     NS sqrt iter    3 1.00000000   0.209E+00       0.034     3357.457
     NS sqrt iter    4 1.00000000   0.280E-01       0.034     3372.702
     NS sqrt iter    5 1.00000000   0.152E-03       0.034     3329.220
     NS sqrt iter    6 1.00000000   0.690E-10       0.024     2378.957
     Symmetrizing Results
     Final NS sqrt iter    6 1.00000000   0.202E-11

     Est. extremal eigenvalues     -0.83019     2.61946  converged:  T
     TRS4 it   1 1.00000000   0.286E+02       0.007     2134.103   0.100E-11
     TRS4 it   2 1.00000000   0.237E+02       0.013     2212.210   0.100E-11
     TRS4 it   3 1.00000000   0.156E+02       0.013     2207.805   0.100E-11
     TRS4 it   4 1.00000000   0.917E+01       0.013     2193.372   0.100E-11
     TRS4 it   5 1.00000000   0.390E+01       0.013     2210.262   0.100E-11
     TRS4 it   6 1.00000000   0.102E+01       0.013     2223.998   0.100E-11
     TRS4 it   7 1.00000000   0.127E+00       0.013     2177.372   0.100E-11
     TRS4 it   8 1.00000000   0.307E-02       0.013     2198.571   0.100E-11
     TRS4 it   9 1.00000000   0.240E-05       0.013     2191.833   0.100E-11
     TRS4 it  10 1.00000000   0.345E-11       0.013     2205.666   0.100E-11
     Final TRS4 iteration   10 1.00000000   0.345E-11
     Chemical potential (mu):       0.04960
 
 PAO| energy:  -189.95737146386958      penalty:   6.8660081888447942E-004
 PAO|LS| adapt:  T F T
 PAO|LS| adapt: scan_steps:    0.0000000000000000        0.0000000000000000       0.56409978270477934     
 PAO|LS| adapt: energies:   -190.87516315258807        0.0000000000000000       -189.95737146386958     
 PAO| ======================= Iteration:         8 =============================

     Lanczos converged:  T threshold:   0.100E-02
     Est. extremal eigenvalues:    0.499E+01   0.125E+00
     Est. condition number :    0.399E+02

 Order=           3
     NS sqrt iter    1 1.00000000   0.128E+01       0.021     2701.391
     NS sqrt iter    2 1.00000000   0.655E+00       0.034     3335.467
     NS sqrt iter    3 1.00000000   0.217E+00       0.034     3335.534
     NS sqrt iter    4 1.00000000   0.312E-01       0.034     3353.322
     NS sqrt iter    5 1.00000000   0.204E-03       0.034     3337.981
     NS sqrt iter    6 1.00000000   0.159E-09       0.027     2561.908
     Symmetrizing Results
     Final NS sqrt iter    6 1.00000000   0.114E-11

     Est. extremal eigenvalues     -0.83079     2.62414  converged:  T
     TRS4 it   1 1.00000000   0.285E+02       0.007     2083.758   0.100E-11
     TRS4 it   2 1.00000000   0.237E+02       0.013     2206.988   0.100E-11
     TRS4 it   3 1.00000000   0.155E+02       0.013     2172.547   0.100E-11
     TRS4 it   4 1.00000000   0.907E+01       0.013     2186.253   0.100E-11
     TRS4 it   5 1.00000000   0.382E+01       0.013     2197.411   0.100E-11
     TRS4 it   6 1.00000000   0.998E+00       0.013     2211.242   0.100E-11
     TRS4 it   7 1.00000000   0.125E+00       0.013     2224.680   0.100E-11
     TRS4 it   8 1.00000000   0.301E-02       0.013     2189.604   0.100E-11
     TRS4 it   9 1.00000000   0.223E-05       0.013     2198.810   0.100E-11
     TRS4 it  10 1.00000000   0.263E-11       0.013     2197.018   0.100E-11
     Final TRS4 iteration   10 1.00000000   0.263E-11
     Chemical potential (mu):       0.04721
 
 PAO| energy:  -191.25887979369608      penalty:   5.1237524208514135E-004
 PAO|LS| adapt:  T T T
 PAO|LS| adapt: scan_steps:    0.0000000000000000       0.28204989135238967       0.56409978270477934     
 PAO|LS| adapt: energies:   -190.87516315258807       -191.25887979369608       -189.95737146386958     
 PAO|LS| adapt: suggested step_size:   0.20524618545203449     
 PAO|LS| adapt: predicted energy  -191.32135969982204     
 PAO| ======================= Iteration:         9 =============================

     Lanczos converged:  T threshold:   0.100E-02
     Est. extremal eigenvalues:    0.502E+01   0.124E+00
     Est. condition number :    0.404E+02

 Order=           3
     NS sqrt iter    1 1.00000000   0.128E+01       0.021     2684.288
     NS sqrt iter    2 1.00000000   0.659E+00       0.034     3346.467
     NS sqrt iter    3 1.00000000   0.220E+00       0.034     3337.564
     NS sqrt iter    4 1.00000000   0.322E-01       0.034     3339.732
     NS sqrt iter    5 1.00000000   0.221E-03       0.034     3342.741
     NS sqrt iter    6 1.00000000   0.198E-09       0.028     2568.362
     Symmetrizing Results
     Final NS sqrt iter    6 1.00000000   0.945E-12

     Est. extremal eigenvalues     -0.83064     2.62519  converged:  T
     TRS4 it   1 1.00000000   0.285E+02       0.007     2130.779   0.100E-11
     TRS4 it   2 1.00000000   0.237E+02       0.013     2188.733   0.100E-11
     TRS4 it   3 1.00000000   0.155E+02       0.013     2197.937   0.100E-11
     TRS4 it   4 1.00000000   0.905E+01       0.013     2190.983   0.100E-11
     TRS4 it   5 1.00000000   0.381E+01       0.013     2188.602   0.100E-11
     TRS4 it   6 1.00000000   0.995E+00       0.013     2181.782   0.100E-11
     TRS4 it   7 1.00000000   0.125E+00       0.013     2212.466   0.100E-11
     TRS4 it   8 1.00000000   0.300E-02       0.013     2177.700   0.100E-11
     TRS4 it   9 1.00000000   0.221E-05       0.013     2207.183   0.100E-11
     TRS4 it  10 1.00000000   0.258E-11       0.013     2180.804   0.100E-11
     Final TRS4 iteration   10 1.00000000   0.258E-11
     Chemical potential (mu):       0.04700
 
 PAO| energy:  -191.32570470550357      penalty:   4.9448441411492129E-004
 PAO|CG| trace_G_new   0.73815577272843558     
 PAO|CG| trace_G_prev    4.4446934826531077     
 PAO|CG| trace_G_mix   -4.3276257215855152E-002
 PAO|CG| trace_D    4.4446934826531077     
 PAO|CG| trace_D_Gnew   4.3276257215855152E-002
 PAO|CG| beta:   0.17581235533880765     
 PAO| norm of gradient:  0.85915992267355878     
 PAO| energy improvement: -0.45054155291549591     
 PAO| step      9                 -191.325704706  0.168E-02  0.205E+00     1.501
 PAO|LS| adapt:  T F F
 PAO|LS| adapt: scan_steps:    0.0000000000000000        0.0000000000000000        0.0000000000000000     
 PAO|LS| adapt: energies:   -191.32570470550357        0.0000000000000000        0.0000000000000000     
 PAO| ======================= Iteration:        10 =============================

     Lanczos converged:  T threshold:   0.100E-02
     Est. extremal eigenvalues:    0.496E+01   0.128E+00
     Est. condition number :    0.389E+02

 Order=           3
     NS sqrt iter    1 1.00000000   0.127E+01       0.021     2687.384
     NS sqrt iter    2 1.00000000   0.650E+00       0.034     3353.618
     NS sqrt iter    3 1.00000000   0.214E+00       0.034     3325.653
     NS sqrt iter    4 1.00000000   0.299E-01       0.034     3354.712
     NS sqrt iter    5 1.00000000   0.177E-03       0.034     3351.667
     NS sqrt iter    6 1.00000000   0.102E-09       0.025     2476.159
     Symmetrizing Results
     Final NS sqrt iter    6 1.00000000   0.173E-11

     Est. extremal eigenvalues     -0.83122     2.61002  converged:  T
     TRS4 it   1 1.00000000   0.285E+02       0.007     2115.328   0.100E-11
     TRS4 it   2 1.00000000   0.236E+02       0.013     2197.839   0.100E-11
     TRS4 it   3 1.00000000   0.155E+02       0.013     2202.620   0.100E-11
     TRS4 it   4 1.00000000   0.903E+01       0.013     2207.608   0.100E-11
     TRS4 it   5 1.00000000   0.379E+01       0.013     2206.023   0.100E-11
     TRS4 it   6 1.00000000   0.983E+00       0.013     2174.379   0.100E-11
     TRS4 it   7 1.00000000   0.122E+00       0.013     2164.181   0.100E-11
     TRS4 it   8 1.00000000   0.284E-02       0.013     2194.077   0.100E-11
     TRS4 it   9 1.00000000   0.199E-05       0.013     2190.794   0.100E-11
     TRS4 it  10 1.00000000   0.209E-11       0.013     2193.754   0.100E-11
     Final TRS4 iteration   10 1.00000000   0.209E-11
     Chemical potential (mu):       0.04778
 
 PAO| energy:  -191.42720853515561      penalty:   4.9728705618888916E-004
 PAO|LS| adapt:  T T F
 PAO|LS| adapt: scan_steps:    0.0000000000000000       0.20524618545203449        0.0000000000000000     
 PAO|LS| adapt: energies:   -191.32570470550357       -191.42720853515561        0.0000000000000000     
 PAO| ======================= Iteration:        11 =============================

     Lanczos converged:  T threshold:   0.100E-02
     Est. extremal eigenvalues:    0.491E+01   0.131E+00
     Est. condition number :    0.375E+02

 Order=           3
     NS sqrt iter    1 1.00000000   0.126E+01       0.021     2678.649
     NS sqrt iter    2 1.00000000   0.642E+00       0.034     3345.835
     NS sqrt iter    3 1.00000000   0.208E+00       0.034     3361.128
     NS sqrt iter    4 1.00000000   0.277E-01       0.034     3336.607
     NS sqrt iter    5 1.00000000   0.141E-03       0.034     3338.657
     NS sqrt iter    6 1.00000000   0.520E-10       0.022     2302.400
     Symmetrizing Results
     Final NS sqrt iter    6 1.00000000   0.217E-11

     Est. extremal eigenvalues     -0.83137     2.59441  converged:  T
     TRS4 it   1 1.00000000   0.284E+02       0.007     2115.649   0.100E-11
     TRS4 it   2 1.00000000   0.235E+02       0.013     2197.257   0.100E-11
     TRS4 it   3 1.00000000   0.155E+02       0.013     2192.698   0.100E-11
     TRS4 it   4 1.00000000   0.901E+01       0.013     2170.313   0.100E-11
     TRS4 it   5 1.00000000   0.376E+01       0.013     2163.633   0.100E-11
     TRS4 it   6 1.00000000   0.969E+00       0.013     2200.106   0.100E-11
     TRS4 it   7 1.00000000   0.118E+00       0.013     2191.418   0.100E-11
     TRS4 it   8 1.00000000   0.267E-02       0.013     2200.980   0.100E-11
     TRS4 it   9 1.00000000   0.176E-05       0.013     2205.509   0.100E-11
     TRS4 it  10 1.00000000   0.164E-11       0.013     2192.227   0.100E-11
     Final TRS4 iteration   10 1.00000000   0.164E-11
     Chemical potential (mu):       0.04867
 
 PAO| energy:  -191.43450854996593      penalty:   5.1008962831797580E-004
 PAO|LS| adapt:  T T F
 PAO|LS| adapt: scan_steps:    0.0000000000000000       0.41049237090406898        0.0000000000000000     
 PAO|LS| adapt: energies:   -191.32570470550357       -191.43450854996593        0.0000000000000000     
 PAO| ======================= Iteration:        12 =============================

     Lanczos converged:  T threshold:   0.100E-02
     Est. extremal eigenvalues:    0.481E+01   0.138E+00
     Est. condition number :    0.348E+02

 Order=           3
     NS sqrt iter    1 1.00000000   0.124E+01       0.021     2655.234
     NS sqrt iter    2 1.00000000   0.625E+00       0.034     3346.584
     NS sqrt iter    3 1.00000000   0.198E+00       0.034     3343.008
     NS sqrt iter    4 1.00000000   0.238E-01       0.034     3340.817
     NS sqrt iter    5 1.00000000   0.897E-04       0.034     3352.366
     NS sqrt iter    6 1.00000000   0.130E-10       0.016     2122.344
     Symmetrizing Results
     Final NS sqrt iter    6 1.00000000   0.172E-11

     Est. extremal eigenvalues     -0.83054     2.56267  converged:  T
     TRS4 it   1 1.00000000   0.284E+02       0.007     2081.512   0.100E-11
     TRS4 it   2 1.00000000   0.233E+02       0.013     2176.161   0.100E-11
     TRS4 it   3 1.00000000   0.154E+02       0.013     2209.807   0.100E-11
     TRS4 it   4 1.00000000   0.894E+01       0.013     2183.685   0.100E-11
     TRS4 it   5 1.00000000   0.370E+01       0.013     2193.629   0.100E-11
     TRS4 it   6 1.00000000   0.934E+00       0.013     2216.012   0.100E-11
     TRS4 it   7 1.00000000   0.109E+00       0.013     2186.057   0.100E-11
     TRS4 it   8 1.00000000   0.230E-02       0.013     2196.414   0.100E-11
     TRS4 it   9 1.00000000   0.132E-05       0.013     2191.408   0.100E-11
     TRS4 it  10 1.00000000   0.984E-12       0.013     2163.498   0.100E-11
     Final TRS4 iteration   10 1.00000000   0.984E-12
     Chemical potential (mu):       0.05066
 
 PAO| energy:  -191.18339299718622      penalty:   5.7301358781105497E-004
 PAO|LS| Need extra step
 PAO|LS| adapt:  T T T
 PAO|LS| adapt: scan_steps:    0.0000000000000000       0.41049237090406898       0.82098474180813796     
 PAO|LS| adapt: energies:   -191.32570470550357       -191.43450854996593       -191.18339299718622     
 PAO|LS| adapt: suggested step_size:   0.32933826945492101     
 PAO|LS| adapt: predicted energy  -191.44154228532423     
 PAO| ======================= Iteration:        13 =============================

     Lanczos converged:  T threshold:   0.100E-02
     Est. extremal eigenvalues:    0.493E+01   0.130E+00
     Est. condition number :    0.380E+02

 Order=           3
     NS sqrt iter    1 1.00000000   0.127E+01       0.021     2656.489
     NS sqrt iter    2 1.00000000   0.645E+00       0.034     3362.954
     NS sqrt iter    3 1.00000000   0.211E+00       0.034     3344.865
     NS sqrt iter    4 1.00000000   0.285E-01       0.034     3334.967
     NS sqrt iter    5 1.00000000   0.154E-03       0.034     3335.968
     NS sqrt iter    6 1.00000000   0.680E-10       0.023     2374.586
     Symmetrizing Results
     Final NS sqrt iter    6 1.00000000   0.204E-11

     Est. extremal eigenvalues     -0.83136     2.60062  converged:  T
     TRS4 it   1 1.00000000   0.285E+02       0.007     2096.143   0.100E-11
     TRS4 it   2 1.00000000   0.236E+02       0.013     2206.570   0.100E-11
     TRS4 it   3 1.00000000   0.155E+02       0.013     2178.710   0.100E-11
     TRS4 it   4 1.00000000   0.902E+01       0.013     2200.497   0.100E-11
     TRS4 it   5 1.00000000   0.378E+01       0.013     2196.124   0.100E-11
     TRS4 it   6 1.00000000   0.975E+00       0.013     2207.678   0.100E-11
     TRS4 it   7 1.00000000   0.119E+00       0.013     2184.570   0.100E-11
     TRS4 it   8 1.00000000   0.274E-02       0.013     2196.741   0.100E-11
     TRS4 it   9 1.00000000   0.185E-05       0.013     2195.034   0.100E-11
     TRS4 it  10 1.00000000   0.185E-11       0.013     2192.806   0.100E-11
     Final TRS4 iteration   10 1.00000000   0.185E-11
     Chemical potential (mu):       0.04831
 
 PAO| energy:  -191.44261918605861      penalty:   5.0374798659827565E-004
 PAO|CG| trace_G_new   0.28115944485855615     
 PAO|CG| trace_G_prev   0.73815577272843558     
 PAO|CG| trace_G_mix   -1.2179052054757600E-002
 PAO|CG| trace_D   0.86032417702739172     
 PAO|CG| trace_D_Gnew   1.2137712227206806E-002
 PAO|CG| beta:   0.39739375854103326     
 PAO| norm of gradient:  0.53024470281046288     
 PAO| energy improvement: -0.11691448055503884     
 PAO| step     13                 -191.442619186  0.104E-02  0.329E+00     1.955
 PAO|LS| adapt:  T F F
 PAO|LS| adapt: scan_steps:    0.0000000000000000        0.0000000000000000        0.0000000000000000     
 PAO|LS| adapt: energies:   -191.44261918605861        0.0000000000000000        0.0000000000000000     
 PAO| ======================= Iteration:        14 =============================

     Lanczos converged:  T threshold:   0.100E-02
     Est. extremal eigenvalues:    0.486E+01   0.132E+00
     Est. condition number :    0.367E+02

 Order=           3
     NS sqrt iter    1 1.00000000   0.125E+01       0.021     2682.104
     NS sqrt iter    2 1.00000000   0.634E+00       0.034     3347.967
     NS sqrt iter    3 1.00000000   0.204E+00       0.034     3341.655
     NS sqrt iter    4 1.00000000   0.263E-01       0.034     3328.636
     NS sqrt iter    5 1.00000000   0.123E-03       0.034     3345.430
     NS sqrt iter    6 1.00000000   0.352E-10       0.020     2245.032
     Symmetrizing Results
     Final NS sqrt iter    6 1.00000000   0.221E-11

     Est. extremal eigenvalues     -0.83181     2.59391  converged:  T
     TRS4 it   1 1.00000000   0.285E+02       0.007     2057.355   0.100E-11
     TRS4 it   2 1.00000000   0.235E+02       0.013     2198.002   0.100E-11
     TRS4 it   3 1.00000000   0.154E+02       0.013     2202.881   0.100E-11
     TRS4 it   4 1.00000000   0.896E+01       0.013     2201.048   0.100E-11
     TRS4 it   5 1.00000000   0.372E+01       0.013     2195.196   0.100E-11
     TRS4 it   6 1.00000000   0.945E+00       0.013     2198.255   0.100E-11
     TRS4 it   7 1.00000000   0.112E+00       0.013     2176.484   0.100E-11
     TRS4 it   8 1.00000000   0.241E-02       0.013     2161.716   0.100E-11
     TRS4 it   9 1.00000000   0.143E-05       0.013     2199.709   0.100E-11
     TRS4 it  10 1.00000000   0.108E-11       0.013     2190.381   0.100E-11
     Final TRS4 iteration   10 1.00000000   0.108E-11
     Chemical potential (mu):       0.05025
 
 PAO| energy:  -191.49519481267799      penalty:   5.0622820346035453E-004
 PAO|LS| adapt:  T T F
 PAO|LS| adapt: scan_steps:    0.0000000000000000       0.32933826945492101        0.0000000000000000     
 PAO|LS| adapt: energies:   -191.44261918605861       -191.49519481267799        0.0000000000000000     
 PAO| ======================= Iteration:        15 =============================

     Lanczos converged:  T threshold:   0.100E-02
     Est. extremal eigenvalues:    0.479E+01   0.135E+00
     Est. condition number :    0.355E+02

 Order=           3
     NS sqrt iter    1 1.00000000   0.124E+01       0.021     2686.192
     NS sqrt iter    2 1.00000000   0.624E+00       0.034     3353.592
     NS sqrt iter    3 1.00000000   0.198E+00       0.034     3349.497
     NS sqrt iter    4 1.00000000   0.243E-01       0.034     3348.644
     NS sqrt iter    5 1.00000000   0.990E-04       0.034     3334.024
     NS sqrt iter    6 1.00000000   0.183E-10       0.017     2146.697
     Symmetrizing Results
     Final NS sqrt iter    6 1.00000000   0.200E-11

     Est. extremal eigenvalues     -0.83184     2.58666  converged:  T
     TRS4 it   1 1.00000000   0.285E+02       0.007     2125.458   0.100E-11
     TRS4 it   2 1.00000000   0.235E+02       0.013     2196.267   0.100E-11
     TRS4 it   3 1.00000000   0.154E+02       0.013     2193.820   0.100E-11
     TRS4 it   4 1.00000000   0.890E+01       0.013     2200.281   0.100E-11
     TRS4 it   5 1.00000000   0.366E+01       0.013     2191.749   0.100E-11
     TRS4 it   6 1.00000000   0.915E+00       0.013     2206.589   0.100E-11
     TRS4 it   7 1.00000000   0.105E+00       0.013     2201.084   0.100E-11
     TRS4 it   8 1.00000000   0.212E-02       0.013     2182.496   0.100E-11
     TRS4 it   9 1.00000000   0.111E-05       0.013     2199.313   0.100E-11
     TRS4 it  10 1.00000000   0.606E-12       0.013     2180.989   0.100E-11
     Final TRS4 iteration   10 1.00000000   0.606E-12
     Chemical potential (mu):       0.05212
 
 PAO| energy:  -191.47208749004486      penalty:   5.2396422730391161E-004
 PAO|LS| adapt:  T T T
 PAO|LS| adapt: scan_steps:    0.0000000000000000       0.32933826945492101       0.65867653890984201     
 PAO|LS| adapt: energies:   -191.44261918605861       -191.49519481267799       -191.47208749004486     
 PAO|LS| adapt: suggested step_size:   0.39345469418766327     
 PAO|LS| adapt: predicted energy  -191.49662905405668     
 PAO| ======================= Iteration:        16 =============================

     Lanczos converged:  T threshold:   0.100E-02
     Est. extremal eigenvalues:    0.485E+01   0.133E+00
     Est. condition number :    0.365E+02

 Order=           3
     NS sqrt iter    1 1.00000000   0.125E+01       0.021     2669.716
     NS sqrt iter    2 1.00000000   0.632E+00       0.034     3360.466
     NS sqrt iter    3 1.00000000   0.203E+00       0.034     3324.415
     NS sqrt iter    4 1.00000000   0.259E-01       0.034     3351.612
     NS sqrt iter    5 1.00000000   0.118E-03       0.034     3343.166
     NS sqrt iter    6 1.00000000   0.310E-10       0.020     2199.719
     Symmetrizing Results
     Final NS sqrt iter    6 1.00000000   0.220E-11

     Est. extremal eigenvalues     -0.83185     2.59254  converged:  T
     TRS4 it   1 1.00000000   0.285E+02       0.007     2095.001   0.100E-11
     TRS4 it   2 1.00000000   0.235E+02       0.013     2200.092   0.100E-11
     TRS4 it   3 1.00000000   0.154E+02       0.013     2233.570   0.100E-11
     TRS4 it   4 1.00000000   0.895E+01       0.013     2181.896   0.100E-11
     TRS4 it   5 1.00000000   0.371E+01       0.013     2211.906   0.100E-11
     TRS4 it   6 1.00000000   0.939E+00       0.013     2189.378   0.100E-11
     TRS4 it   7 1.00000000   0.111E+00       0.013     2217.733   0.100E-11
     TRS4 it   8 1.00000000   0.235E-02       0.013     2176.949   0.100E-11
     TRS4 it   9 1.00000000   0.136E-05       0.013     2162.055   0.100E-11
     TRS4 it  10 1.00000000   0.982E-12       0.013     2180.232   0.100E-11
     Final TRS4 iteration   10 1.00000000   0.982E-12
     Chemical potential (mu):       0.05063
 
 PAO| energy:  -191.49657262328338      penalty:   5.0843575918991710E-004
 PAO|CG| trace_G_new   0.10717332168189746     
 PAO|CG| trace_G_prev   0.28115944485855615     
 PAO|CG| trace_G_mix    4.6676814619092035E-003
 PAO|CG| trace_D   0.40737648473544152     
 PAO|CG| trace_D_Gnew   8.1349900345415371E-004
 PAO|CG| beta:   0.36458188438789996     
 PAO| norm of gradient:  0.32737336739859807     
 PAO| energy improvement:  -5.3953437224777190E-002
 PAO| step     16                 -191.496572623  0.639E-03  0.393E+00     1.482
 PAO|LS| adapt:  T F F
 PAO|LS| adapt: scan_steps:    0.0000000000000000        0.0000000000000000        0.0000000000000000     
 PAO|LS| adapt: energies:   -191.49657262328338        0.0000000000000000        0.0000000000000000     
 PAO| ======================= Iteration:        17 =============================

     Lanczos converged:  T threshold:   0.100E-02
     Est. extremal eigenvalues:    0.481E+01   0.134E+00
     Est. condition number :    0.360E+02

 Order=           3
     NS sqrt iter    1 1.00000000   0.124E+01       0.021     2693.004
     NS sqrt iter    2 1.00000000   0.627E+00       0.034     3346.053
     NS sqrt iter    3 1.00000000   0.200E+00       0.034     3348.211
     NS sqrt iter    4 1.00000000   0.251E-01       0.034     3345.919
     NS sqrt iter    5 1.00000000   0.108E-03       0.034     3373.625
     NS sqrt iter    6 1.00000000   0.238E-10       0.018     2163.080
     Symmetrizing Results
     Final NS sqrt iter    6 1.00000000   0.213E-11

     Est. extremal eigenvalues     -0.83190     2.59032  converged:  T
     TRS4 it   1 1.00000000   0.285E+02       0.007     2104.819   0.100E-11
     TRS4 it   2 1.00000000   0.235E+02       0.013     2194.360   0.100E-11
     TRS4 it   3 1.00000000   0.154E+02       0.013     2174.703   0.100E-11
     TRS4 it   4 1.00000000   0.890E+01       0.013     2185.184   0.100E-11
     TRS4 it   5 1.00000000   0.366E+01       0.013     2174.500   0.100E-11
     TRS4 it   6 1.00000000   0.918E+00       0.013     2203.560   0.100E-11
     TRS4 it   7 1.00000000   0.106E+00       0.013     2211.227   0.100E-11
     TRS4 it   8 1.00000000   0.216E-02       0.013     2191.582   0.100E-11
     TRS4 it   9 1.00000000   0.115E-05       0.013     2211.821   0.100E-11
     TRS4 it  10 1.00000000   0.693E-12       0.013     2178.842   0.100E-11
     Final TRS4 iteration   10 1.00000000   0.693E-12
     Chemical potential (mu):       0.05181
 
 PAO| energy:  -191.50058175156241      penalty:   5.0150301418657242E-004
 PAO|LS| adapt:  T T F
 PAO|LS| adapt: scan_steps:    0.0000000000000000       0.39345469418766327        0.0000000000000000     
 PAO|LS| adapt: energies:   -191.49657262328338       -191.50058175156241        0.0000000000000000     
 PAO| ======================= Iteration:        18 =============================

     Lanczos converged:  T threshold:   0.100E-02
     Est. extremal eigenvalues:    0.477E+01   0.134E+00
     Est. condition number :    0.355E+02

 Order=           3
     NS sqrt iter    1 1.00000000   0.123E+01       0.021     2678.954
     NS sqrt iter    2 1.00000000   0.622E+00       0.034     3347.636
     NS sqrt iter    3 1.00000000   0.198E+00       0.034     3342.304
     NS sqrt iter    4 1.00000000   0.243E-01       0.034     3369.335
     NS sqrt iter    5 1.00000000   0.988E-04       0.034     3343.065
     NS sqrt iter    6 1.00000000   0.183E-10       0.017     2149.101
     Symmetrizing Results
     Final NS sqrt iter    6 1.00000000   0.200E-11

     Est. extremal eigenvalues     -0.83183     2.58793  converged:  T
     TRS4 it   1 1.00000000   0.286E+02       0.007     2092.318   0.100E-11
     TRS4 it   2 1.00000000   0.235E+02       0.013     2190.924   0.100E-11
     TRS4 it   3 1.00000000   0.154E+02       0.013     2192.463   0.100E-11
     TRS4 it   4 1.00000000   0.886E+01       0.013     2180.690   0.100E-11
     TRS4 it   5 1.00000000   0.362E+01       0.013     2187.218   0.100E-11
     TRS4 it   6 1.00000000   0.899E+00       0.013     2186.287   0.100E-11
     TRS4 it   7 1.00000000   0.102E+00       0.013     2195.626   0.100E-11
     TRS4 it   8 1.00000000   0.199E-02       0.013     2198.853   0.100E-11
     TRS4 it   9 1.00000000   0.972E-06       0.013     2197.313   0.100E-11
     TRS4 it  10 1.00000000   0.522E-12       0.013     2177.688   0.100E-11
     Final TRS4 iteration   10 1.00000000   0.522E-12
     Chemical potential (mu):       0.05306
 
 PAO| energy:  -191.42832332145827      penalty:   5.0238368045303833E-004
 PAO|LS| adapt:  T T T
 PAO|LS| adapt: scan_steps:    0.0000000000000000       0.39345469418766327       0.78690938837532654     
 PAO|LS| adapt: energies:   -191.49657262328338       -191.50058175156241       -191.42832332145827     
 PAO|LS| adapt: suggested step_size:   0.21740993316872886     
 PAO|LS| adapt: predicted energy  -191.50821600539584     
 PAO| ======================= Iteration:        19 =============================

     Lanczos converged:  T threshold:   0.100E-02
     Est. extremal eigenvalues:    0.483E+01   0.133E+00
     Est. condition number :    0.362E+02

 Order=           3
     NS sqrt iter    1 1.00000000   0.124E+01       0.021     2677.460
     NS sqrt iter    2 1.00000000   0.629E+00       0.034     3351.052
     NS sqrt iter    3 1.00000000   0.202E+00       0.034     3368.992
     NS sqrt iter    4 1.00000000   0.254E-01       0.034     3356.450
     NS sqrt iter    5 1.00000000   0.112E-03       0.034     3321.742
     NS sqrt iter    6 1.00000000   0.267E-10       0.019     2193.791
     Symmetrizing Results
     Final NS sqrt iter    6 1.00000000   0.218E-11

     Est. extremal eigenvalues     -0.83189     2.59134  converged:  T
     TRS4 it   1 1.00000000   0.285E+02       0.007     2101.865   0.100E-11
     TRS4 it   2 1.00000000   0.235E+02       0.013     2205.951   0.100E-11
     TRS4 it   3 1.00000000   0.154E+02       0.013     2169.898   0.100E-11
     TRS4 it   4 1.00000000   0.892E+01       0.013     2183.519   0.100E-11
     TRS4 it   5 1.00000000   0.368E+01       0.013     2194.121   0.100E-11
     TRS4 it   6 1.00000000   0.927E+00       0.013     2196.753   0.100E-11
     TRS4 it   7 1.00000000   0.108E+00       0.013     2210.011   0.100E-11
     TRS4 it   8 1.00000000   0.224E-02       0.013     2181.896   0.100E-11
     TRS4 it   9 1.00000000   0.124E-05       0.013     2198.026   0.100E-11
     TRS4 it  10 1.00000000   0.810E-12       0.013     2171.943   0.100E-11
     Final TRS4 iteration   10 1.00000000   0.810E-12
     Chemical potential (mu):       0.05128
 
 PAO| energy:  -191.50820135177943      penalty:   5.0365631903274304E-004
 PAO|CG| trace_G_new    2.0767195136638841E-002
 PAO|CG| trace_G_prev   0.10717332168189746     
 PAO|CG| trace_G_mix   -3.3986441965612517E-004
 PAO|CG| trace_D   0.16072860983751330     
 PAO|CG| trace_D_Gnew  -4.9701489511934003E-005
 PAO|CG| beta:   0.19694322453626198     
 PAO| norm of gradient:  0.14410827573959395     
 PAO| energy improvement:  -1.1628728496049234E-002
 PAO| step     19                 -191.508201352  0.281E-03  0.217E+00     1.457
 PAO|LS| adapt:  T F F
 PAO|LS| adapt: scan_steps:    0.0000000000000000        0.0000000000000000        0.0000000000000000     
 PAO|LS| adapt: energies:   -191.50820135177943        0.0000000000000000        0.0000000000000000     
 PAO| ======================= Iteration:        20 =============================

     Lanczos converged:  T threshold:   0.100E-02
     Est. extremal eigenvalues:    0.482E+01   0.133E+00
     Est. condition number :    0.362E+02

 Order=           3
     NS sqrt iter    1 1.00000000   0.124E+01       0.021     2688.650
     NS sqrt iter    2 1.00000000   0.629E+00       0.034     3359.699
     NS sqrt iter    3 1.00000000   0.201E+00       0.034     3324.272
     NS sqrt iter    4 1.00000000   0.254E-01       0.034     3357.957
     NS sqrt iter    5 1.00000000   0.112E-03       0.034     3330.839
     NS sqrt iter    6 1.00000000   0.264E-10       0.019     2185.448
     Symmetrizing Results
     Final NS sqrt iter    6 1.00000000   0.218E-11

     Est. extremal eigenvalues     -0.83190     2.58981  converged:  T
     TRS4 it   1 1.00000000   0.285E+02       0.007     2130.448   0.100E-11
     TRS4 it   2 1.00000000   0.235E+02       0.013     2185.092   0.100E-11
     TRS4 it   3 1.00000000   0.154E+02       0.013     2206.531   0.100E-11
     TRS4 it   4 1.00000000   0.891E+01       0.013     2187.879   0.100E-11
     TRS4 it   5 1.00000000   0.367E+01       0.013     2192.154   0.100E-11
     TRS4 it   6 1.00000000   0.923E+00       0.013     2197.827   0.100E-11
     TRS4 it   7 1.00000000   0.108E+00       0.013     2197.931   0.100E-11
     TRS4 it   8 1.00000000   0.221E-02       0.013     2170.292   0.100E-11
     TRS4 it   9 1.00000000   0.120E-05       0.013     2204.180   0.100E-11
     TRS4 it  10 1.00000000   0.790E-12       0.013     2188.969   0.100E-11
     Final TRS4 iteration   10 1.00000000   0.790E-12
     Chemical potential (mu):       0.05147
 
 PAO| energy:  -191.51184346248297      penalty:   4.9420002078144165E-004
 PAO|LS| adapt:  T T F
 PAO|LS| adapt: scan_steps:    0.0000000000000000       0.21740993316872886        0.0000000000000000     
 PAO|LS| adapt: energies:   -191.50820135177943       -191.51184346248297        0.0000000000000000     
 PAO| ======================= Iteration:        21 =============================

     Lanczos converged:  T threshold:   0.100E-02
     Est. extremal eigenvalues:    0.482E+01   0.133E+00
     Est. condition number :    0.361E+02

 Order=           3
     NS sqrt iter    1 1.00000000   0.124E+01       0.021     2690.222
     NS sqrt iter    2 1.00000000   0.629E+00       0.034     3341.765
     NS sqrt iter    3 1.00000000   0.201E+00       0.034     3361.749
     NS sqrt iter    4 1.00000000   0.254E-01       0.034     3329.827
     NS sqrt iter    5 1.00000000   0.112E-03       0.034     3325.417
     NS sqrt iter    6 1.00000000   0.261E-10       0.019     2172.171
     Symmetrizing Results
     Final NS sqrt iter    6 1.00000000   0.217E-11

     Est. extremal eigenvalues     -0.83190     2.58827  converged:  T
     TRS4 it   1 1.00000000   0.285E+02       0.007     2094.163   0.100E-11
     TRS4 it   2 1.00000000   0.235E+02       0.013     2193.389   0.100E-11
     TRS4 it   3 1.00000000   0.154E+02       0.013     2187.396   0.100E-11
     TRS4 it   4 1.00000000   0.890E+01       0.013     2186.358   0.100E-11
     TRS4 it   5 1.00000000   0.366E+01       0.013     2227.555   0.100E-11
     TRS4 it   6 1.00000000   0.919E+00       0.013     2215.301   0.100E-11
     TRS4 it   7 1.00000000   0.107E+00       0.013     2217.256   0.100E-11
     TRS4 it   8 1.00000000   0.218E-02       0.013     2197.898   0.100E-11
     TRS4 it   9 1.00000000   0.116E-05       0.013     2198.381   0.100E-11
     TRS4 it  10 1.00000000   0.718E-12       0.013     2187.995   0.100E-11
     Final TRS4 iteration   10 1.00000000   0.718E-12
     Chemical potential (mu):       0.05166
 
 PAO| energy:  -191.51372281783179      penalty:   4.8514179828006143E-004
 PAO|LS| adapt:  T T F
 PAO|LS| adapt: scan_steps:    0.0000000000000000       0.43481986633745773        0.0000000000000000     
 PAO|LS| adapt: energies:   -191.50820135177943       -191.51372281783179        0.0000000000000000     
 PAO| ======================= Iteration:        22 =============================

     Lanczos converged:  T threshold:   0.100E-02
     Est. extremal eigenvalues:    0.481E+01   0.133E+00
     Est. condition number :    0.361E+02

 Order=           3
     NS sqrt iter    1 1.00000000   0.124E+01       0.021     2683.339
     NS sqrt iter    2 1.00000000   0.628E+00       0.034     3357.904
     NS sqrt iter    3 1.00000000   0.201E+00       0.034     3335.945
     NS sqrt iter    4 1.00000000   0.254E-01       0.034     3357.476
     NS sqrt iter    5 1.00000000   0.111E-03       0.034     3372.140
     NS sqrt iter    6 1.00000000   0.255E-10       0.019     2167.249
     Symmetrizing Results
     Final NS sqrt iter    6 1.00000000   0.219E-11

     Est. extremal eigenvalues     -0.83191     2.58515  converged:  T
     TRS4 it   1 1.00000000   0.285E+02       0.007     2139.091   0.100E-11
     TRS4 it   2 1.00000000   0.234E+02       0.013     2192.120   0.100E-11
     TRS4 it   3 1.00000000   0.154E+02       0.013     2195.797   0.100E-11
     TRS4 it   4 1.00000000   0.888E+01       0.013     2195.359   0.100E-11
     TRS4 it   5 1.00000000   0.364E+01       0.013     2186.314   0.100E-11
     TRS4 it   6 1.00000000   0.911E+00       0.013     2188.622   0.100E-11
     TRS4 it   7 1.00000000   0.105E+00       0.013     2201.932   0.100E-11
     TRS4 it   8 1.00000000   0.211E-02       0.013     2186.507   0.100E-11
     TRS4 it   9 1.00000000   0.109E-05       0.013     2194.397   0.100E-11
     TRS4 it  10 1.00000000   0.639E-12       0.013     2190.207   0.100E-11
     Final TRS4 iteration   10 1.00000000   0.639E-12
     Chemical potential (mu):       0.05205
 
 PAO| energy:  -191.51211643321165      penalty:   4.6819486583013096E-004
 PAO|LS| Need extra step
 PAO|LS| adapt:  T T T
 PAO|LS| adapt: scan_steps:    0.0000000000000000       0.43481986633745773       0.86963973267491546     
 PAO|LS| adapt: energies:   -191.50820135177943       -191.51372281783179       -191.51211643321165     
 PAO|LS| adapt: suggested step_size:   0.55423561052675285     
 PAO|LS| adapt: predicted energy  -191.51399162015602     
 PAO| ======================= Iteration:        23 =============================

     Lanczos converged:  T threshold:   0.100E-02
     Est. extremal eigenvalues:    0.481E+01   0.133E+00
     Est. condition number :    0.361E+02

 Order=           3
     NS sqrt iter    1 1.00000000   0.124E+01       0.021     2673.914
     NS sqrt iter    2 1.00000000   0.628E+00       0.034     3345.839
     NS sqrt iter    3 1.00000000   0.201E+00       0.034     3355.313
     NS sqrt iter    4 1.00000000   0.254E-01       0.034     3332.226
     NS sqrt iter    5 1.00000000   0.112E-03       0.034     3350.655
     NS sqrt iter    6 1.00000000   0.259E-10       0.019     2182.329
     Symmetrizing Results
     Final NS sqrt iter    6 1.00000000   0.218E-11

     Est. extremal eigenvalues     -0.83190     2.58742  converged:  T
     TRS4 it   1 1.00000000   0.285E+02       0.007     2147.993   0.100E-11
     TRS4 it   2 1.00000000   0.235E+02       0.013     2219.028   0.100E-11
     TRS4 it   3 1.00000000   0.154E+02       0.013     2195.779   0.100E-11
     TRS4 it   4 1.00000000   0.889E+01       0.013     2205.647   0.100E-11
     TRS4 it   5 1.00000000   0.366E+01       0.013     2193.273   0.100E-11
     TRS4 it   6 1.00000000   0.917E+00       0.013     2199.527   0.100E-11
     TRS4 it   7 1.00000000   0.106E+00       0.013     2204.589   0.100E-11
     TRS4 it   8 1.00000000   0.216E-02       0.013     2213.521   0.100E-11
     TRS4 it   9 1.00000000   0.114E-05       0.013     2181.737   0.100E-11
     TRS4 it  10 1.00000000   0.727E-12       0.013     2209.848   0.100E-11
     Final TRS4 iteration   10 1.00000000   0.727E-12
     Chemical potential (mu):       0.05177
 
 PAO| energy:  -191.51399813693740      penalty:   4.8033339027883155E-004
 PAO|CG| trace_G_new    1.4955001212367843E-002
 PAO|CG| trace_G_prev    2.0767195136638841E-002
 PAO|CG| trace_G_mix    1.1040759903272187E-004
 PAO|CG| trace_D    2.7020893593245887E-002
 PAO|CG| trace_D_Gnew  -4.5709362121843056E-005
 PAO|CG| beta:   0.71480975238419753     
 PAO| norm of gradient:  0.12229064237449995     
 PAO| energy improvement:  -5.7967851579689977E-003
 PAO| step     23                 -191.513998137  0.239E-03  0.554E+00     1.922
 PAO|LS| adapt:  T F F
 PAO|LS| adapt: scan_steps:    0.0000000000000000        0.0000000000000000        0.0000000000000000     
 PAO|LS| adapt: energies:   -191.51399813693740        0.0000000000000000        0.0000000000000000     
 PAO| ======================= Iteration:        24 =============================

     Lanczos converged:  T threshold:   0.100E-02
     Est. extremal eigenvalues:    0.480E+01   0.133E+00
     Est. condition number :    0.361E+02

 Order=           3
     NS sqrt iter    1 1.00000000   0.124E+01       0.021     2675.611
     NS sqrt iter    2 1.00000000   0.627E+00       0.034     3371.038
     NS sqrt iter    3 1.00000000   0.201E+00       0.034     3346.372
     NS sqrt iter    4 1.00000000   0.254E-01       0.034     3333.046
     NS sqrt iter    5 1.00000000   0.111E-03       0.034     3361.080
     NS sqrt iter    6 1.00000000   0.258E-10       0.019     2197.772
     Symmetrizing Results
     Final NS sqrt iter    6 1.00000000   0.217E-11

     Est. extremal eigenvalues     -0.83192     2.58363  converged:  T
     TRS4 it   1 1.00000000   0.285E+02       0.007     2121.171   0.100E-11
     TRS4 it   2 1.00000000   0.234E+02       0.013     2207.488   0.100E-11
     TRS4 it   3 1.00000000   0.154E+02       0.013     2194.331   0.100E-11
     TRS4 it   4 1.00000000   0.887E+01       0.013     2192.852   0.100E-11
     TRS4 it   5 1.00000000   0.364E+01       0.013     2199.312   0.100E-11
     TRS4 it   6 1.00000000   0.909E+00       0.013     2182.972   0.100E-11
     TRS4 it   7 1.00000000   0.105E+00       0.013     2193.127   0.100E-11
     TRS4 it   8 1.00000000   0.209E-02       0.013     2170.770   0.100E-11
     TRS4 it   9 1.00000000   0.108E-05       0.013     2194.829   0.100E-11
     TRS4 it  10 1.00000000   0.679E-12       0.013     2211.777   0.100E-11
     Final TRS4 iteration   10 1.00000000   0.679E-12
     Chemical potential (mu):       0.05211
 
 PAO| energy:  -191.51684969576982      penalty:   4.4459855728805678E-004
 PAO|LS| adapt:  T T F
 PAO|LS| adapt: scan_steps:    0.0000000000000000       0.55423561052675285        0.0000000000000000     
 PAO|LS| adapt: energies:   -191.51399813693740       -191.51684969576982        0.0000000000000000     
 PAO| ======================= Iteration:        25 =============================

     Lanczos converged:  T threshold:   0.100E-02
     Est. extremal eigenvalues:    0.479E+01   0.133E+00
     Est. condition number :    0.361E+02

 Order=           3
     NS sqrt iter    1 1.00000000   0.123E+01       0.021     2684.545
     NS sqrt iter    2 1.00000000   0.626E+00       0.034     3325.489
     NS sqrt iter    3 1.00000000   0.201E+00       0.034     3313.552
     NS sqrt iter    4 1.00000000   0.253E-01       0.034     3331.643
     NS sqrt iter    5 1.00000000   0.111E-03       0.034     3335.933
     NS sqrt iter    6 1.00000000   0.258E-10       0.019     2146.440
     Symmetrizing Results
     Final NS sqrt iter    6 1.00000000   0.217E-11

     Est. extremal eigenvalues     -0.83192     2.57964  converged:  T
     TRS4 it   1 1.00000000   0.285E+02       0.007     2124.516   0.100E-11
     TRS4 it   2 1.00000000   0.234E+02       0.013     2179.184   0.100E-11
     TRS4 it   3 1.00000000   0.154E+02       0.013     2189.127   0.100E-11
     TRS4 it   4 1.00000000   0.885E+01       0.013     2191.384   0.100E-11
     TRS4 it   5 1.00000000   0.362E+01       0.013     2206.961   0.100E-11
     TRS4 it   6 1.00000000   0.900E+00       0.013     2201.314   0.100E-11
     TRS4 it   7 1.00000000   0.103E+00       0.013     2197.830   0.100E-11
     TRS4 it   8 1.00000000   0.203E-02       0.013     2222.100   0.100E-11
     TRS4 it   9 1.00000000   0.102E-05       0.013     2205.249   0.100E-11
     TRS4 it  10 1.00000000   0.576E-12       0.013     2211.311   0.100E-11
     Final TRS4 iteration   10 1.00000000   0.576E-12
     Chemical potential (mu):       0.05245
 
 PAO| energy:  -191.50861923069746      penalty:   4.1227850179858952E-004
 PAO|LS| adapt:  T T T
 PAO|LS| adapt: scan_steps:    0.0000000000000000       0.55423561052675285        1.1084712210535057     
 PAO|LS| adapt: energies:   -191.51399813693740       -191.51684969576982       -191.50861923069746     
 PAO|LS| adapt: suggested step_size:   0.41973033380674646     
 PAO|LS| adapt: predicted energy  -191.51717604220920     
 PAO| ======================= Iteration:        26 =============================

     Lanczos converged:  T threshold:   0.100E-02
     Est. extremal eigenvalues:    0.480E+01   0.133E+00
     Est. condition number :    0.361E+02

 Order=           3
     NS sqrt iter    1 1.00000000   0.124E+01       0.021     2680.756
     NS sqrt iter    2 1.00000000   0.627E+00       0.034     3323.119
     NS sqrt iter    3 1.00000000   0.201E+00       0.034     3325.279
     NS sqrt iter    4 1.00000000   0.254E-01       0.034     3337.122
     NS sqrt iter    5 1.00000000   0.111E-03       0.034     3324.730
     NS sqrt iter    6 1.00000000   0.259E-10       0.019     2181.498
     Symmetrizing Results
     Final NS sqrt iter    6 1.00000000   0.218E-11

     Est. extremal eigenvalues     -0.83191     2.58457  converged:  T
     TRS4 it   1 1.00000000   0.285E+02       0.007     2128.561   0.100E-11
     TRS4 it   2 1.00000000   0.234E+02       0.013     2200.570   0.100E-11
     TRS4 it   3 1.00000000   0.154E+02       0.013     2206.271   0.100E-11
     TRS4 it   4 1.00000000   0.888E+01       0.013     2206.199   0.100E-11
     TRS4 it   5 1.00000000   0.364E+01       0.013     2190.502   0.100E-11
     TRS4 it   6 1.00000000   0.911E+00       0.013     2197.099   0.100E-11
     TRS4 it   7 1.00000000   0.105E+00       0.013     2190.786   0.100E-11
     TRS4 it   8 1.00000000   0.211E-02       0.013     2193.775   0.100E-11
     TRS4 it   9 1.00000000   0.110E-05       0.013     2221.804   0.100E-11
     TRS4 it  10 1.00000000   0.602E-12       0.013     2187.976   0.100E-11
     Final TRS4 iteration   10 1.00000000   0.602E-12
     Chemical potential (mu):       0.05202
 
 PAO| energy:  -191.51716620468716      penalty:   4.5295139255148692E-004
 PAO|CG| trace_G_new    1.1931234192684948E-002
 PAO|CG| trace_G_prev    1.4955001212367843E-002
 PAO|CG| trace_G_mix    2.0679977888403395E-004
 PAO|CG| trace_D    2.8826754368579656E-002
 PAO|CG| trace_D_Gnew  -6.3910064159995543E-005
 PAO|CG| beta:   0.78398084007540980     
 PAO| norm of gradient:  0.10923018901697895     
 PAO| energy improvement:  -3.1680677497547549E-003
 PAO| step     26                 -191.517166205  0.213E-03  0.420E+00     1.490
 PAO|LS| adapt:  T F F
 PAO|LS| adapt: scan_steps:    0.0000000000000000        0.0000000000000000        0.0000000000000000     
 PAO|LS| adapt: energies:   -191.51716620468716        0.0000000000000000        0.0000000000000000     
 PAO| ======================= Iteration:        27 =============================

     Lanczos converged:  T threshold:   0.100E-02
     Est. extremal eigenvalues:    0.479E+01   0.133E+00
     Est. condition number :    0.361E+02

 Order=           3
     NS sqrt iter    1 1.00000000   0.123E+01       0.022     2642.290
     NS sqrt iter    2 1.00000000   0.626E+00       0.034     3353.201
     NS sqrt iter    3 1.00000000   0.200E+00       0.034     3330.960
     NS sqrt iter    4 1.00000000   0.253E-01       0.034     3350.420
     NS sqrt iter    5 1.00000000   0.111E-03       0.034     3356.704
     NS sqrt iter    6 1.00000000   0.260E-10       0.019     2182.867
     Symmetrizing Results
     Final NS sqrt iter    6 1.00000000   0.217E-11

     Est. extremal eigenvalues     -0.83193     2.58178  converged:  T
     TRS4 it   1 1.00000000   0.285E+02       0.007     2109.577   0.100E-11
     TRS4 it   2 1.00000000   0.234E+02       0.013     2200.209   0.100E-11
     TRS4 it   3 1.00000000   0.154E+02       0.013     2169.157   0.100E-11
     TRS4 it   4 1.00000000   0.886E+01       0.013     2200.022   0.100E-11
     TRS4 it   5 1.00000000   0.363E+01       0.013     2207.495   0.100E-11
     TRS4 it   6 1.00000000   0.903E+00       0.013     2211.287   0.100E-11
     TRS4 it   7 1.00000000   0.104E+00       0.013     2184.547   0.100E-11
     TRS4 it   8 1.00000000   0.205E-02       0.013     2187.262   0.100E-11
     TRS4 it   9 1.00000000   0.104E-05       0.013     2186.111   0.100E-11
     TRS4 it  10 1.00000000   0.568E-12       0.013     2204.489   0.100E-11
     Final TRS4 iteration   10 1.00000000   0.568E-12
     Chemical potential (mu):       0.05238
 
 PAO| energy:  -191.51944354684485      penalty:   4.1815948782269042E-004
 PAO|LS| adapt:  T T F
 PAO|LS| adapt: scan_steps:    0.0000000000000000       0.41973033380674646        0.0000000000000000     
 PAO|LS| adapt: energies:   -191.51716620468716       -191.51944354684485        0.0000000000000000     
 PAO| ======================= Iteration:        28 =============================

     Lanczos converged:  T threshold:   0.100E-02
     Est. extremal eigenvalues:    0.478E+01   0.132E+00
     Est. condition number :    0.361E+02

 Order=           3
     NS sqrt iter    1 1.00000000   0.123E+01       0.022     2635.383
     NS sqrt iter    2 1.00000000   0.624E+00       0.033     3381.178
     NS sqrt iter    3 1.00000000   0.200E+00       0.034     3335.361
     NS sqrt iter    4 1.00000000   0.252E-01       0.034     3336.220
     NS sqrt iter    5 1.00000000   0.111E-03       0.034     3354.331
     NS sqrt iter    6 1.00000000   0.262E-10       0.019     2175.844
     Symmetrizing Results
     Final NS sqrt iter    6 1.00000000   0.216E-11

     Est. extremal eigenvalues     -0.83193     2.57882  converged:  T
     TRS4 it   1 1.00000000   0.285E+02       0.007     2102.769   0.100E-11
     TRS4 it   2 1.00000000   0.234E+02       0.013     2198.571   0.100E-11
     TRS4 it   3 1.00000000   0.154E+02       0.013     2212.972   0.100E-11
     TRS4 it   4 1.00000000   0.884E+01       0.013     2204.781   0.100E-11
     TRS4 it   5 1.00000000   0.361E+01       0.013     2208.841   0.100E-11
     TRS4 it   6 1.00000000   0.896E+00       0.013     2221.849   0.100E-11
     TRS4 it   7 1.00000000   0.102E+00       0.013     2194.049   0.100E-11
     TRS4 it   8 1.00000000   0.199E-02       0.013     2197.793   0.100E-11
     TRS4 it   9 1.00000000   0.983E-06       0.013     2198.951   0.100E-11
     TRS4 it  10 1.00000000   0.488E-12       0.013     2184.012   0.100E-11
     Final TRS4 iteration   10 1.00000000   0.488E-12
     Chemical potential (mu):       0.05273
 
 PAO| energy:  -191.51616961741368      penalty:   3.8608510573774808E-004
 PAO|LS| adapt:  T T T
 PAO|LS| adapt: scan_steps:    0.0000000000000000       0.41973033380674646       0.83946066761349292     
 PAO|LS| adapt: energies:   -191.51716620468716       -191.51944354684485       -191.51616961741368     
 PAO|LS| adapt: suggested step_size:   0.38205446961352879     
 PAO|LS| adapt: predicted energy  -191.51946591077936     
 PAO| ======================= Iteration:        29 =============================

     Lanczos converged:  T threshold:   0.100E-02
     Est. extremal eigenvalues:    0.479E+01   0.133E+00
     Est. condition number :    0.361E+02

 Order=           3
     NS sqrt iter    1 1.00000000   0.123E+01       0.021     2655.649
     NS sqrt iter    2 1.00000000   0.626E+00       0.034     3353.946
     NS sqrt iter    3 1.00000000   0.201E+00       0.034     3352.234
     NS sqrt iter    4 1.00000000   0.253E-01       0.034     3337.278
     NS sqrt iter    5 1.00000000   0.111E-03       0.034     3318.995
     NS sqrt iter    6 1.00000000   0.260E-10       0.019     2191.647
     Symmetrizing Results
     Final NS sqrt iter    6 1.00000000   0.217E-11

     Est. extremal eigenvalues     -0.83193     2.58204  converged:  T
     TRS4 it   1 1.00000000   0.285E+02       0.007     2099.344   0.100E-11
     TRS4 it   2 1.00000000   0.234E+02       0.013     2198.683   0.100E-11
     TRS4 it   3 1.00000000   0.154E+02       0.013     2185.918   0.100E-11
     TRS4 it   4 1.00000000   0.886E+01       0.013     2210.780   0.100E-11
     TRS4 it   5 1.00000000   0.363E+01       0.013     2194.988   0.100E-11
     TRS4 it   6 1.00000000   0.904E+00       0.013     2215.501   0.100E-11
     TRS4 it   7 1.00000000   0.104E+00       0.013     2195.836   0.100E-11
     TRS4 it   8 1.00000000   0.205E-02       0.013     2188.505   0.100E-11
     TRS4 it   9 1.00000000   0.104E-05       0.013     2186.393   0.100E-11
[...]
     TRS4 it   4 1.00000000   0.921E+01       0.013     2173.114   0.100E-11
     TRS4 it   5 1.00000000   0.415E+01       0.013     2184.681   0.100E-11
     TRS4 it   6 1.00000000   0.129E+01       0.013     2193.325   0.100E-11
     TRS4 it   7 1.00000000   0.232E+00       0.013     2159.266   0.100E-11
     TRS4 it   8 1.00000000   0.123E-01       0.013     2188.537   0.100E-11
     TRS4 it   9 1.00000000   0.441E-04       0.013     2193.310   0.100E-11
     TRS4 it  10 1.00000000   0.781E-09       0.013     2188.291   0.100E-11
     TRS4 it  11 1.00000000   0.178E-14       0.013     2174.231   0.100E-11
     Final TRS4 iteration   11 1.00000000   0.178E-14
     Chemical potential (mu):       0.01840
 
 PAO| energy:  -191.13195952406139      penalty:   3.4688333122863416E-008
 PAO| Writing restart file.
     Est. extremal eigenvalues     -0.83168     2.54787  converged:  T
     TRS4 it   1 1.00000000   0.287E+02       0.007     2102.241   0.100E-11
     TRS4 it   2 1.00000000   0.235E+02       0.013     2170.451   0.100E-11
     TRS4 it   3 1.00000000   0.155E+02       0.013     2165.589   0.100E-11
     TRS4 it   4 1.00000000   0.921E+01       0.013     2166.266   0.100E-11
     TRS4 it   5 1.00000000   0.415E+01       0.013     2182.456   0.100E-11
     TRS4 it   6 1.00000000   0.129E+01       0.013     2180.010   0.100E-11
     TRS4 it   7 1.00000000   0.232E+00       0.013     2165.603   0.100E-11
     TRS4 it   8 1.00000000   0.123E-01       0.013     2182.503   0.100E-11
     TRS4 it   9 1.00000000   0.441E-04       0.013     2197.067   0.100E-11
     TRS4 it  10 1.00000000   0.781E-09       0.013     2165.112   0.100E-11
     TRS4 it  11 1.00000000   0.178E-14       0.013     2176.992   0.100E-11
     Final TRS4 iteration   11 1.00000000   0.178E-14
     Chemical potential (mu):       0.01840

 SCF     1     -1103.046542116     -1103.046542116    1.774410

*********************************************************
 Using MIXING_FRACTION=0.450 to mix KS matrix:  iscf=  2
 KS_nw=0.450*KS + 0.550*KS_old
*********************************************************
     Est. extremal eigenvalues     -0.83168     2.54787  converged:  T
     TRS4 it   1 1.00000000   0.287E+02       0.007     2118.803   0.100E-11
     TRS4 it   2 1.00000000   0.235E+02       0.013     2173.232   0.100E-11
     TRS4 it   3 1.00000000   0.155E+02       0.013     2174.642   0.100E-11
     TRS4 it   4 1.00000000   0.921E+01       0.013     2173.565   0.100E-11
     TRS4 it   5 1.00000000   0.415E+01       0.013     2194.683   0.100E-11
     TRS4 it   6 1.00000000   0.129E+01       0.013     2204.922   0.100E-11
     TRS4 it   7 1.00000000   0.232E+00       0.013     2161.999   0.100E-11
     TRS4 it   8 1.00000000   0.123E-01       0.013     2187.574   0.100E-11
     TRS4 it   9 1.00000000   0.441E-04       0.013     2195.774   0.100E-11
     TRS4 it  10 1.00000000   0.781E-09       0.013     2205.628   0.100E-11
     TRS4 it  11 1.00000000   0.266E-13       0.013     2213.759   0.100E-11
     Final TRS4 iteration   11 1.00000000   0.266E-13
     Chemical potential (mu):       0.01840

 SCF     2     -1103.046542116        -0.000000000    1.757423


 SCF run converged in     2 steps.

 PAO| Storing density matrix for ASPC guess in slot:           1

 ENERGY| Total FORCE_EVAL ( QS ) energy [a.u.]:            -1103.046542115701868

 -------------------------------------------------------------------------------
 -                                                                             -
 -                                DBCSR STATISTICS                             -
 -                                                                             -
 -------------------------------------------------------------------------------
 COUNTER                                    TOTAL       BLAS       SMM       ACC
 flops     5 x     5 x     4             26419200       0.0%    100.0%      0.0%     
 flops    13 x     5 x     4             34078720       0.0%    100.0%      0.0%     
 flops     5 x    13 x     4             34078720       0.0%    100.0%      0.0%     
 flops    13 x    13 x     4             44994560       0.0%    100.0%      0.0%     
 flops     4 x     4 x     5           6598164480       0.0%    100.0%      0.0%     
 flops     5 x     4 x     5           8113356800       0.0%    100.0%      0.0%     
 flops     4 x     4 x    13           8577613824       0.0%    100.0%      0.0%     
 flops    13 x     4 x     5          10547363840       0.0%    100.0%      0.0%     
 flops     5 x     4 x    13          10547363840       0.0%    100.0%      0.0%     
 flops    13 x     4 x    13          13711572992       0.0%    100.0%      0.0%     
 flops     5 x     4 x     4         405411783840       0.0%    100.0%      0.0%     
 flops    13 x     4 x     4         534236677312       0.0%    100.0%      0.0%     
 flops     4 x     4 x     4       30285337361536       0.0%    100.0%      0.0%     
 flops inhomo. stacks                           0       0.0%      0.0%      0.0%
 flops total                        31.283221E+12       0.0%    100.0%      0.0%
 flops max/rank                    987.754417E+09       0.0%    100.0%      0.0%
 matmuls inhomo. stacks                         0       0.0%      0.0%      0.0%
 matmuls total                       240575674072       0.0%    100.0%      0.0%
 number of processed stacks             245767892       0.0%    100.0%      0.0%
 average stack size                                     0.0     978.9       0.0
 marketing flops                    54.200533E+12
 -------------------------------------------------------------------------------
 # multiplications                          50877
 max memory usage/rank             618.172416E+06
 # max total images/rank                        2
 # max 3D layers                                1
 # MPI messages exchanged                21164832
 MPI messages size (bytes):
  total size                         2.509496E+12
  min size                           0.000000E+00
  max size                         541.696000E+03
  average size                     118.569148E+03
 MPI breakdown and total messages size (bytes):
             size <=      128              904335                     8832
       128 < size <=     8192              343359               1322670848
      8192 < size <=    32768               41230               1074840576
     32768 < size <=   131072             9094262             676425189888
    131072 < size <=  4194304            10781646            1831133998592
   4194304 < size <= 16777216                   0                        0
  16777216 < size                               0                        0
 -------------------------------------------------------------------------------

 *** WARNING in dbcsr_mm.F:301 :: Using a non-square number of MPI ranks ***
 *** might lead to poor performance. Used ranks: 32 Suggested: 36 64     ***

 -------------------------------------------------------------------------------
 -                                                                             -
 -                      DBCSR MESSAGE PASSING PERFORMANCE                      -
 -                                                                             -
 -------------------------------------------------------------------------------
 ROUTINE             CALLS      AVE VOLUME [Bytes]
 MP_Bcast               14                     12.
 MP_Allreduce       306365                     37.
 MP_Alltoall        131317                  14585.
 MP_ISend          1702794                  55109.
 MP_IRecv          1665428                  56433.
 -------------------------------------------------------------------------------

 -------------------------------------------------------------------------------
 -                                                                             -
 -                                DBM STATISTICS                               -
 -                                                                             -
 -------------------------------------------------------------------------------
    M  x    N  x    K                                          COUNT     PERCENT
 -------------------------------------------------------------------------------

 -------------------------------------------------------------------------------
 -                                                                             -
 -                                GRID STATISTICS                              -
 -                                                                             -
 -------------------------------------------------------------------------------
 LP    KERNEL             BACKEND                              COUNT     PERCENT
 2     collocate ortho    CPU                               13110112      28.83%
 2     integrate ortho    CPU                               13110112      28.83%
 3     collocate ortho    CPU                                8427312      18.53%
 3     integrate ortho    CPU                                8427312      18.53%
 4     collocate ortho    CPU                                1198160       2.63%
 4     integrate ortho    CPU                                1198160       2.63%
 0     collocate general  CPU                                   6144       0.01%
 -------------------------------------------------------------------------------

 MEMORY| Estimated peak process memory [MiB]                                 590

 -------------------------------------------------------------------------------
 -                                                                             -
 -                         MESSAGE PASSING PERFORMANCE                         -
 -                                                                             -
 -------------------------------------------------------------------------------

 ROUTINE             CALLS      AVE VOLUME [Bytes]
 MP_Group                5
 MP_Bcast           337098                   2041.
 MP_Allreduce       838251                    514.
 MP_Sync                 5
 MP_Alltoall           419                5049490.
 MP_SendRecv          1488                  18832.
 MP_ISendRecv         1488                  18832.
 MP_Wait              4218
 MP_ISend             2470                 108139.
 MP_IRecv             2470                 108153.
 -------------------------------------------------------------------------------


 -------------------------------------------------------------------------------
 -                                                                             -
 -                           R E F E R E N C E S                               -
 -                                                                             -
 -------------------------------------------------------------------------------
 
 CP2K version 2024.3 (Development Version), the CP2K developers group (2024).
 CP2K is freely available from https://www.cp2k.org/ .
 
 T. D. Kuehne, M. Iannuzzi, M. Del Ben, V. V. Rybkin, P. Seewald, F. Stein, T. 
 Laino, R. Z. Khaliullin, O. Schuett, F. Schiffmann, D. Golze, J. Wilhelm, S. 
 Chulkov, M. H. Bani-Hashemian, V. Weber, U. Borstnik, M. Taillefumier, A. S. 
 Jakobovits, A. Lazzaro, H. Pabst, T. Mueller, R. Schade, M. Guidon, S. 
 Andermatt, N. Holmberg, G. K. Schenter, A. Hehn, A. Bussy, F. Belleflamme, G. 
 Tabacchi, A. Gloess, M. Lass, I. Bethune, C. J. Mundy, C. Plessl, M. Watkins, 
 J. VandeVondele, M. Krack, J. Hutter.
 J. Chem. Phys. 152, 194103 (2020).
 CP2K: An electronic structure and molecular dynamics software package - 
 Quickstep: Efficient and accurate electronic structure calculations.
 https://doi.org/10.1063/5.0007045

 O. Schuett, J. VandeVondele.
 J. Chem. Theory Comput. 14, 4168-4175 (2018).
 Machine Learning Adaptive Basis Sets for Efficient Large Scale Density 
 Functional Theory Simulation.
 https://doi.org/10.1021/acs.jctc.8b00378

 O. Schuett, P. Messmer, J. Hutter, J. VandeVondele.
 Electronic Structure Calculations on Graphics Processing Units, 173-190 (2016).
 GPU-Accelerated Sparse Matrix-Matrix Multiplication for Linear Scaling Density 
 Functional Theory.
 https://doi.org/10.1002/9781118670712.ch8

 A. Heinecke, G. Henry, M. Hutchinson, H. Pabst.
 Proceedings of Intl. Supercomputing Conference, 981-991 (2016).
 LIBXSMM: Accelerating Small Matrix Multiplications by Runtime Code Generation.
 https://doi.org/10.1109/SC.2016.83

 J. Hutter, M. Iannuzzi, F. Schiffmann, J. VandeVondele.
 WIREs Comput Mol Sci. 4, 15-25 (2014).
 CP2K: atomistic simulations of condensed matter systems.
 https://doi.org/10.1002/wcms.1159

 U. Borstnik, J. VandeVondele, V. Weber, J. Hutter.
 Parallel Comput. 40, 47-58 (2014).
 Sparse matrix multiplication: The distributed block-compressed sparse row 
 library.
 https://doi.org/10.1016/j.parco.2014.03.012

 A. Marek, V. Blum, R. Johanni, V. Havu, B. Lang, T. Auckenthaler, A. Heinecke, 
 H. Bungartz, H. Lederer.
 J. Phys. Condens. Matter 26, 213201 (2014).
 The ELPA library: scalable parallel eigenvalue solutions for electronic 
 structure theory and computational science.
 https://doi.org/10.1088/0953-8984/26/21/213201

 J. VandeVondele, U. Borstnik, J. Hutter.
 J. Chem. Theory Comput. 8, 3565-3573 (2012).
 Linear Scaling Self-Consistent Field Calculations with Millions of Atoms in the 
 Condensed Phase.
 https://doi.org/10.1021/ct200897x

 J. VandeVondele, J. Hutter.
 J. Chem. Phys. 127, 114105 (2007).
 Gaussian basis sets for accurate calculations on molecular systems in gas and 
 condensed phases.
 https://doi.org/10.1063/1.2770708

 J. VandeVondele, M. Krack, F. Mohamed, M. Parrinello, T. Chassaing, J. Hutter.
 Comput. Phys. Commun. 167, 103-128 (2005).
 QUICKSTEP: Fast and accurate density functional calculations using a mixed 
 Gaussian and plane waves approach.
 https://doi.org/10.1016/j.cpc.2004.12.014

 M. Krack.
 Theor. Chem. Acc. 114, 145-152 (2005).
 Pseudopotentials for H to Kr optimized for gradient-corrected 
 exchange-correlation functionals.
 https://doi.org/10.1007/s00214-005-0655-y

 M. Frigo, S. G. Johnson.
 Proc. IEEE 93, 216-231 (2005).
 The design and implementation of FFTW3.
 https://doi.org/10.1109/JPROC.2004.840301

 A. M. N. Niklasson, C. J. Tymczak, M. Challacombe.
 J. Chem. Phys. 118, 8611-8620 (2003).
 Trace resetting density matrix purification in O(N) self-consistent-field 
 theory.
 https://doi.org/10.1063/1.1559913

 C. Hartwigsen, S. Goedecker, J. Hutter.
 Phys. Rev. B 58, 3641-3662 (1998).
 Relativistic separable dual-space Gaussian pseudopotentials from H to Rn.
 https://doi.org/10.1103/PhysRevB.58.3641

 G. Lippert, J. Hutter, M. Parrinello.
 Mol. Phys. 92, 477-487 (1997).
 A hybrid Gaussian and plane wave density functional scheme.
 https://doi.org/10.1080/002689797170220

 S. Goedecker, M. Teter, J. Hutter.
 Phys. Rev. B 54, 1703-1710 (1996).
 Separable dual-space Gaussian pseudopotentials.
 https://doi.org/10.1103/PhysRevB.54.1703

 J. P. Perdew, K. Burke, M. Ernzerhof.
 Phys. Rev. Lett. 77, 3865-3868 (1996).
 Generalized gradient approximation made simple.
 https://doi.org/10.1103/PhysRevLett.77.3865


 -------------------------------------------------------------------------------
 -                                                                             -
 -                                T I M I N G                                  -
 -                                                                             -
 -------------------------------------------------------------------------------
 SUBROUTINE                       CALLS  ASD         SELF TIME        TOTAL TIME
                                MAXIMUM       AVERAGE  MAXIMUM  AVERAGE  MAXIMUM
 CP2K                                 1  1.0    0.012    0.016  448.850  448.850
 qs_energies                          1  2.0    0.000    0.000  448.700  448.700
 ls_scf                               1  3.0    0.000    0.000  447.624  447.625
 pao_update                           7  4.0    0.006    0.027  417.771  417.772
 pao_calc_energy                    828  5.0    0.003    0.020  374.531  374.532
 dbcsr_multiply_generic           50877  8.4    1.405    1.507  355.038  355.245
 multiply_cannon                  50877  9.4    2.644    3.073  286.920  290.563
 multiply_cannon_loop             50877 10.4    1.900    2.170  276.220  279.938
 ls_scf_init_matrix_S               835  7.0    0.009    0.009  211.429  211.498
 pao_rebuild_S                      828  6.0    0.003    0.003  209.653  209.723
 matrix_sqrt_Newton_Schulz          835  8.0    0.174    0.301  195.833  195.883
 multiply_cannon_multrec         407016 11.4  180.114  182.222  180.947  183.112
 pao_dm_trs4                        828  6.0    0.006    0.007  164.485  164.510
 density_matrix_trs4                843  7.0    0.220    0.371  158.501  158.575
 mp_waitall_1                   3257876 12.6   92.089   98.933   92.089   98.933
 multiply_cannon_metrocomm3      407016 11.4    0.712    0.768   73.706   79.222
 arnoldi_extremal                  1678  8.5    0.013    0.016   55.206   55.257
 arnoldi_normal_ev                 1678  9.5    0.035    0.059   55.190   55.239
 make_m2s                        101754  9.4    0.555    0.774   52.564   53.625
 make_images                     101754 10.4    7.481    7.773   51.175   52.279
 build_subspace                    5429 10.6    0.333    0.359   48.621   48.657
 dbcsr_matrix_vector_mult        166226 11.6    0.712    1.078   45.834   46.152
 pao_calc_AB                       1095  5.8    0.002    0.002   42.773   42.776
 pao_calc_AB_equi                  1095  6.8    0.041    0.101   42.771   42.774
 pao_calc_grad_lnv_wrt_AB           266  7.0    0.020    0.025   42.354   42.389
 dbcsr_matrix_vector_mult_local  166226 12.6   39.126   39.855   39.311   40.041
 ls_scf_main                          7  4.0    0.000    0.001   26.375   26.376
 make_images_data                101754 11.4    0.881    1.028   22.610   24.775
 ls_scf_dm_to_ks                     15  5.0    0.000    0.000   23.376   23.378
 hybrid_alltoall_any             103419 12.3    0.923    1.846   17.692   20.802
 matrix_qs_to_ls                   1678  7.5    0.017    0.022   17.576   17.715
 qs_ks_update_qs_env                 16  6.0    0.000    0.000   13.883   13.885
 rebuild_ks_matrix                   16  7.0    0.000    0.000   13.872   13.873
 qs_ks_build_kohn_sham_matrix        16  8.0    0.003    0.003   13.872   13.873
 mp_sum_l                        207968  9.5    7.908   13.776    7.908   13.776
 calculate_norms                 759824 11.4   11.811   12.818   11.811   12.818
 make_images_pack                101754 11.4   11.278   11.518   11.415   11.655
 qs_rho_update_rho_low               16  6.0    0.000    0.000   10.960   10.962
 calculate_rho_elec                  16  7.0    0.005    0.006   10.960   10.962
 sum_up_and_integrate                16  9.0    0.000    0.000   10.491   10.493
 integrate_v_rspace                  16 10.0    0.000    0.001   10.475   10.479
 grid_collocate_task_list            16  8.0    9.733    9.853    9.733    9.853
 grid_integrate_task_list            16 11.0    9.293    9.397    9.293    9.397
 -------------------------------------------------------------------------------

 The number of warnings for this run is : 1
 
 -------------------------------------------------------------------------------
  **** **** ******  **  PROGRAM ENDED AT                 2024-09-24 05:50:10.416
 ***** ** ***  *** **   PROGRAM RAN ON                                    moritz
 **    ****   ******    PROGRAM RAN BY                                       ole
 ***** **    ** ** **   PROGRAM PROCESS ID                                169661
  **** **  *******  **  PROGRAM STOPPED IN /home/ole/git/pao_ml_equivar/64H2O_MD
                                           /Frame6000
