     192
 i =     6000, time =     9000.000, E =     -1100.0690564175
  O         5.3685353665       -3.3341740103        2.7128693043
  H         5.7202262692       -4.1940389570        2.4247204627
  H         5.8003641081       -3.1750041451        3.5451475542
  O        -5.5509921066        1.9929177366        5.8002214250
  H        -5.1963503194        1.4092801597        5.1128235481
  H        -5.1799595430        1.8113300575        6.6806197873
  O         6.5174243578        4.8347192040        5.4354088297
  H         5.6618477156        5.1225753753        5.1282812906
  H         6.5174327263        3.8634430928        5.6081480578
  O        -1.9601953846        0.8308929392       -4.0948215928
  H        -1.6010986215        1.1807774953       -3.2539925612
  H        -1.6139183915       -0.0562016573       -4.2331876827
  O        -3.5694571727        5.3144207006        3.9431945565
  H        -4.3172831800        5.0094382663        4.4662209459
  H        -3.7641613730        6.1007290143        3.4356366380
  O         7.4653103898       -0.1067584439        4.0262731006
  H         7.2057600900       -0.9766347077        4.3767986585
  H         7.1315220474       -0.0194722181        3.0881819742
  O         4.3097570792       -5.2513196735       -0.0703984436
  H         4.1326713338       -4.2966718871       -0.1598145124
  H         3.5352601685       -5.7314806912       -0.3511370993
  O        -0.5954742183       -2.7000346488       -1.4983148409
  H        -1.2597696925       -3.4613873835       -1.6044416414
  H        -0.9436170464       -2.0369306970       -0.9217865285
  O         2.7156393451       -3.1536777479        3.4739662838
  H         3.6322176400       -3.1509651763        3.2122184417
  H         2.2817444581       -2.6592703077        2.7553978474
  O         3.4364268716        2.9541598009        6.1993132457
  H         3.9679955742        2.1702014197        6.3414082480
  H         3.4340976288        3.4783921742        7.0698065935
  O         5.1883177829       -3.5881319432       -4.8579629896
  H         5.0044194304       -2.6096584325       -4.4898462495
  H         4.3403549556       -3.9921449475       -4.9699279633
  O         1.9426740447       -1.8553603334        1.1985502391
  H         1.1894189587       -2.4358504008        1.0585401229
  H         2.6320594255       -2.1500191993        0.5754557368
  O         2.8817548518       -4.9276206217       -4.8431830385
  H         3.2205516011       -5.7741895792       -4.4352246127
  H         2.6998032653       -5.0901776071       -5.7665073602
  O         4.8233354376        4.0339172552       -1.5017821392
  H         5.1431734426        3.0896466915       -1.3904235267
  H         5.6478969179        4.4699654300       -1.7910997145
  O         2.3017991200       -0.7208875676        5.1972891815
  H         2.6470177124       -1.5008859998        4.7227643951
  H         2.0107075498       -0.0824595601        4.4930433475
  O        -1.3459601045        2.9697245249        6.7967348749
  H        -0.9618883350        2.5825018349        6.0018032488
  H        -1.7584420443        2.2474002834        7.2629797540
  O        -1.3914537670       -2.9813467053        3.2793843723
  H        -0.9676367622       -3.1533044486        2.4160641291
  H        -1.1966034872       -3.7488675855        3.8652760037
  O        -1.4021015247        3.9877511828        2.4908967339
  H        -0.9365070360        3.2533523485        2.9290465865
  H        -2.0166601639        4.2454695171        3.1477656040
  O         1.7024307663       -1.8265644391       -4.9135320796
  H         1.6861889225       -1.4603346377       -5.8428860868
  H         2.4439301820       -1.3577474126       -4.4613393628
  O        -1.3810270557       -0.6205470269       -0.1368494351
  H        -2.3355039968       -0.3723593871       -0.2560340830
  H        -1.0252815878       -0.0935628284        0.6074117792
  O        -3.1756530485        3.7438814453       -2.8626537204
  H        -3.8973196356        4.2859402211       -2.4294068229
  H        -2.6792234185        3.2514234769       -2.1952153375
  O         5.4162293232        5.4361607436        1.9011942064
  H         4.8171340856        6.0583913924        1.4598460141
  H         5.0477593023        5.3283177661        2.7984960973
  O         5.5141914835       -1.1035812522       -3.5420082169
  H         5.2293598385       -0.5164808055       -4.3029962928
  H         6.4644606442       -1.0610747083       -3.5321988060
  O        -5.1638745251        5.3399256090       -2.1521042531
  H        -5.2091793144        5.9392200667       -1.4367786250
  H        -5.2826464685        5.9497626711       -2.8978535951
  O         8.8367597392        0.7321647541       -0.4467824915
  H         9.1717975783        1.5599904289       -0.1236041526
  H         8.0983159403        1.0266046250       -1.0819510094
  O         1.1429192934        0.7461908898        1.2384370206
  H         1.5839402561        1.2191880885        0.5394726803
  H         1.3556496947       -0.1851375825        1.0278184255
  O        -5.4790895952       -5.2264851735       -0.0931326316
  H        -5.0012536260       -5.4462503095        0.7420538800
  H        -6.4560220756       -5.3440041231       -0.0438346148
  O        -3.2901366829        3.1089800477        0.6331398365
  H        -4.2087014454        3.1568826231        1.0364324729
  H        -2.6755616820        3.2669093759        1.3455685994
  O         4.6236590914        0.5102537106       -5.8969041189
  H         5.3559180489        0.8617582326       -6.4096254433
  H         4.0424258352       -0.0063307431       -6.4998135575
  O         3.9211963752       -2.5157094539       -0.6015854507
  H         4.7671386468       -2.0900698153       -0.4676644680
  H         3.5296659654       -2.5213024452       -1.5048631412
  O         1.7398053364        2.1478454158       -1.7966131821
  H         2.3631582988        2.7620284853       -1.3964652074
  H         1.1506897003        2.7373971955       -2.3976498093
  O        -2.0732159015       -0.3313499450        3.6489630774
  H        -1.6808696194       -1.2123738990        3.6844949163
  H        -3.0605596153       -0.4250076549        3.7152505812
  O         2.6736604165       -8.9724885580        2.0603612736
  H         2.8372033330       -8.4501173660        1.2013912813
  H         3.1755519389       -8.4261178885        2.7274109954
  O         2.1097476640       -3.6950697527       -2.4869367736
  H         2.4415980640       -3.8281644772       -3.4088957071
  H         1.3715614479       -3.0611848203       -2.4090493048
  O        -5.8266069333        3.1415962286        1.2371861265
  H        -6.5579450551        2.8024594736        0.7070387781
  H        -6.0630193266        4.1032812219        1.3486854933
  O         2.2317692033       -5.4534026872       -7.4932629147
  H         1.2487523341       -5.6163645126       -7.6713274956
  H         2.3991226492       -4.5961845708       -7.9286260902
  O         0.5132139344        3.7870993535       -3.5916726487
  H         0.0536698394        3.3099100812       -4.3588459852
  H        -0.1735689070        4.5164284530       -3.5444915909
  O        -3.8950091594       -5.0927773965        2.1708647558
  H        -3.5035138908       -4.2259884009        2.2534855669
  H        -3.3006605908       -5.5445536398        1.4964586619
  O         3.9493555463        5.0065236192        4.4987501129
  H         3.4092932131        5.7547302160        4.7617712871
  H         3.7616516877        4.2429143622        5.0922113282
  O        -4.6357446246        1.4945724712       -4.1868477688
  H        -3.8347312640        0.9282916518       -4.1884773754
  H        -4.1576867210        2.2311035355       -3.7518414740
  O         1.9664860582        1.7336889290        4.0015925111
  H         2.5086583762        2.1491720678        4.6791801552
  H         2.2910597928        2.0312318927        3.1475284238
  O        -7.6219294782        0.9191538697        0.2558137856
  H        -8.3214805689        1.0498297889        0.9270997602
  H        -6.9117001081        0.3738761521        0.7029122237
  O        -0.8284088597        2.0697298527        4.2427784891
  H         0.0639118683        1.7340416154        4.1038274024
  H        -1.4283057822        1.2381388327        4.2154657195
  O        -2.6468905239        6.0523221555        0.1149834089
  H        -1.6713109728        6.1339802542        0.2659152368
  H        -2.7352007131        5.0837280984        0.1325765499
  O        -0.7206587604       -1.5618676214       -3.9100670027
  H        -0.7722491172       -1.9928904729       -3.0569775233
  H         0.1882216157       -1.2068373584       -4.0103202574
  O        -5.9382154677        1.1177130158       -1.8182792274
  H        -5.6720516035        0.9470755915       -2.7380611797
  H        -6.7617270743        0.5918514046       -1.6543027717
  O         6.6419392944       -2.3270008712       -0.5222380908
  H         6.9445296643       -3.1103870345       -0.0479287383
  H         7.2792499605       -2.3058594774       -1.2438166305
  O        -1.1609248821        1.9004956304       -1.6484357125
  H        -0.1971246195        2.1063829204       -1.4572464649
  H        -1.2458509924        1.0690344993       -1.1922742630
  O         0.6128744876        6.5850170124       -1.7707847892
  H         1.1978021152        7.3264363039       -2.0885702124
  H        -0.1108159116        6.4326334278       -2.4006172013
  O         6.6658689718       -3.1667035567        5.4468676419
  H         7.5048938588       -3.3483009984        5.9131050602
  H         6.1009842106       -3.2627087687        6.2021556697
  O        -1.4774422010       -6.8140676761       -3.6227802496
  H        -1.7320356273       -6.7885341037       -4.5630011562
  H        -2.1230060428       -7.4300813956       -3.2801028964
  O        -4.0034069037       -1.9847200882       -3.1421363717
  H        -3.8628238481       -2.7786039145       -3.6660064976
  H        -3.0762078606       -1.6953984216       -2.9357480750
  O         2.6732752602        5.1554046122       -0.5554075601
  H         1.8757312702        5.5097320238       -1.0711289643
  H         3.4252270475        4.7365114946       -1.0401936334
  O        -3.6892370629       -4.2087064270       -5.3794619405
  H        -2.7132202655       -4.2016026441       -5.2230862198
  H        -4.0909376386       -4.9483643184       -4.9835660422
  O         0.5909269313        6.0851973530        2.0181966668
  H        -0.0530429446        5.9393784979        2.6870047100
  H         1.1036365096        5.2442600701        1.9924704989
  O        -0.4778516887       -4.0579562007       -5.0286879447
  H         0.4686498652       -4.3509706842       -4.8087529260
  H        -0.4163478160       -3.0698088208       -4.8725051792
  O        -5.3265807625       -0.2458674655        1.2940674211
  H        -4.7095411418        0.2191382938        0.7244034445
  H        -5.4708632391       -1.0778957565        0.8924392497
  O         3.4816236575        4.6839214342       -3.9283843795
  H         4.0799812399        4.3641626430       -3.2438829180
  H         2.6038448498        4.4600777739       -3.5763424087
  O         2.6302599434       -0.3809328885       -2.6069904371
  H         2.3538177535        0.5577164068       -2.6139014982
  H         3.5375518684       -0.5445028903       -2.3221728801
  O        -2.0285510087        5.5875683582        6.2530732745
  H        -1.7992806090        4.6258088984        6.3038254608
  H        -2.8068326005        5.5944735487        5.6932269685
  O        -0.2647063427       -3.7592463214        0.9482862055
  H         0.0857267436       -4.5844194213        1.2748296976
  H        -0.3351286926       -3.7576301469       -0.0041687396
  O         6.8088652705        6.4402094601        7.8459070849
  H         6.3384492547        7.2918279811        7.8046750477
  H         6.7428736245        6.0337955830        6.9804914270
  O        -0.4544451048       -5.3550168127        4.8813976384
  H        -1.0152457584       -6.1584609782        5.0261020759
  H        -0.5703099497       -4.9089532070        5.7148253208
  O        -2.6138267166       -4.5968332834       -2.0251625416
  H        -2.6845318827       -5.3164526309       -1.3506706454
  H        -2.1596596750       -5.1299551191       -2.7681968148
