 DBCSR| CPU Multiplication driver                                           XSMM (U)
 DBCSR| Multrec recursion limit                                              512 (U)
 DBCSR| Multiplication stack size                                           1000 (D)
 DBCSR| Maximum elements for images                                    UNLIMITED (U)
 DBCSR| Multiplicative factor virtual images                                   1 (U)
 DBCSR| Use multiplication densification                                       T (D)
 DBCSR| Multiplication size stacks                                             3 (U)
 DBCSR| Use memory pool for CPU allocation                                     F (U)
 DBCSR| OMP: Current number of threads                                         1
 DBCSR| OMP: Max number of threads                                             1
 DBCSR| Split modifier for TAS multiplication algorithm                  1.0E+00 (U)


  **** **** ******  **  PROGRAM STARTED AT               2023-02-01 10:47:55.378
 ***** ** ***  *** **   PROGRAM STARTED ON                                moritz
 **    ****   ******    PROGRAM STARTED BY                                   ole
 ***** **    ** ** **   PROGRAM PROCESS ID                                148710
  **** **  *******  **  PROGRAM STARTED IN /home/ole/git/pao_ml_equivar/2H2O_MD/
                                           frame_0500

 CP2K| version string:                 CP2K version 2023.1 (Development Version)
 CP2K| source code revision number:                                  git:03b4147
 CP2K| cp2kflags: omp libint fftw3 libxc quip xsmm spglib libvori libbqb libtorc
 CP2K|            h
 CP2K| is freely available from                            https://www.cp2k.org/
 CP2K| Program compiled at                           Mi 01 Feb 2023 10:36:52 CET
 CP2K| Program compiled on                                                moritz
 CP2K| Program compiled for                                                local
 CP2K| Data directory path                               /home/ole/git/cp2k/data
 CP2K| Input file name                                            2H2O_pao44.inp

 GLOBAL| Force Environment number                                              1
 GLOBAL| Basis set file name                                        BASIS_MOLOPT
 GLOBAL| Potential file name                                      GTH_POTENTIALS
 GLOBAL| MM Potential file name                                     MM_POTENTIAL
 GLOBAL| Coordinate file name                                         coords.xyz
 GLOBAL| Method name                                                        CP2K
 GLOBAL| Project name                                                 2H2O_pao44
 GLOBAL| Run type                                                         ENERGY
 GLOBAL| FFT library                                                       FFTW3
 GLOBAL| Diagonalization library                                       ScaLAPACK
 GLOBAL| DGEMM library                                                      BLAS
 GLOBAL| Orthonormality check for eigenvectors                          DISABLED
 GLOBAL| Matrix multiplication library                                 ScaLAPACK
 GLOBAL| All-to-all communication in single precision                          F
 GLOBAL| FFTs using library dependent lengths                                  F
 GLOBAL| Grid backend                                                       AUTO
 GLOBAL| Global print level                                                  LOW
 GLOBAL| MPI I/O enabled                                                       T
 GLOBAL| Total number of message passing processes                             1
 GLOBAL| Number of threads for this process                                    1
 GLOBAL| This output is from process                                           0
 GLOBAL| Stack size for threads created by OpenMP (OMP_STACKSIZE)        default
 GLOBAL| CPU model name           AMD Ryzen Threadripper 3970X 32-Core Processor
 GLOBAL| CPUID                                                              1002
 GLOBAL| Compiled for CPUID                                                    0

 *** HINT in environment.F:884 :: The compiler target flags (generic) used ***
 *** to build this binary cannot exploit all extensions of this CPU model  ***
 *** (x86_avx2). Consider compiler target flags as part of FCFLAGS and     ***
 *** CFLAGS (ARCH file).                                                   ***


 MEMORY| system memory details [Kb]
 MEMORY|                        rank 0           min           max       average
 MEMORY| MemTotal            131773860     131773860     131773860     131773860
 MEMORY| MemFree             112799652     112799652     112799652     112799652
 MEMORY| Buffers                302624        302624        302624        302624
 MEMORY| Cached                7056636       7056636       7056636       7056636
 MEMORY| Slab                   780228        780228        780228        780228
 MEMORY| SReclaimable           332704        332704        332704        332704
 MEMORY| MemLikelyFree       120491616     120491616     120491616     120491616


 GENERATE|  Preliminary Number of Bonds generated:                             0
 GENERATE|  Achieved consistency in connectivity generation.

 *******************************************************************************
 *******************************************************************************
 **                                                                           **
 **     #####                         ##              ##                      **
 **    ##   ##            ##          ##              ##                      **
 **   ##     ##                       ##            ######                    **
 **   ##     ##  ##   ##  ##   #####  ##  ##   ####   ##    #####    #####    **
 **   ##     ##  ##   ##  ##  ##      ## ##   ##      ##   ##   ##  ##   ##   **
 **   ##  ## ##  ##   ##  ##  ##      ####     ###    ##   ######   ######    **
 **    ##  ###   ##   ##  ##  ##      ## ##      ##   ##   ##       ##        **
 **     #######   #####   ##   #####  ##  ##  ####    ##    #####   ##        **
 **           ##                                                    ##        **
 **                                                                           **
 **                                                ... make the atoms dance   **
 **                                                                           **
 **            Copyright (C) by CP2K developers group (2000-2023)             **
 **                      J. Chem. Phys. 152, 194103 (2020)                    **
 **                                                                           **
 *******************************************************************************


 TOTAL NUMBERS AND MAXIMUM NUMBERS

  Total number of            - Atomic kinds:                                   2
                             - Atoms:                                          6
                             - Shell sets:                                     6
                             - Shells:                                        22
                             - Primitive Cartesian functions:                 42
                             - Cartesian basis functions:                     48
                             - Spherical basis functions:                     46

  Maximum angular momentum of- Orbital basis functions:                        2
                             - Local part of the GTH pseudopotential:          2
                             - Non-local part of the GTH pseudopotential:      0

 ------------------------------ Linear scaling SCF -----------------------------
 eps_scf:                                                              0.100E-07
 eps_filter:                                                           0.100E-07
 mixing_fraction:                                                      0.450E+00
 max_scf:                                                                     25
 fixed chemical potential (mu)                                                 F
 has unit metric:                                                              F
 Computing inv(S):                                                             T
 Computing sqrt(S):                                                            T
 Computing S preconditioner                                                    F
 S sqrt method:                                                     NEWTONSCHULZ
 S sqrt order:                                                                 3
 Extrapolation order:                                                          1
 Use single precision matrices                                                 F
 S preconditioner type                                                      NONE
 Polarized Atomic Orbitals (PAO)                                               T
 Purification method                                   Trace resetting 4th order
 Cluster type                                                             ATOMIC
 Computing Chebyshev                                                       FALSE
 Using PAO                                                                     T
 -------------------------------------------------------------------------------

 
 PAO|                                  EPS_PAO                           0.5E-06
 PAO|                                  MIXING                            0.5E+00
 PAO|                                  MAX_PAO                              1500
 PAO|                                  MAX_CYCLES                           1000
 PAO|                                  PARAMETERIZATION              EQUIVARIANT
 PAO|                                  PRECONDITION                            F
 PAO|                                  REGULARIZATION                    0.0E+00
 PAO|                                  EPS_PGF                           0.1E-09
 PAO|                                  PENALTY_DISTANCE                  0.1E+00
 PAO|                                  PENALTY_STRENGTH                  0.5E-02
 PAO|                                  LINPOT_PRECONDITION_DELTA         0.0E+00
 PAO|                                  LINPOT_INITGUESS_DELT             0.0E+00
 PAO|                                  LINPOT_REGULARIZATION_DELTA       0.0E+00
 PAO|                                  LINPOT_REGULARIZATION_STRENGTH    0.0E+00
 PAO|                                  OPTIMIZER                              CG
 PAO|                                  CG_INIT_STEPS                           2
 PAO|                                  CG_RESET_LIMIT                    0.1E+00
 PAO|                                  CHECK_UNITARY_TOL                -0.1E+01
 PAO|                                  CHECK_GRADIENT_TOL               -0.1E+01
 PAO|                                  NUM_GRADIENT_ORDER                      2
 PAO|                                  NUM_GRADIENT_EPS                  0.1E-07
 PAO|                                  PRINT%RESTART%WRITE_CYCLES            100
 PAO|                                  RESTART_FILE 
 PAO|                                  PREOPT_DM_FILE 2H2O_ref_LS_DM_SPIN_1_RESTART.dm
 PAO|                                  MACHINE_LEARNING%METHOD       GAUSSIAN_PR
 PAO|                                  MACHINE_LEARNING%PRIOR               ZERO
 PAO|                                  MACHINE_LEARNING%DESCRIPTOR     POTENTIAL
 PAO|                                  MACHINE_LEARNING%TOLERANCE        0.1E-01
 PAO|                                  MACHINE_LEARNING%GP_NOISE_VAR     0.1E+00
 PAO|                                  MACHINE_LEARNING%GP_SCALE         0.5E-01
 

 Calculating atomic Fock matrix for atomic kind: O

 Electronic structure
    Total number of core electrons                                          2.00
    Total number of valence electrons                                       6.00
    Total number of electrons                                               8.00
    Multiplicity                                                   not specified
    S   [  2.00] 2.00
    P      4.00


 *******************************************************************************
                  Iteration          Convergence                     Energy [au]
 *******************************************************************************
                          1        0.708315                     -15.576645311500
                          2        0.608879                     -15.587933561584
                          3        0.102828E-01                 -15.656849565404
                          4        0.113889E-02                 -15.656866888140
                          5        0.434197E-03                 -15.656867072159
                          6        0.263771E-03                 -15.656867091904
                          7        0.478536E-06                 -15.656867103452

 Energy components [Hartree]           Total Energy ::          -15.656867103452
                                        Band Energy ::           -3.000198112285
                                     Kinetic Energy ::           11.759971203220
                                   Potential Energy ::          -27.416838306672
                                      Virial (-V/T) ::            2.331369510426
                                        Core Energy ::          -26.140716385623
                                          XC Energy ::           -3.154051012914
                                     Coulomb Energy ::           13.637900295084
                       Total Pseudopotential Energy ::          -37.935781716540
                       Local Pseudopotential Energy ::          -39.218907440693
                    Nonlocal Pseudopotential Energy ::            1.283125724153
                                        Confinement ::            0.350941276976

 Orbital energies  State     L     Occupation   Energy[a.u.]          Energy[eV]

                       1     0          2.000      -0.864471          -23.523463

                       1     1          4.000      -0.317814           -8.648154


 Total Electron Density at R=0:                                         0.000068

 Calculating atomic Fock matrix for atomic kind: H

 Electronic structure
    Total number of core electrons                                          0.00
    Total number of valence electrons                                       1.00
    Total number of electrons                                               1.00
    Multiplicity                                                   not specified
    S      1.00


 *******************************************************************************
                  Iteration          Convergence                     Energy [au]
 *******************************************************************************
                          1        0.437545E-02                  -0.424159432110
                          2        0.531356E-03                  -0.424178438213
                          3        0.259176E-06                  -0.424178722480

 Energy components [Hartree]           Total Energy ::           -0.424178722480
                                        Band Energy ::           -0.199015229016
                                     Kinetic Energy ::            0.464007633961
                                   Potential Energy ::           -0.888186356441
                                      Virial (-V/T) ::            1.914163240935
                                        Core Energy ::           -0.479160803564
                                          XC Energy ::           -0.244352904054
                                     Coulomb Energy ::            0.299334985138
                       Total Pseudopotential Energy ::           -0.962295316385
                       Local Pseudopotential Energy ::           -0.962295316385
                    Nonlocal Pseudopotential Energy ::            0.000000000000
                                        Confinement ::            0.191268788606

 Orbital energies  State     L     Occupation   Energy[a.u.]          Energy[eV]

                       1     0          1.000      -0.199015           -5.415480


 Total Electron Density at R=0:                                         0.242907
 PAO| Made initial guess for matrix_X with norm:   4.8989794855663558     

     Lanczos converged:  T threshold:   0.100E-02
     Est. extremal eigenvalues:    0.337E+01   0.115E+00
     Est. condition number :    0.293E+02

 Order=           3
     NS sqrt iter    1 1.00000000   0.823E+00       0.001       57.290
     NS sqrt iter    2 1.00000000   0.440E+00       0.001      104.644
     NS sqrt iter    3 1.00000000   0.170E+00       0.001      108.818
     NS sqrt iter    4 1.00000000   0.203E-01       0.001      109.329
     NS sqrt iter    5 1.00000000   0.512E-04       0.001       90.752
     Symmetrizing Results
     Final NS sqrt iter    5 1.00000000   0.354E-08

 PAO| Read restart DM 2H2O_ref_LS_DM_SPIN_1_RESTART.dm with checksum:    56.992657292462717     
 PAO| Quickstep energy from restart density:  -34.449287758953773     
 PAO| ======================= Iteration:         1 =============================

     Lanczos converged:  T threshold:   0.100E-02
     Est. extremal eigenvalues:    0.337E+01   0.115E+00
     Est. condition number :    0.293E+02

 Order=           3
     NS sqrt iter    1 1.00000000   0.823E+00       0.001       64.512
     NS sqrt iter    2 1.00000000   0.440E+00       0.001      110.592
     NS sqrt iter    3 1.00000000   0.170E+00       0.001      110.592
     NS sqrt iter    4 1.00000000   0.203E-01       0.001      110.592
     NS sqrt iter    5 1.00000000   0.512E-04       0.001       90.752
     Symmetrizing Results
     Final NS sqrt iter    5 1.00000000   0.354E-08

     Est. extremal eigenvalues     -0.91418     1.88171  converged:  T
     TRS4 it   1 1.00000000   0.884E+00       0.000       16.128   0.100E-07
     TRS4 it   2 1.00000000   0.690E+00       0.001       32.256   0.100E-07
     TRS4 it   3 1.00000000   0.496E+00       0.001       32.256   0.100E-07
     TRS4 it   4 1.00000000   0.310E+00       0.001       32.256   0.100E-07
     TRS4 it   5 1.00000000   0.156E+00       0.001       32.256   0.100E-07
     TRS4 it   6 1.00000000   0.505E-01       0.001       32.256   0.100E-07
     TRS4 it   7 1.00000000   0.731E-02       0.001       32.256   0.100E-07
     TRS4 it   8 1.00000000   0.212E-03       0.001       32.256   0.100E-07
     TRS4 it   9 1.00000000   0.200E-06       0.017        1.941   0.100E-07
     TRS4 it  10 1.00000000   0.180E-12       0.001       32.256   0.100E-07
     Final TRS4 iteration   10 1.00000000   0.180E-12
     Chemical potential (mu):      -0.06607
 
 PAO| energy:  -7.5762826716427218      penalty:   4.8687508994109325E-033
 PAO|CG| warming up with steepest descent
 PAO|CG| beta:    0.0000000000000000     
 PAO| norm of gradient:  0.77951431619007772     
 PAO|LS| adapt:  T F F
 PAO|LS| adapt: scan_steps:    0.0000000000000000        0.0000000000000000        0.0000000000000000     
 PAO|LS| adapt: energies:   -7.5762826716427218        0.0000000000000000        0.0000000000000000     
 PAO| ======================= Iteration:         2 =============================

     Lanczos converged:  T threshold:   0.100E-02
     Est. extremal eigenvalues:    0.328E+01   0.128E+00
     Est. condition number :    0.257E+02

 Order=           3
     NS sqrt iter    1 1.00000000   0.806E+00       0.001       64.512
     NS sqrt iter    2 1.00000000   0.425E+00       0.001      110.592
     NS sqrt iter    3 1.00000000   0.152E+00       0.001      110.592
     NS sqrt iter    4 1.00000000   0.140E-01       0.001      110.203
     NS sqrt iter    5 1.00000000   0.165E-04       0.001       82.944
     Symmetrizing Results
     Final NS sqrt iter    5 1.00000000   0.425E-09

     Est. extremal eigenvalues     -0.91779     1.82853  converged:  T
     TRS4 it   1 1.00000000   0.881E+00       0.000       16.128   0.100E-07
     TRS4 it   2 1.00000000   0.672E+00       0.001       32.256   0.100E-07
     TRS4 it   3 1.00000000   0.480E+00       0.001       32.256   0.100E-07
     TRS4 it   4 1.00000000   0.291E+00       0.001       32.256   0.100E-07
     TRS4 it   5 1.00000000   0.137E+00       0.001       32.256   0.100E-07
     TRS4 it   6 1.00000000   0.393E-01       0.001       32.256   0.100E-07
     TRS4 it   7 1.00000000   0.449E-02       0.001       32.256   0.100E-07
     TRS4 it   8 1.00000000   0.809E-04       0.001       32.256   0.100E-07
     TRS4 it   9 1.00000000   0.291E-07       0.001       32.256   0.100E-07
     Final TRS4 iteration    9 1.00000000   0.291E-07
     Chemical potential (mu):      -0.05475
 
 PAO| energy:  -7.6313131998947661      penalty:   2.2108301239931630E-008
 PAO|LS| adapt:  T T F
 PAO|LS| adapt: scan_steps:    0.0000000000000000       0.10000000000000001        0.0000000000000000     
 PAO|LS| adapt: energies:   -7.5762826716427218       -7.6313131998947661        0.0000000000000000     
 PAO| ======================= Iteration:         3 =============================

     Lanczos converged:  T threshold:   0.100E-02
     Est. extremal eigenvalues:    0.319E+01   0.139E+00
     Est. condition number :    0.229E+02

 Order=           3
     NS sqrt iter    1 1.00000000   0.788E+00       0.001       64.512
     NS sqrt iter    2 1.00000000   0.408E+00       0.001      110.592
     NS sqrt iter    3 1.00000000   0.135E+00       0.001      110.592
     NS sqrt iter    4 1.00000000   0.967E-02       0.001      109.965
     NS sqrt iter    5 1.00000000   0.552E-05       0.001       82.944
     Symmetrizing Results
     Final NS sqrt iter    5 1.00000000   0.482E-10

     Est. extremal eigenvalues     -0.92115     1.78593  converged:  T
     TRS4 it   1 1.00000000   0.878E+00       0.000       16.128   0.100E-07
     TRS4 it   2 1.00000000   0.655E+00       0.001       32.256   0.100E-07
     TRS4 it   3 1.00000000   0.465E+00       0.001       32.256   0.100E-07
     TRS4 it   4 1.00000000   0.272E+00       0.001       32.256   0.100E-07
     TRS4 it   5 1.00000000   0.119E+00       0.001       32.256   0.100E-07
     TRS4 it   6 1.00000000   0.296E-01       0.001       32.256   0.100E-07
     TRS4 it   7 1.00000000   0.257E-02       0.001       32.256   0.100E-07
     TRS4 it   8 1.00000000   0.265E-04       0.001       32.256   0.100E-07
     TRS4 it   9 1.00000000   0.313E-08       0.001       32.256   0.100E-07
     Final TRS4 iteration    9 1.00000000   0.313E-08
     Chemical potential (mu):      -0.04248
 
 PAO| energy:  -7.6741892235031823      penalty:   3.5373260570794956E-007
 PAO|LS| adapt:  T T F
 PAO|LS| adapt: scan_steps:    0.0000000000000000       0.20000000000000001        0.0000000000000000     
 PAO|LS| adapt: energies:   -7.5762826716427218       -7.6741892235031823        0.0000000000000000     
 PAO| ======================= Iteration:         4 =============================

     Lanczos converged:  T threshold:   0.100E-02
     Est. extremal eigenvalues:    0.299E+01   0.157E+00
     Est. condition number :    0.190E+02

 Order=           3
     NS sqrt iter    1 1.00000000   0.750E+00       0.001       64.512
     NS sqrt iter    2 1.00000000   0.373E+00       0.001      110.592
     NS sqrt iter    3 1.00000000   0.105E+00       0.001      110.592
     NS sqrt iter    4 1.00000000   0.470E-02       0.001      110.592
     NS sqrt iter    5 1.00000000   0.771E-06       0.001       82.944
     Symmetrizing Results
     Final NS sqrt iter    5 1.00000000   0.995E-12

     Est. extremal eigenvalues     -0.92630     1.72493  converged:  T
     TRS4 it   1 1.00000000   0.874E+00       0.000       16.128   0.100E-07
     TRS4 it   2 1.00000000   0.629E+00       0.001       32.256   0.100E-07
     TRS4 it   3 1.00000000   0.436E+00       0.001       32.256   0.100E-07
     TRS4 it   4 1.00000000   0.236E+00       0.001       32.256   0.100E-07
     TRS4 it   5 1.00000000   0.879E-01       0.001       32.256   0.100E-07
     TRS4 it   6 1.00000000   0.157E-01       0.001       32.256   0.100E-07
     TRS4 it   7 1.00000000   0.698E-03       0.001       32.256   0.100E-07
     TRS4 it   8 1.00000000   0.194E-05       0.001       32.256   0.100E-07
     TRS4 it   9 1.00000000   0.168E-10       0.001       32.256   0.100E-07
     Final TRS4 iteration    9 1.00000000   0.168E-10
     Chemical potential (mu):      -0.01545
 
 PAO| energy:  -7.7217295126789214      penalty:   5.6597199782812637E-006
 PAO|LS| Need extra step
 PAO|LS| adapt:  T T F
 PAO|LS| adapt: scan_steps:    0.0000000000000000       0.40000000000000002        0.0000000000000000     
 PAO|LS| adapt: energies:   -7.5762826716427218       -7.7217295126789214        0.0000000000000000     
 PAO| ======================= Iteration:         5 =============================

     Lanczos converged:  T threshold:   0.100E-02
     Est. extremal eigenvalues:    0.263E+01   0.184E+00
     Est. condition number :    0.143E+02

 Order=           3
     NS sqrt iter    1 1.00000000   0.684E+00       0.001       64.512
     NS sqrt iter    2 1.00000000   0.311E+00       0.001      110.592
     NS sqrt iter    3 1.00000000   0.646E-01       0.001      110.592
     NS sqrt iter    4 1.00000000   0.129E-02       0.001      110.592
     NS sqrt iter    5 1.00000000   0.215E-07       0.001       55.936
     Symmetrizing Results
     Final NS sqrt iter    5 1.00000000   0.966E-09

     Est. extremal eigenvalues     -0.92714     1.66016  converged:  T
     TRS4 it   1 1.00000000   0.872E+00       0.000       16.128   0.100E-07
     TRS4 it   2 1.00000000   0.594E+00       0.001       32.256   0.100E-07
     TRS4 it   3 1.00000000   0.390E+00       0.001       32.256   0.100E-07
     TRS4 it   4 1.00000000   0.181E+00       0.001       32.256   0.100E-07
     TRS4 it   5 1.00000000   0.483E-01       0.001       32.256   0.100E-07
     TRS4 it   6 1.00000000   0.427E-02       0.001       32.256   0.100E-07
     TRS4 it   7 1.00000000   0.426E-04       0.001       32.256   0.100E-07
     TRS4 it   8 1.00000000   0.547E-08       0.001       32.256   0.100E-07
     Final TRS4 iteration    8 1.00000000   0.547E-08
     Chemical potential (mu):       0.03477
 
 PAO| energy:  -7.6697726722771042      penalty:   9.0555505948136254E-005
 PAO|LS| Need extra step
 PAO|LS| adapt:  T T T
 PAO|LS| adapt: scan_steps:    0.0000000000000000       0.40000000000000002       0.80000000000000004     
 PAO|LS| adapt: energies:   -7.5762826716427218       -7.7217295126789214       -7.6697726722771042     
 PAO|LS| adapt: suggested step_size:   0.49471961206938042     
 PAO|LS| adapt: predicted energy  -7.7272640980492060     
 PAO| ======================= Iteration:         6 =============================

     Lanczos converged:  T threshold:   0.100E-02
     Est. extremal eigenvalues:    0.289E+01   0.165E+00
     Est. condition number :    0.176E+02

 Order=           3
     NS sqrt iter    1 1.00000000   0.732E+00       0.001       64.512
     NS sqrt iter    2 1.00000000   0.357E+00       0.001      110.592
     NS sqrt iter    3 1.00000000   0.935E-01       0.001      110.592
     NS sqrt iter    4 1.00000000   0.340E-02       0.001      110.592
     NS sqrt iter    5 1.00000000   0.323E-06       0.001       82.176
     Symmetrizing Results
     Final NS sqrt iter    5 1.00000000   0.203E-09

     Est. extremal eigenvalues     -0.92775     1.70430  converged:  T
     TRS4 it   1 1.00000000   0.874E+00       0.000       16.128   0.100E-07
     TRS4 it   2 1.00000000   0.619E+00       0.001       32.256   0.100E-07
     TRS4 it   3 1.00000000   0.424E+00       0.001       32.256   0.100E-07
     TRS4 it   4 1.00000000   0.221E+00       0.001       32.256   0.100E-07
     TRS4 it   5 1.00000000   0.758E-01       0.001       32.256   0.100E-07
     TRS4 it   6 1.00000000   0.114E-01       0.001       32.256   0.100E-07
     TRS4 it   7 1.00000000   0.354E-03       0.001       32.256   0.100E-07
     TRS4 it   8 1.00000000   0.487E-06       0.001       32.256   0.100E-07
     TRS4 it   9 1.00000000   0.106E-11       0.001       32.256   0.100E-07
     Final TRS4 iteration    9 1.00000000   0.106E-11
     Chemical potential (mu):      -0.00188
 
 PAO| energy:  -7.7265463915908983      penalty:   1.3243155038430994E-005
 PAO|CG| warming up with steepest descent
 PAO|CG| beta:    0.0000000000000000     
 PAO| norm of gradient:  0.41468334865513579     
 PAO| energy improvement: -0.15026371994817644     
 PAO| step      6                   -7.726546392  0.259E-01  0.495E+00     0.099
 PAO|LS| adapt:  T F F
 PAO|LS| adapt: scan_steps:    0.0000000000000000        0.0000000000000000        0.0000000000000000     
 PAO|LS| adapt: energies:   -7.7265463915908983        0.0000000000000000        0.0000000000000000     
 PAO| ======================= Iteration:         7 =============================

     Lanczos converged:  T threshold:   0.100E-02
     Est. extremal eigenvalues:    0.280E+01   0.178E+00
     Est. condition number :    0.158E+02

 Order=           3
     NS sqrt iter    1 1.00000000   0.714E+00       0.001       64.512
     NS sqrt iter    2 1.00000000   0.336E+00       0.001      109.938
     NS sqrt iter    3 1.00000000   0.784E-01       0.001      110.592
     NS sqrt iter    4 1.00000000   0.209E-02       0.001      110.592
     NS sqrt iter    5 1.00000000   0.842E-07       0.001       74.624
     Symmetrizing Results
     Final NS sqrt iter    5 1.00000000   0.981E-09

     Est. extremal eigenvalues     -0.92952     1.70223  converged:  T
     TRS4 it   1 1.00000000   0.875E+00       0.000       16.128   0.100E-07
     TRS4 it   2 1.00000000   0.620E+00       0.001       32.256   0.100E-07
     TRS4 it   3 1.00000000   0.427E+00       0.001       32.256   0.100E-07
     TRS4 it   4 1.00000000   0.224E+00       0.001       32.256   0.100E-07
     TRS4 it   5 1.00000000   0.781E-01       0.001       32.256   0.100E-07
     TRS4 it   6 1.00000000   0.119E-01       0.001       32.256   0.100E-07
     TRS4 it   7 1.00000000   0.368E-03       0.001       32.256   0.100E-07
     TRS4 it   8 1.00000000   0.512E-06       0.001       32.256   0.100E-07
     TRS4 it   9 1.00000000   0.116E-11       0.001       32.256   0.100E-07
     Final TRS4 iteration    9 1.00000000   0.116E-11
     Chemical potential (mu):      -0.00155
 
 PAO| energy:  -7.7210268172873455      penalty:   1.9898459172208406E-005
 PAO|LS| adapt:  T F T
 PAO|LS| adapt: scan_steps:    0.0000000000000000        0.0000000000000000       0.49471961206938042     
 PAO|LS| adapt: energies:   -7.7265463915908983        0.0000000000000000       -7.7210268172873455     
 PAO| ======================= Iteration:         8 =============================

     Lanczos converged:  T threshold:   0.100E-02
     Est. extremal eigenvalues:    0.285E+01   0.171E+00
     Est. condition number :    0.167E+02

 Order=           3
     NS sqrt iter    1 1.00000000   0.723E+00       0.001       64.372
     NS sqrt iter    2 1.00000000   0.347E+00       0.001      110.500
     NS sqrt iter    3 1.00000000   0.858E-01       0.001      110.592
     NS sqrt iter    4 1.00000000   0.268E-02       0.001      110.592
     NS sqrt iter    5 1.00000000   0.169E-06       0.001       79.744
     Symmetrizing Results
     Final NS sqrt iter    5 1.00000000   0.151E-08

     Est. extremal eigenvalues     -0.92974     1.70282  converged:  T
     TRS4 it   1 1.00000000   0.874E+00       0.000       16.128   0.100E-07
     TRS4 it   2 1.00000000   0.619E+00       0.001       32.256   0.100E-07
     TRS4 it   3 1.00000000   0.425E+00       0.001       32.256   0.100E-07
     TRS4 it   4 1.00000000   0.222E+00       0.001       32.256   0.100E-07
     TRS4 it   5 1.00000000   0.767E-01       0.001       32.256   0.100E-07
     TRS4 it   6 1.00000000   0.117E-01       0.001       32.256   0.100E-07
     TRS4 it   7 1.00000000   0.372E-03       0.001       32.256   0.100E-07
     TRS4 it   8 1.00000000   0.534E-06       0.001       32.256   0.100E-07
     TRS4 it   9 1.00000000   0.127E-11       0.001       32.256   0.100E-07
     Final TRS4 iteration    9 1.00000000   0.127E-11
     Chemical potential (mu):      -0.00230
 
 PAO| energy:  -7.7461891876309750      penalty:   1.4323614080986465E-005
 PAO|LS| adapt:  T T T
 PAO|LS| adapt: scan_steps:    0.0000000000000000       0.24735980603469021       0.49471961206938042     
 PAO|LS| adapt: energies:   -7.7265463915908983       -7.7461891876309750       -7.7210268172873455     
 PAO|LS| adapt: suggested step_size:   0.23212360740718790     
 PAO|LS| adapt: predicted energy  -7.7462741825739450     
 PAO| ======================= Iteration:         9 =============================

     Lanczos converged:  T threshold:   0.100E-02
     Est. extremal eigenvalues:    0.285E+01   0.171E+00
     Est. condition number :    0.167E+02

 Order=           3
     NS sqrt iter    1 1.00000000   0.724E+00       0.001       64.512
     NS sqrt iter    2 1.00000000   0.347E+00       0.001      110.592
     NS sqrt iter    3 1.00000000   0.862E-01       0.001      110.592
     NS sqrt iter    4 1.00000000   0.272E-02       0.001      110.592
     NS sqrt iter    5 1.00000000   0.176E-06       0.001       80.384
     Symmetrizing Results
     Final NS sqrt iter    5 1.00000000   0.910E-09

     Est. extremal eigenvalues     -0.92968     1.70288  converged:  T
     TRS4 it   1 1.00000000   0.874E+00       0.000       16.128   0.100E-07
     TRS4 it   2 1.00000000   0.619E+00       0.001       32.256   0.100E-07
     TRS4 it   3 1.00000000   0.425E+00       0.001       32.256   0.100E-07
     TRS4 it   4 1.00000000   0.222E+00       0.001       32.256   0.100E-07
     TRS4 it   5 1.00000000   0.767E-01       0.001       32.256   0.100E-07
     TRS4 it   6 1.00000000   0.117E-01       0.001       32.256   0.100E-07
     TRS4 it   7 1.00000000   0.372E-03       0.001       32.256   0.100E-07
     TRS4 it   8 1.00000000   0.533E-06       0.001       32.256   0.100E-07
     TRS4 it   9 1.00000000   0.127E-11       0.001       32.256   0.100E-07
     Final TRS4 iteration    9 1.00000000   0.127E-11
     Chemical potential (mu):      -0.00232
 
 PAO| energy:  -7.7462976531984973      penalty:   1.4163623787709540E-005
 PAO|CG| trace_G_new    3.4067729667900545E-002
 PAO|CG| trace_G_prev   0.17196227965183691     
 PAO|CG| trace_G_mix   -1.4943430987701175E-003
 PAO|CG| trace_D   0.17196227965183691     
 PAO|CG| trace_D_Gnew   1.4943430987701175E-003
 PAO|CG| beta:   0.20680158950364780     
 PAO| norm of gradient:  0.18457445562130353     
 PAO| energy improvement:  -1.9751261607598991E-002
 PAO| step      9                   -7.746297653  0.115E-01  0.232E+00     0.052
 PAO|LS| adapt:  T F F
 PAO|LS| adapt: scan_steps:    0.0000000000000000        0.0000000000000000        0.0000000000000000     
 PAO|LS| adapt: energies:   -7.7462976531984973        0.0000000000000000        0.0000000000000000     
 PAO| ======================= Iteration:        10 =============================

     Lanczos converged:  T threshold:   0.100E-02
     Est. extremal eigenvalues:    0.282E+01   0.175E+00
     Est. condition number :    0.160E+02

 Order=           3
     NS sqrt iter    1 1.00000000   0.716E+00       0.001       64.512
     NS sqrt iter    2 1.00000000   0.339E+00       0.001      110.592
     NS sqrt iter    3 1.00000000   0.808E-01       0.001      110.592
     NS sqrt iter    4 1.00000000   0.227E-02       0.001      110.592
     NS sqrt iter    5 1.00000000   0.104E-06       0.001       76.032
     Symmetrizing Results
     Final NS sqrt iter    5 1.00000000   0.124E-08

     Est. extremal eigenvalues     -0.93042     1.70563  converged:  T
     TRS4 it   1 1.00000000   0.875E+00       0.000       16.128   0.100E-07
     TRS4 it   2 1.00000000   0.620E+00       0.001       32.256   0.100E-07
     TRS4 it   3 1.00000000   0.425E+00       0.001       32.256   0.100E-07
     TRS4 it   4 1.00000000   0.221E+00       0.001       32.256   0.100E-07
     TRS4 it   5 1.00000000   0.756E-01       0.001       32.256   0.100E-07
     TRS4 it   6 1.00000000   0.113E-01       0.001       32.256   0.100E-07
     TRS4 it   7 1.00000000   0.340E-03       0.001       32.256   0.100E-07
     TRS4 it   8 1.00000000   0.439E-06       0.001       32.256   0.100E-07
     TRS4 it   9 1.00000000   0.853E-12       0.001       32.256   0.100E-07
     Final TRS4 iteration    9 1.00000000   0.853E-12
     Chemical potential (mu):       0.00037
 
 PAO| energy:  -7.7509102449156355      penalty:   1.4647239005722408E-005
 PAO|LS| adapt:  T T F
 PAO|LS| adapt: scan_steps:    0.0000000000000000       0.23212360740718790        0.0000000000000000     
 PAO|LS| adapt: energies:   -7.7462976531984973       -7.7509102449156355        0.0000000000000000     
 PAO| ======================= Iteration:        11 =============================

     Lanczos converged:  T threshold:   0.100E-02
     Est. extremal eigenvalues:    0.278E+01   0.180E+00
     Est. condition number :    0.154E+02

 Order=           3
     NS sqrt iter    1 1.00000000   0.708E+00       0.001       58.401
     NS sqrt iter    2 1.00000000   0.331E+00       0.001       98.530
     NS sqrt iter    3 1.00000000   0.757E-01       0.017        6.437
     NS sqrt iter    4 1.00000000   0.188E-02       0.001       99.710
     NS sqrt iter    5 1.00000000   0.607E-07       0.001       67.100
     Symmetrizing Results
     Final NS sqrt iter    5 1.00000000   0.508E-09

     Est. extremal eigenvalues     -0.93037     1.70954  converged:  T
     TRS4 it   1 1.00000000   0.876E+00       0.000       16.128   0.100E-07
     TRS4 it   2 1.00000000   0.621E+00       0.001       32.256   0.100E-07
     TRS4 it   3 1.00000000   0.425E+00       0.001       32.256   0.100E-07
     TRS4 it   4 1.00000000   0.220E+00       0.001       32.256   0.100E-07
     TRS4 it   5 1.00000000   0.745E-01       0.001       32.256   0.100E-07
     TRS4 it   6 1.00000000   0.109E-01       0.001       32.256   0.100E-07
     TRS4 it   7 1.00000000   0.311E-03       0.001       32.256   0.100E-07
     TRS4 it   8 1.00000000   0.360E-06       0.001       32.256   0.100E-07
     TRS4 it   9 1.00000000   0.571E-12       0.001       32.256   0.100E-07
     Final TRS4 iteration    9 1.00000000   0.571E-12
     Chemical potential (mu):       0.00317
 
 PAO| energy:  -7.7492987289663695      penalty:   1.5757387165856848E-005
 PAO|LS| adapt:  T T T
 PAO|LS| adapt: scan_steps:    0.0000000000000000       0.23212360740718790       0.46424721481437581     
 PAO|LS| adapt: energies:   -7.7462976531984973       -7.7509102449156355       -7.7492987289663695     
 PAO|LS| adapt: suggested step_size:   0.28808508579716935     
 PAO|LS| adapt: predicted energy  -7.7510911233693678     
 PAO| ======================= Iteration:        12 =============================

     Lanczos converged:  T threshold:   0.100E-02
     Est. extremal eigenvalues:    0.281E+01   0.177E+00
     Est. condition number :    0.159E+02

 Order=           3
     NS sqrt iter    1 1.00000000   0.714E+00       0.017        3.758
     NS sqrt iter    2 1.00000000   0.337E+00       0.001       97.319
     NS sqrt iter    3 1.00000000   0.796E-01       0.001       97.285
     NS sqrt iter    4 1.00000000   0.217E-02       0.001      101.054
     NS sqrt iter    5 1.00000000   0.913E-07       0.001       69.085
     Symmetrizing Results
     Final NS sqrt iter    5 1.00000000   0.101E-08

     Est. extremal eigenvalues     -0.93047     1.70647  converged:  T
     TRS4 it   1 1.00000000   0.875E+00       0.000       16.128   0.100E-07
     TRS4 it   2 1.00000000   0.620E+00       0.001       32.256   0.100E-07
     TRS4 it   3 1.00000000   0.425E+00       0.001       32.256   0.100E-07
     TRS4 it   4 1.00000000   0.220E+00       0.001       32.256   0.100E-07
     TRS4 it   5 1.00000000   0.753E-01       0.001       32.256   0.100E-07
     TRS4 it   6 1.00000000   0.112E-01       0.001       32.256   0.100E-07
     TRS4 it   7 1.00000000   0.332E-03       0.001       32.256   0.100E-07
     TRS4 it   8 1.00000000   0.418E-06       0.001       32.256   0.100E-07
     TRS4 it   9 1.00000000   0.775E-12       0.001       32.256   0.100E-07
     Final TRS4 iteration    9 1.00000000   0.775E-12
     Chemical potential (mu):       0.00104
 
 PAO| energy:  -7.7510780080452433      penalty:   1.4851588985442128E-005
 PAO|CG| trace_G_new    1.0872087707888729E-002
 PAO|CG| trace_G_prev    3.4067729667900545E-002
 PAO|CG| trace_G_mix   -3.9734668627490607E-004
 PAO|CG| trace_D    4.0803957785913468E-002
 PAO|CG| trace_D_Gnew   2.0669720146808965E-004
 PAO|CG| beta:   0.33079499291618408     
 PAO| norm of gradient:  0.10426930376620307     
 PAO| energy improvement:  -4.7803548467459933E-003
 PAO| step     12                   -7.751078008  0.652E-02  0.288E+00     0.106
 PAO|LS| adapt:  T F F
 PAO|LS| adapt: scan_steps:    0.0000000000000000        0.0000000000000000        0.0000000000000000     
 PAO|LS| adapt: energies:   -7.7510780080452433        0.0000000000000000        0.0000000000000000     
 PAO| ======================= Iteration:        13 =============================

     Lanczos converged:  T threshold:   0.100E-02
     Est. extremal eigenvalues:    0.277E+01   0.181E+00
     Est. condition number :    0.153E+02

 Order=           3
     NS sqrt iter    1 1.00000000   0.707E+00       0.001       58.113
     NS sqrt iter    2 1.00000000   0.330E+00       0.001       97.351
     NS sqrt iter    3 1.00000000   0.753E-01       0.001       98.599
     NS sqrt iter    4 1.00000000   0.185E-02       0.001       98.771
     NS sqrt iter    5 1.00000000   0.581E-07       0.001       65.078
     Symmetrizing Results
     Final NS sqrt iter    5 1.00000000   0.515E-09

     Est. extremal eigenvalues     -0.93087     1.69989  converged:  T
     TRS4 it   1 1.00000000   0.874E+00       0.000       16.128   0.100E-07
     TRS4 it   2 1.00000000   0.617E+00       0.013        2.544   0.100E-07
     TRS4 it   3 1.00000000   0.421E+00       0.001       32.256   0.100E-07
     TRS4 it   4 1.00000000   0.216E+00       0.001       32.256   0.100E-07
     TRS4 it   5 1.00000000   0.719E-01       0.001       32.256   0.100E-07
     TRS4 it   6 1.00000000   0.101E-01       0.001       32.256   0.100E-07
     TRS4 it   7 1.00000000   0.269E-03       0.001       32.256   0.100E-07
     TRS4 it   8 1.00000000   0.268E-06       0.001       32.256   0.100E-07
     TRS4 it   9 1.00000000   0.317E-12       0.001       32.256   0.100E-07
     Final TRS4 iteration    9 1.00000000   0.317E-12
     Chemical potential (mu):       0.00526
 
 PAO| energy:  -7.7529432350308261      penalty:   1.5076470135358818E-005
 PAO|LS| adapt:  T T F
 PAO|LS| adapt: scan_steps:    0.0000000000000000       0.28808508579716935        0.0000000000000000     
 PAO|LS| adapt: energies:   -7.7510780080452433       -7.7529432350308261        0.0000000000000000     
 PAO| ======================= Iteration:        14 =============================

     Lanczos converged:  T threshold:   0.100E-02
     Est. extremal eigenvalues:    0.274E+01   0.185E+00
     Est. condition number :    0.148E+02

 Order=           3
     NS sqrt iter    1 1.00000000   0.701E+00       0.001       64.369
     NS sqrt iter    2 1.00000000   0.324E+00       0.001      110.190
     NS sqrt iter    3 1.00000000   0.713E-01       0.001      110.589
     NS sqrt iter    4 1.00000000   0.158E-02       0.001      105.886
     NS sqrt iter    5 1.00000000   0.369E-07       0.001       58.843
     Symmetrizing Results
     Final NS sqrt iter    5 1.00000000   0.402E-08

     Est. extremal eigenvalues     -0.93087     1.69361  converged:  T
     TRS4 it   1 1.00000000   0.874E+00       0.016        0.981   0.100E-07
     TRS4 it   2 1.00000000   0.614E+00       0.001       32.256   0.100E-07
     TRS4 it   3 1.00000000   0.417E+00       0.001       32.256   0.100E-07
     TRS4 it   4 1.00000000   0.211E+00       0.001       32.256   0.100E-07
     TRS4 it   5 1.00000000   0.686E-01       0.001       32.256   0.100E-07
     TRS4 it   6 1.00000000   0.915E-02       0.001       32.256   0.100E-07
     TRS4 it   7 1.00000000   0.217E-03       0.001       32.256   0.100E-07
     TRS4 it   8 1.00000000   0.172E-06       0.001       32.256   0.100E-07
     TRS4 it   9 1.00000000   0.129E-12       0.001       32.256   0.100E-07
     Final TRS4 iteration    9 1.00000000   0.129E-12
     Chemical potential (mu):       0.00944
 
 PAO| energy:  -7.7523526137829100      penalty:   1.5721309373105270E-005
 PAO|LS| adapt:  T T T
 PAO|LS| adapt: scan_steps:    0.0000000000000000       0.28808508579716935       0.57617017159433870     
 PAO|LS| adapt: energies:   -7.7510780080452433       -7.7529432350308261       -7.7523526137829100     
 PAO|LS| adapt: suggested step_size:   0.36284436820814447     
 PAO|LS| adapt: predicted energy  -7.7530259264083066     
 PAO| ======================= Iteration:        15 =============================

     Lanczos converged:  T threshold:   0.100E-02
     Est. extremal eigenvalues:    0.277E+01   0.182E+00
     Est. condition number :    0.152E+02

 Order=           3
     NS sqrt iter    1 1.00000000   0.705E+00       0.001       57.705
     NS sqrt iter    2 1.00000000   0.329E+00       0.001       98.062
     NS sqrt iter    3 1.00000000   0.742E-01       0.001       97.606
     NS sqrt iter    4 1.00000000   0.178E-02       0.001      100.619
     NS sqrt iter    5 1.00000000   0.517E-07       0.001       64.925
     Symmetrizing Results
     Final NS sqrt iter    5 1.00000000   0.479E-09

     Est. extremal eigenvalues     -0.93091     1.69823  converged:  T
     TRS4 it   1 1.00000000   0.874E+00       0.000       16.128   0.100E-07
     TRS4 it   2 1.00000000   0.616E+00       0.001       32.256   0.100E-07
     TRS4 it   3 1.00000000   0.420E+00       0.001       32.256   0.100E-07
     TRS4 it   4 1.00000000   0.215E+00       0.017        1.925   0.100E-07
     TRS4 it   5 1.00000000   0.710E-01       0.001       32.256   0.100E-07
     TRS4 it   6 1.00000000   0.986E-02       0.001       32.256   0.100E-07
     TRS4 it   7 1.00000000   0.254E-03       0.001       32.256   0.100E-07
     TRS4 it   8 1.00000000   0.239E-06       0.001       32.256   0.100E-07
     TRS4 it   9 1.00000000   0.252E-12       0.001       32.256   0.100E-07
     Final TRS4 iteration    9 1.00000000   0.252E-12
     Chemical potential (mu):       0.00635
 
 PAO| energy:  -7.7530235688064479      penalty:   1.5201184892897346E-005
 PAO|CG| trace_G_new    2.2312544162483390E-003
 PAO|CG| trace_G_prev    1.0872087707888729E-002
 PAO|CG| trace_G_mix    6.8163099338188762E-005
 PAO|CG| trace_D    1.5200325346724450E-002
 PAO|CG| trace_D_Gnew   2.7102099470095259E-005
 PAO|CG| beta:   0.19895822909344474     
 PAO| norm of gradient:   4.7236155815734399E-002
 PAO| energy improvement:  -1.9455607612046677E-003
 PAO| step     15                   -7.753023569  0.295E-02  0.363E+00     0.118
 PAO|LS| adapt:  T F F
 PAO|LS| adapt: scan_steps:    0.0000000000000000        0.0000000000000000        0.0000000000000000     
 PAO|LS| adapt: energies:   -7.7530235688064479        0.0000000000000000        0.0000000000000000     
 PAO| ======================= Iteration:        16 =============================

     Lanczos converged:  T threshold:   0.100E-02
     Est. extremal eigenvalues:    0.276E+01   0.182E+00
     Est. condition number :    0.151E+02

 Order=           3
     NS sqrt iter    1 1.00000000   0.704E+00       0.001       57.830
     NS sqrt iter    2 1.00000000   0.327E+00       0.001      100.374
     NS sqrt iter    3 1.00000000   0.737E-01       0.001       98.497
     NS sqrt iter    4 1.00000000   0.174E-02       0.017        6.427
     NS sqrt iter    5 1.00000000   0.483E-07       0.001       63.052
     Symmetrizing Results
     Final NS sqrt iter    5 1.00000000   0.389E-09

     Est. extremal eigenvalues     -0.93093     1.69835  converged:  T
     TRS4 it   1 1.00000000   0.875E+00       0.000       16.128   0.100E-07
     TRS4 it   2 1.00000000   0.616E+00       0.001       32.256   0.100E-07
     TRS4 it   3 1.00000000   0.419E+00       0.001       32.256   0.100E-07
     TRS4 it   4 1.00000000   0.213E+00       0.001       32.256   0.100E-07
     TRS4 it   5 1.00000000   0.701E-01       0.001       32.256   0.100E-07
     TRS4 it   6 1.00000000   0.962E-02       0.001       32.256   0.100E-07
     TRS4 it   7 1.00000000   0.243E-03       0.001       32.256   0.100E-07
     TRS4 it   8 1.00000000   0.219E-06       0.001       32.256   0.100E-07
     TRS4 it   9 1.00000000   0.212E-12       0.001       32.256   0.100E-07
     Final TRS4 iteration    9 1.00000000   0.212E-12
     Chemical potential (mu):       0.00709
 
 PAO| energy:  -7.7531575170697007      penalty:   1.4935034219336386E-005
 PAO|LS| adapt:  T T F
 PAO|LS| adapt: scan_steps:    0.0000000000000000       0.36284436820814447        0.0000000000000000     
 PAO|LS| adapt: energies:   -7.7530235688064479       -7.7531575170697007        0.0000000000000000     
 PAO| ======================= Iteration:        17 =============================

     Lanczos converged:  T threshold:   0.100E-02
     Est. extremal eigenvalues:    0.275E+01   0.183E+00
     Est. condition number :    0.151E+02

 Order=           3
     NS sqrt iter    1 1.00000000   0.702E+00       0.001       57.046
     NS sqrt iter    2 1.00000000   0.326E+00       0.001       96.659
     NS sqrt iter    3 1.00000000   0.731E-01       0.001      100.675
     NS sqrt iter    4 1.00000000   0.170E-02       0.001       99.002
     NS sqrt iter    5 1.00000000   0.452E-07       0.001       63.224
     Symmetrizing Results
     Final NS sqrt iter    5 1.00000000   0.382E-09

     Est. extremal eigenvalues     -0.93087     1.69853  converged:  T
     TRS4 it   1 1.00000000   0.875E+00       0.000       16.128   0.100E-07
     TRS4 it   2 1.00000000   0.615E+00       0.001       32.256   0.100E-07
     TRS4 it   3 1.00000000   0.418E+00       0.001       32.256   0.100E-07
     TRS4 it   4 1.00000000   0.212E+00       0.001       32.256   0.100E-07
     TRS4 it   5 1.00000000   0.692E-01       0.001       32.256   0.100E-07
     TRS4 it   6 1.00000000   0.938E-02       0.001       32.256   0.100E-07
     TRS4 it   7 1.00000000   0.232E-03       0.001       32.256   0.100E-07
     TRS4 it   8 1.00000000   0.201E-06       0.001       32.256   0.100E-07
     TRS4 it   9 1.00000000   0.178E-12       0.001       32.256   0.100E-07
     Final TRS4 iteration    9 1.00000000   0.178E-12
     Chemical potential (mu):       0.00782
 
 PAO| energy:  -7.7519404357399253      penalty:   1.4770028082515984E-005
 PAO|LS| adapt:  T T T
 PAO|LS| adapt: scan_steps:    0.0000000000000000       0.36284436820814447       0.72568873641628895     
 PAO|LS| adapt: energies:   -7.7530235688064479       -7.7531575170697007       -7.7519404357399253     
 PAO|LS| adapt: suggested step_size:   0.21739650561659116     
 PAO|LS| adapt: predicted energy  -7.7532660618090095     
 PAO| ======================= Iteration:        18 =============================

     Lanczos converged:  T threshold:   0.100E-02
     Est. extremal eigenvalues:    0.276E+01   0.182E+00
     Est. condition number :    0.152E+02

 Order=           3
     NS sqrt iter    1 1.00000000   0.704E+00       0.001       58.475
     NS sqrt iter    2 1.00000000   0.328E+00       0.001       98.351
     NS sqrt iter    3 1.00000000   0.739E-01       0.001       99.404
     NS sqrt iter    4 1.00000000   0.175E-02       0.001       97.540
     NS sqrt iter    5 1.00000000   0.496E-07       0.001       63.671
     Symmetrizing Results
     Final NS sqrt iter    5 1.00000000   0.379E-09

     Est. extremal eigenvalues     -0.93093     1.69830  converged:  T
     TRS4 it   1 1.00000000   0.874E+00       0.000       16.128   0.100E-07
     TRS4 it   2 1.00000000   0.616E+00       0.001       32.256   0.100E-07
     TRS4 it   3 1.00000000   0.419E+00       0.001       32.256   0.100E-07
     TRS4 it   4 1.00000000   0.214E+00       0.001       32.256   0.100E-07
     TRS4 it   5 1.00000000   0.704E-01       0.001       32.256   0.100E-07
     TRS4 it   6 1.00000000   0.971E-02       0.001       32.256   0.100E-07
     TRS4 it   7 1.00000000   0.247E-03       0.001       32.256   0.100E-07
     TRS4 it   8 1.00000000   0.227E-06       0.001       32.256   0.100E-07
     TRS4 it   9 1.00000000   0.227E-12       0.001       32.256   0.100E-07
     Final TRS4 iteration    9 1.00000000   0.227E-12
     Chemical potential (mu):       0.00679
 
 PAO| energy:  -7.7532657745637064      penalty:   1.5029717516244954E-005
 PAO|CG| trace_G_new    6.7163179046758397E-004
 PAO|CG| trace_G_prev    2.2312544162483390E-003
 PAO|CG| trace_G_mix    7.2096659356758810E-007
 PAO|CG| trace_D    2.8221654527099379E-003
 PAO|CG| trace_D_Gnew  -1.3229863684699834E-006
 PAO|CG| beta:   0.30068772928283760     
 PAO| norm of gradient:   2.5915859824971733E-002
 PAO| energy improvement:  -2.4220575725841798E-004
 PAO| step     18                   -7.753265775  0.162E-02  0.217E+00     0.075
 PAO|LS| adapt:  T F F
 PAO|LS| adapt: scan_steps:    0.0000000000000000        0.0000000000000000        0.0000000000000000     
 PAO|LS| adapt: energies:   -7.7532657745637064        0.0000000000000000        0.0000000000000000     
 PAO| ======================= Iteration:        19 =============================

     Lanczos converged:  T threshold:   0.100E-02
     Est. extremal eigenvalues:    0.276E+01   0.182E+00
     Est. condition number :    0.152E+02

 Order=           3
     NS sqrt iter    1 1.00000000   0.704E+00       0.001       58.852
     NS sqrt iter    2 1.00000000   0.328E+00       0.001       98.440
     NS sqrt iter    3 1.00000000   0.741E-01       0.001       98.021
     NS sqrt iter    4 1.00000000   0.176E-02       0.001       98.547
     NS sqrt iter    5 1.00000000   0.504E-07       0.001       66.424
     Symmetrizing Results
     Final NS sqrt iter    5 1.00000000   0.476E-09

     Est. extremal eigenvalues     -0.93093     1.69871  converged:  T
     TRS4 it   1 1.00000000   0.875E+00       0.000       16.128   0.100E-07
     TRS4 it   2 1.00000000   0.616E+00       0.001       32.256   0.100E-07
     TRS4 it   3 1.00000000   0.419E+00       0.001       32.256   0.100E-07
     TRS4 it   4 1.00000000   0.214E+00       0.001       32.256   0.100E-07
     TRS4 it   5 1.00000000   0.704E-01       0.001       32.256   0.100E-07
     TRS4 it   6 1.00000000   0.972E-02       0.001       32.256   0.100E-07
     TRS4 it   7 1.00000000   0.248E-03       0.001       32.256   0.100E-07
     TRS4 it   8 1.00000000   0.230E-06       0.001       32.256   0.100E-07
     TRS4 it   9 1.00000000   0.234E-12       0.001       32.256   0.100E-07
     Final TRS4 iteration    9 1.00000000   0.234E-12
     Chemical potential (mu):       0.00656
 
 PAO| energy:  -7.7533755488489762      penalty:   1.4723323094276889E-005
 PAO|LS| adapt:  T T F
 PAO|LS| adapt: scan_steps:    0.0000000000000000       0.21739650561659116        0.0000000000000000     
 PAO|LS| adapt: energies:   -7.7532657745637064       -7.7533755488489762        0.0000000000000000     
 PAO| ======================= Iteration:        20 =============================

     Lanczos converged:  T threshold:   0.100E-02
     Est. extremal eigenvalues:    0.276E+01   0.182E+00
     Est. condition number :    0.152E+02

 Order=           3
     NS sqrt iter    1 1.00000000   0.704E+00       0.001       57.858
     NS sqrt iter    2 1.00000000   0.328E+00       0.001       97.405
     NS sqrt iter    3 1.00000000   0.743E-01       0.001       97.434
     NS sqrt iter    4 1.00000000   0.178E-02       0.001       95.887
     NS sqrt iter    5 1.00000000   0.512E-07       0.001       63.607
     Symmetrizing Results
     Final NS sqrt iter    5 1.00000000   0.487E-09

     Est. extremal eigenvalues     -0.93093     1.69913  converged:  T
     TRS4 it   1 1.00000000   0.875E+00       0.000       16.128   0.100E-07
     TRS4 it   2 1.00000000   0.616E+00       0.001       32.256   0.100E-07
     TRS4 it   3 1.00000000   0.419E+00       0.001       32.256   0.100E-07
     TRS4 it   4 1.00000000   0.214E+00       0.001       32.256   0.100E-07
     TRS4 it   5 1.00000000   0.703E-01       0.001       32.256   0.100E-07
     TRS4 it   6 1.00000000   0.972E-02       0.001       32.256   0.100E-07
     TRS4 it   7 1.00000000   0.250E-03       0.001       32.256   0.100E-07
     TRS4 it   8 1.00000000   0.234E-06       0.001       32.256   0.100E-07
     TRS4 it   9 1.00000000   0.243E-12       0.001       32.256   0.100E-07
     Final TRS4 iteration    9 1.00000000   0.243E-12
     Chemical potential (mu):       0.00631
 
 PAO| energy:  -7.7534123234717063      penalty:   1.4429782618628244E-005
 PAO|LS| adapt:  T T F
 PAO|LS| adapt: scan_steps:    0.0000000000000000       0.43479301123318231        0.0000000000000000     
 PAO|LS| adapt: energies:   -7.7532657745637064       -7.7534123234717063        0.0000000000000000     
 PAO| ======================= Iteration:        21 =============================

     Lanczos converged:  T threshold:   0.100E-02
     Est. extremal eigenvalues:    0.276E+01   0.181E+00
     Est. condition number :    0.152E+02

 Order=           3
     NS sqrt iter    1 1.00000000   0.704E+00       0.001       58.467
     NS sqrt iter    2 1.00000000   0.329E+00       0.001       97.911
     NS sqrt iter    3 1.00000000   0.748E-01       0.001       98.703
     NS sqrt iter    4 1.00000000   0.180E-02       0.001       99.320
     NS sqrt iter    5 1.00000000   0.529E-07       0.001       64.646
     Symmetrizing Results
     Final NS sqrt iter    5 1.00000000   0.511E-09

     Est. extremal eigenvalues     -0.93092     1.69998  converged:  T
     TRS4 it   1 1.00000000   0.875E+00       0.000       16.128   0.100E-07
     TRS4 it   2 1.00000000   0.616E+00       0.001       32.256   0.100E-07
     TRS4 it   3 1.00000000   0.419E+00       0.001       32.256   0.100E-07
     TRS4 it   4 1.00000000   0.213E+00       0.001       32.256   0.100E-07
     TRS4 it   5 1.00000000   0.702E-01       0.001       32.256   0.100E-07
     TRS4 it   6 1.00000000   0.972E-02       0.001       32.256   0.100E-07
     TRS4 it   7 1.00000000   0.252E-03       0.001       32.256   0.100E-07
     TRS4 it   8 1.00000000   0.241E-06       0.001       32.256   0.100E-07
     TRS4 it   9 1.00000000   0.259E-12       0.001       32.256   0.100E-07
     Final TRS4 iteration    9 1.00000000   0.259E-12
     Chemical potential (mu):       0.00583
 
 PAO| energy:  -7.7532648154029395      penalty:   1.3880547394186857E-005
 PAO|LS| Need extra step
 PAO|LS| adapt:  T T T
 PAO|LS| adapt: scan_steps:    0.0000000000000000       0.43479301123318231       0.86958602246636463     
 PAO|LS| adapt: energies:   -7.7532657745637064       -7.7534123234717063       -7.7532648154029395     
 PAO|LS| adapt: suggested step_size:   0.43408390308236705     
 PAO|LS| adapt: predicted energy  -7.7534123238627828     
 PAO| ======================= Iteration:        22 =============================

     Lanczos converged:  T threshold:   0.100E-02
     Est. extremal eigenvalues:    0.276E+01   0.182E+00
     Est. condition number :    0.152E+02

 Order=           3
     NS sqrt iter    1 1.00000000   0.704E+00       0.001       57.370
     NS sqrt iter    2 1.00000000   0.328E+00       0.001       97.970
     NS sqrt iter    3 1.00000000   0.743E-01       0.001       98.212
     NS sqrt iter    4 1.00000000   0.178E-02       0.001       95.819
     NS sqrt iter    5 1.00000000   0.512E-07       0.001       64.253
     Symmetrizing Results
     Final NS sqrt iter    5 1.00000000   0.487E-09

     Est. extremal eigenvalues     -0.93093     1.69913  converged:  T
     TRS4 it   1 1.00000000   0.875E+00       0.000       16.128   0.100E-07
     TRS4 it   2 1.00000000   0.616E+00       0.001       32.256   0.100E-07
     TRS4 it   3 1.00000000   0.419E+00       0.001       32.256   0.100E-07
     TRS4 it   4 1.00000000   0.214E+00       0.001       32.256   0.100E-07
     TRS4 it   5 1.00000000   0.703E-01       0.001       32.256   0.100E-07
     TRS4 it   6 1.00000000   0.972E-02       0.001       32.256   0.100E-07
     TRS4 it   7 1.00000000   0.250E-03       0.001       32.256   0.100E-07
     TRS4 it   8 1.00000000   0.234E-06       0.001       32.256   0.100E-07
     TRS4 it   9 1.00000000   0.242E-12       0.001       32.256   0.100E-07
     Final TRS4 iteration    9 1.00000000   0.242E-12
     Chemical potential (mu):       0.00631
 
 PAO| energy:  -7.7534123227401137      penalty:   1.4430719424668605E-005
 PAO|CG| trace_G_new    2.2768565868355284E-004
 PAO|CG| trace_G_prev    6.7163179046758397E-004
 PAO|CG| trace_G_mix    2.3150209381670207E-006
 PAO|CG| trace_D    9.2758815904321287E-004
 PAO|CG| trace_D_Gnew  -1.5836122181748391E-006
 PAO|CG| beta:   0.33555683477770581     
 PAO| norm of gradient:   1.5089256399291279E-002
 PAO| energy improvement:  -1.4654817640735729E-004
 PAO| step     22                   -7.753412323  0.943E-03  0.434E+00     0.076
 PAO|LS| adapt:  T F F
 PAO|LS| adapt: scan_steps:    0.0000000000000000        0.0000000000000000        0.0000000000000000     
 PAO|LS| adapt: energies:   -7.7534123227401137        0.0000000000000000        0.0000000000000000     
 PAO| ======================= Iteration:        23 =============================

     Lanczos converged:  T threshold:   0.100E-02
     Est. extremal eigenvalues:    0.276E+01   0.182E+00
     Est. condition number :    0.152E+02

 Order=           3
     NS sqrt iter    1 1.00000000   0.704E+00       0.001       58.296
     NS sqrt iter    2 1.00000000   0.328E+00       0.001       97.190
     NS sqrt iter    3 1.00000000   0.744E-01       0.001       97.799
     NS sqrt iter    4 1.00000000   0.178E-02       0.001       99.068
     NS sqrt iter    5 1.00000000   0.517E-07       0.001       65.115
     Symmetrizing Results
     Final NS sqrt iter    5 1.00000000   0.497E-09

     Est. extremal eigenvalues     -0.93093     1.69911  converged:  T
     TRS4 it   1 1.00000000   0.875E+00       0.000       16.128   0.100E-07
     TRS4 it   2 1.00000000   0.616E+00       0.001       32.256   0.100E-07
     TRS4 it   3 1.00000000   0.419E+00       0.001       32.256   0.100E-07
     TRS4 it   4 1.00000000   0.214E+00       0.001       32.256   0.100E-07
     TRS4 it   5 1.00000000   0.704E-01       0.001       32.256   0.100E-07
     TRS4 it   6 1.00000000   0.976E-02       0.001       32.256   0.100E-07
     TRS4 it   7 1.00000000   0.252E-03       0.001       32.256   0.100E-07
     TRS4 it   8 1.00000000   0.239E-06       0.001       32.256   0.100E-07
     TRS4 it   9 1.00000000   0.252E-12       0.001       32.256   0.100E-07
     Final TRS4 iteration    9 1.00000000   0.252E-12
     Chemical potential (mu):       0.00607
 
 PAO| energy:  -7.7534630364785588      penalty:   1.3742003755097983E-005
 PAO|LS| adapt:  T T F
 PAO|LS| adapt: scan_steps:    0.0000000000000000       0.43408390308236705        0.0000000000000000     
 PAO|LS| adapt: energies:   -7.7534123227401137       -7.7534630364785588        0.0000000000000000     
 PAO| ======================= Iteration:        24 =============================

     Lanczos converged:  T threshold:   0.100E-02
     Est. extremal eigenvalues:    0.276E+01   0.181E+00
     Est. condition number :    0.152E+02

 Order=           3
     NS sqrt iter    1 1.00000000   0.704E+00       0.001       58.985
     NS sqrt iter    2 1.00000000   0.329E+00       0.001       98.554
     NS sqrt iter    3 1.00000000   0.745E-01       0.001       98.373
     NS sqrt iter    4 1.00000000   0.179E-02       0.001      102.001
     NS sqrt iter    5 1.00000000   0.523E-07       0.001       64.628
     Symmetrizing Results
     Final NS sqrt iter    5 1.00000000   0.508E-09

     Est. extremal eigenvalues     -0.93093     1.69908  converged:  T
     TRS4 it   1 1.00000000   0.875E+00       0.000       16.128   0.100E-07
     TRS4 it   2 1.00000000   0.616E+00       0.001       32.256   0.100E-07
     TRS4 it   3 1.00000000   0.419E+00       0.001       32.256   0.100E-07
     TRS4 it   4 1.00000000   0.214E+00       0.001       32.256   0.100E-07
     TRS4 it   5 1.00000000   0.705E-01       0.001       32.256   0.100E-07
     TRS4 it   6 1.00000000   0.980E-02       0.001       32.256   0.100E-07
     TRS4 it   7 1.00000000   0.255E-03       0.001       32.256   0.100E-07
     TRS4 it   8 1.00000000   0.244E-06       0.001       32.256   0.100E-07
     TRS4 it   9 1.00000000   0.264E-12       0.001       32.256   0.100E-07
     Final TRS4 iteration    9 1.00000000   0.264E-12
     Chemical potential (mu):       0.00582
 
 PAO| energy:  -7.7534164438291544      penalty:   1.3082527178834132E-005
 PAO|LS| adapt:  T T T
 PAO|LS| adapt: scan_steps:    0.0000000000000000       0.43408390308236705       0.86816780616473410     
 PAO|LS| adapt: energies:   -7.7534123227401137       -7.7534630364785588       -7.7534164438291544     
 PAO|LS| adapt: suggested step_size:   0.44327599445101085     
 PAO|LS| adapt: predicted energy  -7.7534630582954405     
 PAO| ======================= Iteration:        25 =============================

     Lanczos converged:  T threshold:   0.100E-02
     Est. extremal eigenvalues:    0.276E+01   0.182E+00
     Est. condition number :    0.152E+02

 Order=           3
     NS sqrt iter    1 1.00000000   0.704E+00       0.001       57.783
     NS sqrt iter    2 1.00000000   0.328E+00       0.001       97.151
     NS sqrt iter    3 1.00000000   0.744E-01       0.001      100.756
     NS sqrt iter    4 1.00000000   0.178E-02       0.001       98.722
     NS sqrt iter    5 1.00000000   0.517E-07       0.001       64.799
     Symmetrizing Results
     Final NS sqrt iter    5 1.00000000   0.497E-09

     Est. extremal eigenvalues     -0.93093     1.69911  converged:  T
     TRS4 it   1 1.00000000   0.875E+00       0.000       16.128   0.100E-07
     TRS4 it   2 1.00000000   0.616E+00       0.001       32.256   0.100E-07
     TRS4 it   3 1.00000000   0.419E+00       0.001       32.256   0.100E-07
     TRS4 it   4 1.00000000   0.214E+00       0.001       32.256   0.100E-07
     TRS4 it   5 1.00000000   0.704E-01       0.001       32.256   0.100E-07
     TRS4 it   6 1.00000000   0.976E-02       0.001       32.256   0.100E-07
     TRS4 it   7 1.00000000   0.252E-03       0.001       32.256   0.100E-07
     TRS4 it   8 1.00000000   0.239E-06       0.013        2.524   0.100E-07
     TRS4 it   9 1.00000000   0.253E-12       0.001       32.256   0.100E-07
     Final TRS4 iteration    9 1.00000000   0.253E-12
     Chemical potential (mu):       0.00606
 
 PAO| energy:  -7.7534630614919076      penalty:   1.3727738134123996E-005
 PAO|CG| trace_G_new    1.0168507925502561E-004
 PAO|CG| trace_G_prev    2.2768565868355284E-004
 PAO|CG| trace_G_mix    7.9938273666275625E-007
 PAO|CG| trace_D    3.3319337519371395E-004
 PAO|CG| trace_D_Gnew  -3.4758845125067389E-007
 PAO|CG| beta:   0.44309201159910583     
 PAO| norm of gradient:   1.0083901985591967E-002
 PAO| energy improvement:  -5.0738751793844017E-005
 PAO| step     25                   -7.753463061  0.630E-03  0.443E+00     0.071
 PAO|LS| adapt:  T F F
 PAO|LS| adapt: scan_steps:    0.0000000000000000        0.0000000000000000        0.0000000000000000     
 PAO|LS| adapt: energies:   -7.7534630614919076        0.0000000000000000        0.0000000000000000     
 PAO| ======================= Iteration:        26 =============================

     Lanczos converged:  T threshold:   0.100E-02
     Est. extremal eigenvalues:    0.276E+01   0.181E+00
     Est. condition number :    0.152E+02

 Order=           3
     NS sqrt iter    1 1.00000000   0.704E+00       0.001       58.105
     NS sqrt iter    2 1.00000000   0.328E+00       0.001       96.929
     NS sqrt iter    3 1.00000000   0.743E-01       0.001       98.129
     NS sqrt iter    4 1.00000000   0.178E-02       0.001       98.485
     NS sqrt iter    5 1.00000000   0.519E-07       0.001       64.395
     Symmetrizing Results
     Final NS sqrt iter    5 1.00000000   0.501E-09

     Est. extremal eigenvalues     -0.93093     1.69940  converged:  T
     TRS4 it   1 1.00000000   0.875E+00       0.000       16.128   0.100E-07
     TRS4 it   2 1.00000000   0.616E+00       0.001       32.256   0.100E-07
     TRS4 it   3 1.00000000   0.419E+00       0.001       32.256   0.100E-07
     TRS4 it   4 1.00000000   0.214E+00       0.001       32.256   0.100E-07
     TRS4 it   5 1.00000000   0.704E-01       0.001       32.256   0.100E-07
     TRS4 it   6 1.00000000   0.976E-02       0.001       32.256   0.100E-07
     TRS4 it   7 1.00000000   0.251E-03       0.001       32.256   0.100E-07
     TRS4 it   8 1.00000000   0.237E-06       0.001       32.256   0.100E-07
     TRS4 it   9 1.00000000   0.248E-12       0.001       32.256   0.100E-07
     Final TRS4 iteration    9 1.00000000   0.248E-12
     Chemical potential (mu):       0.00622
 
 PAO| energy:  -7.7534722735270964      penalty:   1.2941635985103941E-005
 PAO|LS| adapt:  T T F
 PAO|LS| adapt: scan_steps:    0.0000000000000000       0.44327599445101085        0.0000000000000000     
 PAO|LS| adapt: energies:   -7.7534630614919076       -7.7534722735270964        0.0000000000000000     
 PAO| ======================= Iteration:        27 =============================

     Lanczos converged:  T threshold:   0.100E-02
     Est. extremal eigenvalues:    0.276E+01   0.181E+00
     Est. condition number :    0.152E+02

 Order=           3
     NS sqrt iter    1 1.00000000   0.704E+00       0.001       59.235
     NS sqrt iter    2 1.00000000   0.328E+00       0.001       98.148
     NS sqrt iter    3 1.00000000   0.742E-01       0.001       97.029
     NS sqrt iter    4 1.00000000   0.178E-02       0.017        6.443
     NS sqrt iter    5 1.00000000   0.521E-07       0.001       62.668
     Symmetrizing Results
     Final NS sqrt iter    5 1.00000000   0.504E-09

     Est. extremal eigenvalues     -0.93094     1.69968  converged:  T
     TRS4 it   1 1.00000000   0.875E+00       0.000       16.128   0.100E-07
     TRS4 it   2 1.00000000   0.616E+00       0.001       32.256   0.100E-07
     TRS4 it   3 1.00000000   0.419E+00       0.001       32.256   0.100E-07
     TRS4 it   4 1.00000000   0.214E+00       0.001       32.256   0.100E-07
     TRS4 it   5 1.00000000   0.704E-01       0.001       32.256   0.100E-07
     TRS4 it   6 1.00000000   0.976E-02       0.001       32.256   0.100E-07
     TRS4 it   7 1.00000000   0.251E-03       0.001       32.256   0.100E-07
     TRS4 it   8 1.00000000   0.235E-06       0.001       32.256   0.100E-07
     TRS4 it   9 1.00000000   0.245E-12       0.001       32.256   0.100E-07
     Final TRS4 iteration    9 1.00000000   0.245E-12
     Chemical potential (mu):       0.00637
 
 PAO| energy:  -7.7534094504751421      penalty:   1.2184895993682605E-005
 PAO|LS| adapt:  T T T
 PAO|LS| adapt: scan_steps:    0.0000000000000000       0.44327599445101085       0.88655198890202169     
 PAO|LS| adapt: energies:   -7.7534630614919076       -7.7534722735270964       -7.7534094504751421     
 PAO|LS| adapt: suggested step_size:   0.27832528978268467     
 PAO|LS| adapt: predicted energy  -7.7534772609249618     
 PAO| ======================= Iteration:        28 =============================

     Lanczos converged:  T threshold:   0.100E-02
     Est. extremal eigenvalues:    0.276E+01   0.182E+00
     Est. condition number :    0.152E+02

 Order=           3
     NS sqrt iter    1 1.00000000   0.704E+00       0.001       58.058
     NS sqrt iter    2 1.00000000   0.328E+00       0.001       97.372
     NS sqrt iter    3 1.00000000   0.744E-01       0.017        6.424
     NS sqrt iter    4 1.00000000   0.178E-02       0.001       98.865
     NS sqrt iter    5 1.00000000   0.518E-07       0.001       64.522
     Symmetrizing Results
     Final NS sqrt iter    5 1.00000000   0.499E-09

     Est. extremal eigenvalues     -0.93093     1.69929  converged:  T
     TRS4 it   1 1.00000000   0.875E+00       0.000       16.128   0.100E-07
     TRS4 it   2 1.00000000   0.616E+00       0.001       32.256   0.100E-07
     TRS4 it   3 1.00000000   0.419E+00       0.001       32.256   0.100E-07
     TRS4 it   4 1.00000000   0.214E+00       0.001       32.256   0.100E-07
     TRS4 it   5 1.00000000   0.704E-01       0.001       32.256   0.100E-07
     TRS4 it   6 1.00000000   0.976E-02       0.001       32.256   0.100E-07
     TRS4 it   7 1.00000000   0.252E-03       0.001       32.256   0.100E-07
     TRS4 it   8 1.00000000   0.238E-06       0.001       32.256   0.100E-07
     TRS4 it   9 1.00000000   0.250E-12       0.001       32.256   0.100E-07
     Final TRS4 iteration    9 1.00000000   0.250E-12
     Chemical potential (mu):       0.00616
 
 PAO| energy:  -7.7534772470248949      penalty:   1.3230701455499229E-005
 PAO|CG| trace_G_new    4.1038274149501659E-005
 PAO|CG| trace_G_prev    1.0168507925502561E-004
 PAO|CG| trace_G_mix    1.8721006912823029E-007
 PAO|CG| trace_D    1.6740913877898622E-004
 PAO|CG| trace_D_Gnew  -5.7188410690848702E-008
 PAO|CG| beta:   0.40174098677662623     
 PAO| norm of gradient:   6.4061122492118146E-003
 PAO| energy improvement:  -1.4185532987376348E-005
 PAO| step     28                   -7.753477247  0.400E-03  0.278E+00     0.127
 PAO|LS| adapt:  T F F
 PAO|LS| adapt: scan_steps:    0.0000000000000000        0.0000000000000000        0.0000000000000000     
 PAO|LS| adapt: energies:   -7.7534772470248949        0.0000000000000000        0.0000000000000000     
 PAO| ======================= Iteration:        29 =============================

     Lanczos converged:  T threshold:   0.100E-02
     Est. extremal eigenvalues:    0.276E+01   0.181E+00
     Est. condition number :    0.152E+02

 Order=           3
     NS sqrt iter    1 1.00000000   0.704E+00       0.001       57.979
     NS sqrt iter    2 1.00000000   0.328E+00       0.001       97.688
     NS sqrt iter    3 1.00000000   0.743E-01       0.001       99.811
     NS sqrt iter    4 1.00000000   0.178E-02       0.001      100.124
     NS sqrt iter    5 1.00000000   0.519E-07       0.001       65.244
     Symmetrizing Results
     Final NS sqrt iter    5 1.00000000   0.500E-09

     Est. extremal eigenvalues     -0.93094     1.69937  converged:  T
     TRS4 it   1 1.00000000   0.875E+00       0.000       16.128   0.100E-07
     TRS4 it   2 1.00000000   0.616E+00       0.001       32.256   0.100E-07
     TRS4 it   3 1.00000000   0.419E+00       0.001       32.256   0.100E-07
     TRS4 it   4 1.00000000   0.213E+00       0.013        2.528   0.100E-07
     TRS4 it   5 1.00000000   0.703E-01       0.001       32.256   0.100E-07
     TRS4 it   6 1.00000000   0.973E-02       0.001       32.256   0.100E-07
     TRS4 it   7 1.00000000   0.250E-03       0.001       32.256   0.100E-07
     TRS4 it   8 1.00000000   0.234E-06       0.001       32.256   0.100E-07
     TRS4 it   9 1.00000000   0.243E-12       0.001       32.256   0.100E-07
     Final TRS4 iteration    9 1.00000000   0.243E-12
     Chemical potential (mu):       0.00634
 
 PAO| energy:  -7.7534872698189892      penalty:   1.2738547091812734E-005
 PAO|LS| adapt:  T T F
 PAO|LS| adapt: scan_steps:    0.0000000000000000       0.27832528978268467        0.0000000000000000     
 PAO|LS| adapt: energies:   -7.7534772470248949       -7.7534872698189892        0.0000000000000000     
 PAO| ======================= Iteration:        30 =============================

     Lanczos converged:  T threshold:   0.100E-02
     Est. extremal eigenvalues:    0.276E+01   0.181E+00
     Est. condition number :    0.152E+02

 Order=           3
     NS sqrt iter    1 1.00000000   0.704E+00       0.001       59.278
     NS sqrt iter    2 1.00000000   0.328E+00       0.001       99.083
     NS sqrt iter    3 1.00000000   0.742E-01       0.001       97.805
     NS sqrt iter    4 1.00000000   0.178E-02       0.001       97.352
     NS sqrt iter    5 1.00000000   0.519E-07       0.001       64.306
     Symmetrizing Results
     Final NS sqrt iter    5 1.00000000   0.502E-09

     Est. extremal eigenvalues     -0.93094     1.69944  converged:  T
     TRS4 it   1 1.00000000   0.875E+00       0.000       16.128   0.100E-07
     TRS4 it   2 1.00000000   0.616E+00       0.001       32.256   0.100E-07
     TRS4 it   3 1.00000000   0.419E+00       0.001       32.256   0.100E-07
     TRS4 it   4 1.00000000   0.213E+00       0.001       32.256   0.100E-07
     TRS4 it   5 1.00000000   0.702E-01       0.001       32.256   0.100E-07
     TRS4 it   6 1.00000000   0.971E-02       0.001       32.256   0.100E-07
     TRS4 it   7 1.00000000   0.248E-03       0.001       32.256   0.100E-07
     TRS4 it   8 1.00000000   0.231E-06       0.001       32.256   0.100E-07
     TRS4 it   9 1.00000000   0.235E-12       0.001       32.256   0.100E-07
     Final TRS4 iteration    9 1.00000000   0.235E-12
     Chemical potential (mu):       0.00652
 
 PAO| energy:  -7.7534944819100131      penalty:   1.2257113494946358E-005
 PAO|LS| adapt:  T T F
 PAO|LS| adapt: scan_steps:    0.0000000000000000       0.55665057956536934        0.0000000000000000     
 PAO|LS| adapt: energies:   -7.7534772470248949       -7.7534944819100131        0.0000000000000000     
 PAO| ======================= Iteration:        31 =============================

     Lanczos converged:  T threshold:   0.100E-02
     Est. extremal eigenvalues:    0.276E+01   0.181E+00
     Est. condition number :    0.152E+02

 Order=           3
     NS sqrt iter    1 1.00000000   0.703E+00       0.001       58.394
     NS sqrt iter    2 1.00000000   0.327E+00       0.001       99.042
     NS sqrt iter    3 1.00000000   0.740E-01       0.001       98.887
     NS sqrt iter    4 1.00000000   0.177E-02       0.001       98.076
     NS sqrt iter    5 1.00000000   0.521E-07       0.001       64.245
     Symmetrizing Results
     Final NS sqrt iter    5 1.00000000   0.509E-09

     Est. extremal eigenvalues     -0.93095     1.69959  converged:  T
     TRS4 it   1 1.00000000   0.875E+00       0.000       16.128   0.100E-07
     TRS4 it   2 1.00000000   0.616E+00       0.001       32.256   0.100E-07
     TRS4 it   3 1.00000000   0.419E+00       0.001       32.256   0.100E-07
     TRS4 it   4 1.00000000   0.213E+00       0.001       32.256   0.100E-07
     TRS4 it   5 1.00000000   0.701E-01       0.001       32.256   0.100E-07
     TRS4 it   6 1.00000000   0.966E-02       0.001       32.256   0.100E-07
     TRS4 it   7 1.00000000   0.245E-03       0.001       32.256   0.100E-07
     TRS4 it   8 1.00000000   0.224E-06       0.001       32.256   0.100E-07
     TRS4 it   9 1.00000000   0.221E-12       0.001       32.256   0.100E-07
     Final TRS4 iteration    9 1.00000000   0.221E-12
     Chemical potential (mu):       0.00688
 
 PAO| energy:  -7.7535004760977078      penalty:   1.1326092803629876E-005
 PAO|LS| Need extra step
 PAO|LS| adapt:  T T F
 PAO|LS| adapt: scan_steps:    0.0000000000000000        1.1133011591307387        0.0000000000000000     
 PAO|LS| adapt: energies:   -7.7534772470248949       -7.7535004760977078        0.0000000000000000     
 PAO| ======================= Iteration:        32 =============================

     Lanczos converged:  T threshold:   0.100E-02
     Est. extremal eigenvalues:    0.275E+01   0.181E+00
     Est. condition number :    0.152E+02

 Order=           3
[...]
     TRS4 it   5 1.00000000   0.147E+00       0.005        7.058   0.100E-07
     TRS4 it   6 1.00000000   0.481E-01       0.004        8.645   0.100E-07
     TRS4 it   7 1.00000000   0.685E-02       0.001       23.936   0.100E-07
     TRS4 it   8 1.00000000   0.193E-03       0.001       32.256   0.100E-07
     TRS4 it   9 1.00000000   0.167E-06       0.001       32.256   0.100E-07
     TRS4 it  10 1.00000000   0.126E-12       0.001       32.256   0.100E-07
     Final TRS4 iteration   10 1.00000000   0.126E-12
     Chemical potential (mu):      -0.07246
 
 PAO| energy:  -7.7526991386471682      penalty:   6.7137392134511842E-012
 PAO|CG| warming up with steepest descent
 PAO|CG| beta:    0.0000000000000000     
 PAO| norm of gradient:   7.6858562374947722E-006
 PAO| energy improvement:  -2.1683099760139157E-011
 PAO| step    983                   -7.752699139  0.480E-06  0.248E+00     0.171
 PAO| converged after          983  steps :-)
 PAO| Recalculating energy after mixing.

     Lanczos converged:  T threshold:   0.100E-02
     Est. extremal eigenvalues:    0.249E+01   0.174E+00
     Est. condition number :    0.143E+02

 Order=           3
     NS sqrt iter    1 1.00000000   0.630E+00       0.002       39.332
     NS sqrt iter    2 1.00000000   0.275E+00       0.002       70.699
     NS sqrt iter    3 1.00000000   0.512E-01       0.002       61.255
     NS sqrt iter    4 1.00000000   0.114E-02       0.002       62.925
     NS sqrt iter    5 1.00000000   0.213E-07       0.001       28.363
     Symmetrizing Results
     Final NS sqrt iter    5 1.00000000   0.643E-08

     Est. extremal eigenvalues     -0.93072     1.69102  converged:  T
     TRS4 it   1 1.00000000   0.900E+00       0.001       15.233   0.100E-07
     TRS4 it   2 1.00000000   0.646E+00       0.001       31.484   0.100E-07
     TRS4 it   3 1.00000000   0.462E+00       0.001       32.256   0.100E-07
     TRS4 it   4 1.00000000   0.285E+00       0.001       25.967   0.100E-07
     TRS4 it   5 1.00000000   0.147E+00       0.001       32.256   0.100E-07
     TRS4 it   6 1.00000000   0.481E-01       0.001       32.256   0.100E-07
     TRS4 it   7 1.00000000   0.685E-02       0.001       32.256   0.100E-07
     TRS4 it   8 1.00000000   0.193E-03       0.001       32.256   0.100E-07
     TRS4 it   9 1.00000000   0.167E-06       0.001       32.256   0.100E-07
     TRS4 it  10 1.00000000   0.126E-12       0.001       32.256   0.100E-07
     Final TRS4 iteration   10 1.00000000   0.126E-12
     Chemical potential (mu):      -0.07246
 
 PAO| energy:  -7.7526991386417485      penalty:   6.7811562518361390E-012
 PAO| Writing restart file.
     Est. extremal eigenvalues     -0.93072     1.69102  converged:  T
     TRS4 it   1 1.00000000   0.900E+00       0.000       16.128   0.100E-07
     TRS4 it   2 1.00000000   0.646E+00       0.001       32.256   0.100E-07
     TRS4 it   3 1.00000000   0.462E+00       0.001       32.256   0.100E-07
     TRS4 it   4 1.00000000   0.285E+00       0.001       32.256   0.100E-07
     TRS4 it   5 1.00000000   0.147E+00       0.001       32.256   0.100E-07
     TRS4 it   6 1.00000000   0.481E-01       0.001       32.256   0.100E-07
     TRS4 it   7 1.00000000   0.685E-02       0.001       32.256   0.100E-07
     TRS4 it   8 1.00000000   0.193E-03       0.001       32.256   0.100E-07
     TRS4 it   9 1.00000000   0.167E-06       0.001       32.256   0.100E-07
     TRS4 it  10 1.00000000   0.126E-12       0.001       32.256   0.100E-07
     Final TRS4 iteration   10 1.00000000   0.126E-12
     Chemical potential (mu):      -0.07246

 SCF     1       -34.448642025       -34.448642025    2.755684

*********************************************************
 Using MIXING_FRACTION=0.450 to mix KS matrix:  iscf=  2
 KS_nw=0.450*KS + 0.550*KS_old
*********************************************************
     Est. extremal eigenvalues     -0.93072     1.69102  converged:  T
     TRS4 it   1 1.00000000   0.900E+00       0.000       16.128   0.100E-07
     TRS4 it   2 1.00000000   0.646E+00       0.001       32.256   0.100E-07
     TRS4 it   3 1.00000000   0.462E+00       0.001       32.256   0.100E-07
     TRS4 it   4 1.00000000   0.285E+00       0.001       32.256   0.100E-07
     TRS4 it   5 1.00000000   0.147E+00       0.001       32.256   0.100E-07
     TRS4 it   6 1.00000000   0.481E-01       0.001       32.256   0.100E-07
     TRS4 it   7 1.00000000   0.685E-02       0.001       32.256   0.100E-07
     TRS4 it   8 1.00000000   0.193E-03       0.001       32.256   0.100E-07
     TRS4 it   9 1.00000000   0.167E-06       0.001       32.256   0.100E-07
     TRS4 it  10 1.00000000   0.127E-12       0.001       32.256   0.100E-07
     Final TRS4 iteration   10 1.00000000   0.127E-12
     Chemical potential (mu):      -0.07246

 SCF     2       -34.448642025        -0.000000000    2.005131


 SCF run converged in     2 steps.

 PAO| Storing density matrix for ASPC guess in slot:           1

 ENERGY| Total FORCE_EVAL ( QS ) energy [a.u.]:              -34.448642025258316

 -------------------------------------------------------------------------------
 -                                                                             -
 -                                DBCSR STATISTICS                             -
 -                                                                             -
 -------------------------------------------------------------------------------
 COUNTER                                    TOTAL       BLAS       SMM       ACC
 flops     5 x     5 x     4                32000       0.0%    100.0%      0.0%
 flops    13 x     5 x     4                33280       0.0%    100.0%      0.0%
 flops     5 x    13 x     4                33280       0.0%    100.0%      0.0%
 flops    13 x    13 x     4                64896       0.0%    100.0%      0.0%
 flops     4 x     4 x     5              7680000       0.0%    100.0%      0.0%
 flops     5 x     4 x     5              9347200       0.0%    100.0%      0.0%
 flops     4 x     4 x    13              9984000       0.0%    100.0%      0.0%
 flops    13 x     4 x     5             12151360       0.0%    100.0%      0.0%
 flops     5 x     4 x    13             12151360       0.0%    100.0%      0.0%
 flops     5 x     4 x     4             14419360       0.0%    100.0%      0.0%
 flops    13 x     4 x    13             15796768       0.0%    100.0%      0.0%
 flops    13 x     4 x     4             18922176       0.0%    100.0%      0.0%
 flops     4 x     4 x     4           1003473664       0.0%    100.0%      0.0%
 flops inhomo. stacks                           0       0.0%      0.0%      0.0%
 flops total                         1.104089E+09       0.0%    100.0%      0.0%
 flops max/rank                      1.104089E+09       0.0%    100.0%      0.0%
 matmuls inhomo. stacks                         0       0.0%      0.0%      0.0%
 matmuls total                            8152737       0.0%    100.0%      0.0%
 number of processed stacks                 64725       0.0%    100.0%      0.0%
 average stack size                                     0.0     126.0       0.0
 marketing flops                     1.797075E+09
 -------------------------------------------------------------------------------
 # multiplications                          54451
 max memory usage/rank             507.019264E+06
 # max total images/rank                        1
 # max 3D layers                                1
 # MPI messages exchanged                       0
 -------------------------------------------------------------------------------

 -------------------------------------------------------------------------------
 -                                                                             -
 -                                DBM STATISTICS                               -
 -                                                                             -
 -------------------------------------------------------------------------------
    M  x    N  x    K                                          COUNT     PERCENT
 -------------------------------------------------------------------------------

 -------------------------------------------------------------------------------
 -                                                                             -
 -                                GRID STATISTICS                              -
 -                                                                             -
 -------------------------------------------------------------------------------
 LP    KERNEL             BACKEND                              COUNT     PERCENT
 2     collocate ortho    REF                                  60960      30.75%
 2     integrate ortho    REF                                  60960      30.75%
 3     collocate ortho    REF                                  31408      15.84%
 3     integrate ortho    REF                                  31408      15.84%
 4     collocate ortho    REF                                   6752       3.41%
 4     integrate ortho    REF                                   6752       3.41%
 0     collocate general  REF                                      6       0.00%
 -------------------------------------------------------------------------------

 MEMORY| Estimated peak process memory [MiB]                                 484

 -------------------------------------------------------------------------------
 -                                                                             -
 -                           R E F E R E N C E S                               -
 -                                                                             -
 -------------------------------------------------------------------------------
 
 CP2K version 2023.1 (Development Version), the CP2K developers group (2023).
 CP2K is freely available from https://www.cp2k.org/ .

 Kuehne,Thomas D.; Iannuzzi,Marcella; Del Ben,Mauro;
 Rybkin,Vladimir V.; Seewald,Patrick; Stein,Frederick; Laino,Teodoro;
 Khaliullin,Rustam Z.; Schuett,Ole; Schiffmann,Florian; Golze,Dorothea;
 Wilhelm,Jan; Chulkov,Sergey; Bani-Hashemian,Mohammad Hossein;
 Weber,Valery; Borstnik,Urban; Taillefumier,Mathieu;
 Jakobovits,Alice Shoshana; Lazzaro,Alfio; Pabst,Hans; Mueller,Tiziano;
 Schade,Robert; Guidon,Manuel; Andermatt,Samuel; Holmberg,Nico;
 Schenter,Gregory K.; Hehn,Anna; Bussy,Augustin; Belleflamme,Fabian;
 Tabacchi,Gloria; Gloess,Andreas; Lass,Michael; Bethune,Iain;
 Mundy,Christopher J.; Plessl,Christian; Watkins,Matt;
 VandeVondele,Joost; Krack,Matthias; Hutter,Juerg. 
 The Journal of Chemical Physics, 152 (19), (2020). 
 CP2K: An electronic structure and molecular dynamics software package -
 Quickstep: Efficient and accurate electronic structure calculations.
 https://doi.org/10.1063/5.0007045

 Schuett, O; VandeVondele, J. 
 Journal of Chemical Theory and Computation, 14, (2018). 
 Machine Learning Adaptive Basis Sets for Efficient Large Scale
 Density Functional Theory Simulation.
 https://doi.org/10.1021/acs.jctc.8b00378

 Schuett, Ole; Messmer, Peter; Hutter, Juerg; VandeVondele, Joost. 
 Electronic Structure Calculations on Graphics Processing Units, John
 Wiley & Sons, Ltd, 173-190 (2016). 
 GPU-Accelerated Sparse Matrix-Matrix Multiplication for
 Linear Scaling Density Functional Theory.
 https://doi.org/10.1002/9781118670712.ch8

 Heinecke, A; Henry, G; Hutchinson, M; Pabst, H. 
 Proceedings of Intl. Supercomputing Conference, 981-991 (2016). 
 LIBXSMM: Accelerating Small Matrix Multiplications
 by Runtime Code Generation.
 https://doi.org/10.1109/SC.2016.83

 Borstnik, U; VandeVondele, J; Weber, V; Hutter, J. 
 PARALLEL COMPUTING, 40 (5-6), 47-58 (2014). 
 Sparse matrix multiplication: The distributed block-compressed sparse
 row library.
 https://doi.org/10.1016/j.parco.2014.03.012

 Hutter, J; Iannuzzi, M; Schiffmann, F; VandeVondele, J. 
 WIREs Comput Mol Sci., 4 (1), 15-25 (2014). 
 CP2K: atomistic simulations of condensed matter systems.
 https://doi.org/10.1002/wcms.1159

 VandeVondele, J; Borstnik, U; Hutter, J. 
 JOURNAL OF CHEMICAL THEORY AND COMPUTATION, 8 (10), 3565-3573 (2012). 
 Linear Scaling Self-Consistent Field Calculations with Millions of Atoms
 in the Condensed Phase.
 https://doi.org/10.1021/ct200897x

 VandeVondele, J; Hutter, J. 
 JOURNAL OF CHEMICAL PHYSICS, 127 (11), 114105 (2007). 
 Gaussian basis sets for accurate calculations on molecular systems in
 gas and condensed phases.
 https://doi.org/10.1063/1.2770708

 Krack, M. 
 THEORETICAL CHEMISTRY ACCOUNTS, 114 (1-3), 145-152 (2005). 
 Pseudopotentials for H to Kr optimized for gradient-corrected
 exchange-correlation functionals.
 https://doi.org/10.1007/s00214-005-0655-y

 VandeVondele, J; Krack, M; Mohamed, F; Parrinello, M; Chassaing, T;
 Hutter, J. COMPUTER PHYSICS COMMUNICATIONS, 167 (2), 103-128 (2005). 
 QUICKSTEP: Fast and accurate density functional calculations using a
 mixed Gaussian and plane waves approach.
 https://doi.org/10.1016/j.cpc.2004.12.014

 Frigo, M; Johnson, SG. 
 PROCEEDINGS OF THE IEEE, 93 (2), 216-231 (2005). 
 The design and implementation of FFTW3.
 https://doi.org/10.1109/JPROC.2004.840301

 Niklasson, AMN; Tymczak, CJ; Challacombe, M. 
 JOURNAL OF CHEMICAL PHYSICS, 118 (19), 8611-8620 (2003). 
 Trace resetting density matrix purification in O(N)
 self-consistent-field theory.
 https://doi.org/10.1063/1.1559913

 Hartwigsen, C; Goedecker, S; Hutter, J. 
 PHYSICAL REVIEW B, 58 (7), 3641-3662 (1998). 
 Relativistic separable dual-space Gaussian pseudopotentials from H to Rn.
 https://doi.org/10.1103/PhysRevB.58.3641

 Lippert, G; Hutter, J; Parrinello, M. 
 MOLECULAR PHYSICS, 92 (3), 477-487 (1997). 
 A hybrid Gaussian and plane wave density functional scheme.
 https://doi.org/10.1080/002689797170220

 Perdew, JP; Burke, K; Ernzerhof, M. 
 PHYSICAL REVIEW LETTERS, 77 (18), 3865-3868 (1996). 
 Generalized gradient approximation made simple.
 https://doi.org/10.1103/PhysRevLett.77.3865

 Goedecker, S; Teter, M; Hutter, J. 
 PHYSICAL REVIEW B, 54 (3), 1703-1710 (1996). 
 Separable dual-space Gaussian pseudopotentials.
 https://doi.org/10.1103/PhysRevB.54.1703


 -------------------------------------------------------------------------------
 -                                                                             -
 -                                T I M I N G                                  -
 -                                                                             -
 -------------------------------------------------------------------------------
 SUBROUTINE                       CALLS  ASD         SELF TIME        TOTAL TIME
                                MAXIMUM       AVERAGE  MAXIMUM  AVERAGE  MAXIMUM
 CP2K                                 1  1.0    0.015    0.015   85.348   85.348
 qs_energies                          1  2.0    0.000    0.000   84.547   84.547
 ls_scf                               1  3.0    0.000    0.000   84.269   84.269
 ls_scf_main                          7  4.0    0.004    0.004   51.330   51.330
 ls_scf_dm_to_ks                     15  5.0    0.001    0.001   51.093   51.093
 qs_ks_update_qs_env                 16  6.0    0.000    0.000   42.377   42.377
 rebuild_ks_matrix                   16  7.0    0.000    0.000   42.376   42.376
 qs_ks_build_kohn_sham_matrix        16  8.0    0.006    0.006   42.376   42.376
 pao_update                           7  4.0    0.025    0.025   27.518   27.518
 qs_vxc_create                       16  9.0    0.001    0.001   25.849   25.849
 xc_vxc_pw_create                    16 10.0    0.502    0.502   25.848   25.848
 pao_calc_energy                    989  5.0    0.010    0.010   24.956   24.956
 pw_transfer                        305 11.1    0.046    0.046   21.784   21.784
 fft_wrap_pw1pw2                    273 12.3    0.006    0.006   21.191   21.191
 fft_wrap_pw1pw2_200                177 13.7    2.319    2.319   20.499   20.499
 dbcsr_multiply_generic           54451  8.4    1.186    1.186   19.440   19.440
 xc_pw_derive                        96 12.0    0.003    0.003   15.432   15.432
 xc_rho_set_and_dset_create          16 11.0    0.642    0.642   14.322   14.322
 qs_rho_update_rho_low               16  6.0    0.000    0.000   14.008   14.008
 calculate_rho_elec                  16  7.0    0.071    0.071   14.008   14.008
 pao_dm_trs4                        989  6.0    0.010    0.010   13.110   13.110
 density_matrix_trs4               1004  7.0    0.538    0.538   12.590   12.590
 sum_up_and_integrate                16  9.0    0.337    0.337   12.578   12.578
 integrate_v_rspace                  16 10.0    0.002    0.002   12.241   12.241
 ls_scf_init_matrix_S               996  7.0    0.009    0.009   11.714   11.714
 pao_rebuild_S                      989  6.0    0.004    0.004   11.621   11.621
 matrix_sqrt_Newton_Schulz          996  8.0    0.310    0.310   10.698   10.698
 xc_pw_divergence                    16 11.0    0.001    0.001   10.670   10.670
 grid_integrate_task_list            16 11.0    9.832    9.832    9.832    9.832
 grid_collocate_task_list            16  8.0    9.365    9.365    9.365    9.365
 fft3d_s                            274 14.2    9.160    9.160    9.181    9.181
 make_m2s                        108902  9.4    0.507    0.507    7.327    7.327
 multiply_cannon                  54451  9.4    3.057    3.057    7.234    7.234
 make_images                     108902 10.4    1.663    1.663    6.490    6.490
 xc_functional_eval                  16 12.0    0.000    0.000    5.588    5.588
 pbe_lda_eval                        16 13.0    5.587    5.587    5.587    5.587
 pao_guess_initial_P                  1  4.0    0.000    0.000    5.305    5.305
 pao_read_preopt_dm                   1  5.0    0.000    0.000    5.305    5.305
 pw_scatter_s                       144 14.7    4.807    4.807    4.807    4.807
 pw_gather_s                        129 13.8    4.785    4.785    4.785    4.785
 density_rs2pw                       16  8.0    0.002    0.002    4.572    4.572
 arnoldi_extremal                  2000  8.5    0.011    0.011    3.759    3.759
 arnoldi_normal_ev                 2000  9.5    0.031    0.031    3.748    3.748
 pw_derive                           96 13.0    3.068    3.068    3.068    3.068
 build_subspace                    2000 10.5    0.151    0.151    2.877    2.877
 dbcsr_matrix_vector_mult         47316 11.5    0.288    0.288    2.676    2.676
 pao_calc_AB                       1297  5.8    0.003    0.003    2.524    2.524
 pao_calc_AB_equi                  1297  6.8    0.106    0.106    2.522    2.522
 potential_pw2rs                     16 11.0    0.006    0.006    2.406    2.406
 dbcsr_finalize                  132070  9.6    0.477    0.477    2.318    2.318
 pao_calc_grad_lnv_wrt_AB           307  7.0    0.016    0.016    2.232    2.232
 pw_copy                            192 11.8    2.158    2.158    2.158    2.158
 dbcsr_create_new                417859 10.7    1.228    1.228    1.970    1.970
 multiply_cannon_loop             54451 10.4    0.245    0.245    1.948    1.948
 dbcsr_add_d                      47203  8.0    0.034    0.034    1.770    1.770
 dbcsr_add_anytype                47203  9.0    0.291    0.291    1.736    1.736
 -------------------------------------------------------------------------------

 The number of warnings for this run is : 0
 
 -------------------------------------------------------------------------------
  **** **** ******  **  PROGRAM ENDED AT                 2023-02-01 10:49:21.094
 ***** ** ***  *** **   PROGRAM RAN ON                                    moritz
 **    ****   ******    PROGRAM RAN BY                                       ole
 ***** **    ** ** **   PROGRAM PROCESS ID                                148710
  **** **  *******  **  PROGRAM STOPPED IN /home/ole/git/pao_ml_equivar/2H2O_MD/
                                           frame_0500
