       6
 i =      100, time =       20.000, E =       -34.4475939110
  O         2.4631483920        4.2034573462        4.2757188030
  H         2.2907203866        4.8394325483        3.5598709449
  H         2.0669483539        3.3405493215        3.9840886368
  O         5.4542107090        4.2377316621        3.7198079021
  H         6.2654369973        4.2839234383        4.2892587786
  H         4.6874585418        4.1595324364        4.3209453903
