 DBCSR| CPU Multiplication driver                                           XSMM (U)
 DBCSR| Multrec recursion limit                                              512 (U)
 DBCSR| Multiplication stack size                                           1000 (D)
 DBCSR| Maximum elements for images                                    UNLIMITED (U)
 DBCSR| Multiplicative factor virtual images                                   1 (U)
 DBCSR| Use multiplication densification                                       T (D)
 DBCSR| Multiplication size stacks                                             3 (U)
 DBCSR| Use memory pool for CPU allocation                                     F (U)
 DBCSR| OMP: Current number of threads                                         1
 DBCSR| OMP: Max number of threads                                             1
 DBCSR| Split modifier for TAS multiplication algorithm                  1.0E+00 (U)


  **** **** ******  **  PROGRAM STARTED AT               2023-02-01 10:45:19.662
 ***** ** ***  *** **   PROGRAM STARTED ON                                moritz
 **    ****   ******    PROGRAM STARTED BY                                   ole
 ***** **    ** ** **   PROGRAM PROCESS ID                                148561
  **** **  *******  **  PROGRAM STARTED IN /home/ole/git/pao_ml_equivar/2H2O_rot
                                           ations/phi_05

 CP2K| version string:                 CP2K version 2023.1 (Development Version)
 CP2K| source code revision number:                                  git:03b4147
 CP2K| cp2kflags: omp libint fftw3 libxc quip xsmm spglib libvori libbqb libtorc
 CP2K|            h
 CP2K| is freely available from                            https://www.cp2k.org/
 CP2K| Program compiled at                           Mi 01 Feb 2023 10:36:52 CET
 CP2K| Program compiled on                                                moritz
 CP2K| Program compiled for                                                local
 CP2K| Data directory path                               /home/ole/git/cp2k/data
 CP2K| Input file name                                            2H2O_pao44.inp

 GLOBAL| Force Environment number                                              1
 GLOBAL| Basis set file name                                        BASIS_MOLOPT
 GLOBAL| Potential file name                                      GTH_POTENTIALS
 GLOBAL| MM Potential file name                                     MM_POTENTIAL
 GLOBAL| Coordinate file name                                         coords.xyz
 GLOBAL| Method name                                                        CP2K
 GLOBAL| Project name                                                 2H2O_pao44
 GLOBAL| Run type                                                         ENERGY
 GLOBAL| FFT library                                                       FFTW3
 GLOBAL| Diagonalization library                                       ScaLAPACK
 GLOBAL| DGEMM library                                                      BLAS
 GLOBAL| Orthonormality check for eigenvectors                          DISABLED
 GLOBAL| Matrix multiplication library                                 ScaLAPACK
 GLOBAL| All-to-all communication in single precision                          F
 GLOBAL| FFTs using library dependent lengths                                  F
 GLOBAL| Grid backend                                                       AUTO
 GLOBAL| Global print level                                                  LOW
 GLOBAL| MPI I/O enabled                                                       T
 GLOBAL| Total number of message passing processes                             1
 GLOBAL| Number of threads for this process                                    1
 GLOBAL| This output is from process                                           0
 GLOBAL| Stack size for threads created by OpenMP (OMP_STACKSIZE)        default
 GLOBAL| CPU model name           AMD Ryzen Threadripper 3970X 32-Core Processor
 GLOBAL| CPUID                                                              1002
 GLOBAL| Compiled for CPUID                                                    0

 *** HINT in environment.F:884 :: The compiler target flags (generic) used ***
 *** to build this binary cannot exploit all extensions of this CPU model  ***
 *** (x86_avx2). Consider compiler target flags as part of FCFLAGS and     ***
 *** CFLAGS (ARCH file).                                                   ***


 MEMORY| system memory details [Kb]
 MEMORY|                        rank 0           min           max       average
 MEMORY| MemTotal            131773860     131773860     131773860     131773860
 MEMORY| MemFree             118850040     118850040     118850040     118850040
 MEMORY| Buffers                301580        301580        301580        301580
 MEMORY| Cached                7018548       7018548       7018548       7018548
 MEMORY| Slab                   776140        776140        776140        776140
 MEMORY| SReclaimable           331304        331304        331304        331304
 MEMORY| MemLikelyFree       126501472     126501472     126501472     126501472


 GENERATE|  Preliminary Number of Bonds generated:                             0
 GENERATE|  Achieved consistency in connectivity generation.

 *******************************************************************************
 *******************************************************************************
 **                                                                           **
 **     #####                         ##              ##                      **
 **    ##   ##            ##          ##              ##                      **
 **   ##     ##                       ##            ######                    **
 **   ##     ##  ##   ##  ##   #####  ##  ##   ####   ##    #####    #####    **
 **   ##     ##  ##   ##  ##  ##      ## ##   ##      ##   ##   ##  ##   ##   **
 **   ##  ## ##  ##   ##  ##  ##      ####     ###    ##   ######   ######    **
 **    ##  ###   ##   ##  ##  ##      ## ##      ##   ##   ##       ##        **
 **     #######   #####   ##   #####  ##  ##  ####    ##    #####   ##        **
 **           ##                                                    ##        **
 **                                                                           **
 **                                                ... make the atoms dance   **
 **                                                                           **
 **            Copyright (C) by CP2K developers group (2000-2023)             **
 **                      J. Chem. Phys. 152, 194103 (2020)                    **
 **                                                                           **
 *******************************************************************************


 TOTAL NUMBERS AND MAXIMUM NUMBERS

  Total number of            - Atomic kinds:                                   2
                             - Atoms:                                          6
                             - Shell sets:                                     6
                             - Shells:                                        22
                             - Primitive Cartesian functions:                 42
                             - Cartesian basis functions:                     48
                             - Spherical basis functions:                     46

  Maximum angular momentum of- Orbital basis functions:                        2
                             - Local part of the GTH pseudopotential:          2
                             - Non-local part of the GTH pseudopotential:      0

 ------------------------------ Linear scaling SCF -----------------------------
 eps_scf:                                                              0.100E-07
 eps_filter:                                                           0.100E-07
 mixing_fraction:                                                      0.450E+00
 max_scf:                                                                     25
 fixed chemical potential (mu)                                                 F
 has unit metric:                                                              F
 Computing inv(S):                                                             T
 Computing sqrt(S):                                                            T
 Computing S preconditioner                                                    F
 S sqrt method:                                                     NEWTONSCHULZ
 S sqrt order:                                                                 3
 Extrapolation order:                                                          1
 Use single precision matrices                                                 F
 S preconditioner type                                                      NONE
 Polarized Atomic Orbitals (PAO)                                               T
 Purification method                                   Trace resetting 4th order
 Cluster type                                                             ATOMIC
 Computing Chebyshev                                                       FALSE
 Using PAO                                                                     T
 -------------------------------------------------------------------------------

 
 PAO|                                  EPS_PAO                           0.1E-04
 PAO|                                  MIXING                            0.5E+00
 PAO|                                  MAX_PAO                              1000
 PAO|                                  MAX_CYCLES                           1000
 PAO|                                  PARAMETERIZATION              EQUIVARIANT
 PAO|                                  PRECONDITION                            F
 PAO|                                  REGULARIZATION                    0.0E+00
 PAO|                                  EPS_PGF                           0.1E-09
 PAO|                                  PENALTY_DISTANCE                  0.1E+00
 PAO|                                  PENALTY_STRENGTH                  0.5E-02
 PAO|                                  LINPOT_PRECONDITION_DELTA         0.0E+00
 PAO|                                  LINPOT_INITGUESS_DELT             0.0E+00
 PAO|                                  LINPOT_REGULARIZATION_DELTA       0.0E+00
 PAO|                                  LINPOT_REGULARIZATION_STRENGTH    0.0E+00
 PAO|                                  OPTIMIZER                              CG
 PAO|                                  CG_INIT_STEPS                           2
 PAO|                                  CG_RESET_LIMIT                    0.1E+00
 PAO|                                  CHECK_UNITARY_TOL                -0.1E+01
 PAO|                                  CHECK_GRADIENT_TOL               -0.1E+01
 PAO|                                  NUM_GRADIENT_ORDER                      2
 PAO|                                  NUM_GRADIENT_EPS                  0.1E-07
 PAO|                                  PRINT%RESTART%WRITE_CYCLES            100
 PAO|                                  RESTART_FILE 
 PAO|                                  PREOPT_DM_FILE 2H2O_ref_LS_DM_SPIN_1_RESTART.dm
 PAO|                                  MACHINE_LEARNING%METHOD       GAUSSIAN_PR
 PAO|                                  MACHINE_LEARNING%PRIOR               ZERO
 PAO|                                  MACHINE_LEARNING%DESCRIPTOR     POTENTIAL
 PAO|                                  MACHINE_LEARNING%TOLERANCE        0.1E-01
 PAO|                                  MACHINE_LEARNING%GP_NOISE_VAR     0.1E+00
 PAO|                                  MACHINE_LEARNING%GP_SCALE         0.5E-01
 

 Calculating atomic Fock matrix for atomic kind: O

 Electronic structure
    Total number of core electrons                                          2.00
    Total number of valence electrons                                       6.00
    Total number of electrons                                               8.00
    Multiplicity                                                   not specified
    S   [  2.00] 2.00
    P      4.00


 *******************************************************************************
                  Iteration          Convergence                     Energy [au]
 *******************************************************************************
                          1        0.708315                     -15.576645311500
                          2        0.608879                     -15.587933561584
                          3        0.102828E-01                 -15.656849565404
                          4        0.113889E-02                 -15.656866888140
                          5        0.434197E-03                 -15.656867072159
                          6        0.263771E-03                 -15.656867091904
                          7        0.478536E-06                 -15.656867103452

 Energy components [Hartree]           Total Energy ::          -15.656867103452
                                        Band Energy ::           -3.000198112285
                                     Kinetic Energy ::           11.759971203220
                                   Potential Energy ::          -27.416838306672
                                      Virial (-V/T) ::            2.331369510426
                                        Core Energy ::          -26.140716385623
                                          XC Energy ::           -3.154051012914
                                     Coulomb Energy ::           13.637900295084
                       Total Pseudopotential Energy ::          -37.935781716540
                       Local Pseudopotential Energy ::          -39.218907440693
                    Nonlocal Pseudopotential Energy ::            1.283125724153
                                        Confinement ::            0.350941276976

 Orbital energies  State     L     Occupation   Energy[a.u.]          Energy[eV]

                       1     0          2.000      -0.864471          -23.523463

                       1     1          4.000      -0.317814           -8.648154


 Total Electron Density at R=0:                                         0.000068

 Calculating atomic Fock matrix for atomic kind: H

 Electronic structure
    Total number of core electrons                                          0.00
    Total number of valence electrons                                       1.00
    Total number of electrons                                               1.00
    Multiplicity                                                   not specified
    S      1.00


 *******************************************************************************
                  Iteration          Convergence                     Energy [au]
 *******************************************************************************
                          1        0.437545E-02                  -0.424159432110
                          2        0.531356E-03                  -0.424178438213
                          3        0.259176E-06                  -0.424178722480

 Energy components [Hartree]           Total Energy ::           -0.424178722480
                                        Band Energy ::           -0.199015229016
                                     Kinetic Energy ::            0.464007633961
                                   Potential Energy ::           -0.888186356441
                                      Virial (-V/T) ::            1.914163240935
                                        Core Energy ::           -0.479160803564
                                          XC Energy ::           -0.244352904054
                                     Coulomb Energy ::            0.299334985138
                       Total Pseudopotential Energy ::           -0.962295316385
                       Local Pseudopotential Energy ::           -0.962295316385
                    Nonlocal Pseudopotential Energy ::            0.000000000000
                                        Confinement ::            0.191268788606

 Orbital energies  State     L     Occupation   Energy[a.u.]          Energy[eV]

                       1     0          1.000      -0.199015           -5.415480


 Total Electron Density at R=0:                                         0.242907
 PAO| Made initial guess for matrix_X with norm:   4.8989794855663558     

     Lanczos converged:  T threshold:   0.100E-02
     Est. extremal eigenvalues:    0.337E+01   0.113E+00
     Est. condition number :    0.298E+02

 Order=           3
     NS sqrt iter    1 1.00000000   0.822E+00       0.001       64.512
     NS sqrt iter    2 1.00000000   0.440E+00       0.001      110.592
     NS sqrt iter    3 1.00000000   0.171E+00       0.001      110.592
     NS sqrt iter    4 1.00000000   0.209E-01       0.001      110.592
     NS sqrt iter    5 1.00000000   0.569E-04       0.001       94.720
     Symmetrizing Results
     Final NS sqrt iter    5 1.00000000   0.345E-08

 PAO| Read restart DM 2H2O_ref_LS_DM_SPIN_1_RESTART.dm with checksum:    64.019117262660956     
 PAO| Quickstep energy from restart density:  -34.450760000663202     
 PAO| ======================= Iteration:         1 =============================

     Lanczos converged:  T threshold:   0.100E-02
     Est. extremal eigenvalues:    0.337E+01   0.113E+00
     Est. condition number :    0.298E+02

 Order=           3
     NS sqrt iter    1 1.00000000   0.822E+00       0.001       64.512
     NS sqrt iter    2 1.00000000   0.440E+00       0.001      110.592
     NS sqrt iter    3 1.00000000   0.171E+00       0.001      110.592
     NS sqrt iter    4 1.00000000   0.209E-01       0.001      110.592
     NS sqrt iter    5 1.00000000   0.569E-04       0.001       94.720
     Symmetrizing Results
     Final NS sqrt iter    5 1.00000000   0.345E-08

     Est. extremal eigenvalues     -0.91943     1.91208  converged:  T
     TRS4 it   1 1.00000000   0.894E+00       0.000       16.128   0.100E-07
     TRS4 it   2 1.00000000   0.699E+00       0.000       32.256   0.100E-07
     TRS4 it   3 1.00000000   0.501E+00       0.000       32.256   0.100E-07
     TRS4 it   4 1.00000000   0.314E+00       0.000       32.256   0.100E-07
     TRS4 it   5 1.00000000   0.156E+00       0.000       32.256   0.100E-07
     TRS4 it   6 1.00000000   0.489E-01       0.000       32.256   0.100E-07
     TRS4 it   7 1.00000000   0.664E-02       0.000       32.256   0.100E-07
     TRS4 it   8 1.00000000   0.173E-03       0.000       32.256   0.100E-07
     TRS4 it   9 1.00000000   0.132E-06       0.000       32.256   0.100E-07
     TRS4 it  10 1.00000000   0.788E-13       0.000       32.256   0.100E-07
     Final TRS4 iteration   10 1.00000000   0.788E-13
     Chemical potential (mu):      -0.06381
 
 PAO| energy:  -7.6176706171662989      penalty:   2.8965986363584026E-033
 PAO|CG| warming up with steepest descent
 PAO|CG| beta:    0.0000000000000000     
 PAO| norm of gradient:  0.78388478004356110     
 PAO|LS| adapt:  T F F
 PAO|LS| adapt: scan_steps:    0.0000000000000000        0.0000000000000000        0.0000000000000000     
 PAO|LS| adapt: energies:   -7.6176706171662989        0.0000000000000000        0.0000000000000000     
 PAO| ======================= Iteration:         2 =============================

     Lanczos converged:  T threshold:   0.100E-02
     Est. extremal eigenvalues:    0.328E+01   0.125E+00
     Est. condition number :    0.262E+02

 Order=           3
     NS sqrt iter    1 1.00000000   0.805E+00       0.001       64.512
     NS sqrt iter    2 1.00000000   0.424E+00       0.001      110.592
     NS sqrt iter    3 1.00000000   0.153E+00       0.001      110.592
     NS sqrt iter    4 1.00000000   0.145E-01       0.001      110.592
     NS sqrt iter    5 1.00000000   0.189E-04       0.001       82.944
     Symmetrizing Results
     Final NS sqrt iter    5 1.00000000   0.540E-09

     Est. extremal eigenvalues     -0.92310     1.85950  converged:  T
     TRS4 it   1 1.00000000   0.892E+00       0.000       16.128   0.100E-07
     TRS4 it   2 1.00000000   0.681E+00       0.000       32.256   0.100E-07
     TRS4 it   3 1.00000000   0.486E+00       0.000       32.256   0.100E-07
     TRS4 it   4 1.00000000   0.295E+00       0.000       32.256   0.100E-07
     TRS4 it   5 1.00000000   0.137E+00       0.000       32.256   0.100E-07
     TRS4 it   6 1.00000000   0.379E-01       0.000       32.256   0.100E-07
     TRS4 it   7 1.00000000   0.404E-02       0.000       32.256   0.100E-07
     TRS4 it   8 1.00000000   0.646E-04       0.000       32.256   0.100E-07
     TRS4 it   9 1.00000000   0.185E-07       0.000       32.256   0.100E-07
     Final TRS4 iteration    9 1.00000000   0.185E-07
     Chemical potential (mu):      -0.05190
 
 PAO| energy:  -7.6732254472189751      penalty:   2.2550614571172942E-008
 PAO|LS| adapt:  T T F
 PAO|LS| adapt: scan_steps:    0.0000000000000000       0.10000000000000001        0.0000000000000000     
 PAO|LS| adapt: energies:   -7.6176706171662989       -7.6732254472189751        0.0000000000000000     
 PAO| ======================= Iteration:         3 =============================

     Lanczos converged:  T threshold:   0.100E-02
     Est. extremal eigenvalues:    0.319E+01   0.136E+00
     Est. condition number :    0.234E+02

 Order=           3
     NS sqrt iter    1 1.00000000   0.787E+00       0.001       64.512
     NS sqrt iter    2 1.00000000   0.408E+00       0.001      110.592
     NS sqrt iter    3 1.00000000   0.136E+00       0.001      110.592
     NS sqrt iter    4 1.00000000   0.101E-01       0.001      110.592
     NS sqrt iter    5 1.00000000   0.661E-05       0.001       82.944
     Symmetrizing Results
     Final NS sqrt iter    5 1.00000000   0.673E-10

     Est. extremal eigenvalues     -0.92653     1.81715  converged:  T
     TRS4 it   1 1.00000000   0.890E+00       0.000       16.128   0.100E-07
     TRS4 it   2 1.00000000   0.666E+00       0.000       32.256   0.100E-07
     TRS4 it   3 1.00000000   0.471E+00       0.000       32.256   0.100E-07
     TRS4 it   4 1.00000000   0.276E+00       0.000       32.256   0.100E-07
     TRS4 it   5 1.00000000   0.119E+00       0.000       32.256   0.100E-07
     TRS4 it   6 1.00000000   0.286E-01       0.000       32.256   0.100E-07
     TRS4 it   7 1.00000000   0.229E-02       0.000       32.256   0.100E-07
     TRS4 it   8 1.00000000   0.208E-04       0.000       32.256   0.100E-07
     TRS4 it   9 1.00000000   0.192E-08       0.000       32.256   0.100E-07
     Final TRS4 iteration    9 1.00000000   0.192E-08
     Chemical potential (mu):      -0.03904
 
 PAO| energy:  -7.7163323216564415      penalty:   3.6080993840585727E-007
 PAO|LS| adapt:  T T F
 PAO|LS| adapt: scan_steps:    0.0000000000000000       0.20000000000000001        0.0000000000000000     
 PAO|LS| adapt: energies:   -7.6176706171662989       -7.7163323216564415        0.0000000000000000     
 PAO| ======================= Iteration:         4 =============================

     Lanczos converged:  T threshold:   0.100E-02
     Est. extremal eigenvalues:    0.299E+01   0.154E+00
     Est. condition number :    0.194E+02

 Order=           3
     NS sqrt iter    1 1.00000000   0.750E+00       0.001       64.512
     NS sqrt iter    2 1.00000000   0.373E+00       0.001      110.592
     NS sqrt iter    3 1.00000000   0.106E+00       0.001      110.592
     NS sqrt iter    4 1.00000000   0.499E-02       0.001      110.592
     NS sqrt iter    5 1.00000000   0.996E-06       0.001       82.944
     Symmetrizing Results
     Final NS sqrt iter    5 1.00000000   0.167E-11

     Est. extremal eigenvalues     -0.93186     1.75528  converged:  T
     TRS4 it   1 1.00000000   0.888E+00       0.000       16.128   0.100E-07
     TRS4 it   2 1.00000000   0.639E+00       0.000       32.256   0.100E-07
     TRS4 it   3 1.00000000   0.444E+00       0.000       32.256   0.100E-07
     TRS4 it   4 1.00000000   0.240E+00       0.000       32.256   0.100E-07
     TRS4 it   5 1.00000000   0.884E-01       0.000       32.256   0.100E-07
     TRS4 it   6 1.00000000   0.152E-01       0.000       32.256   0.100E-07
     TRS4 it   7 1.00000000   0.613E-03       0.000       32.256   0.100E-07
     TRS4 it   8 1.00000000   0.145E-05       0.000       32.256   0.100E-07
     TRS4 it   9 1.00000000   0.929E-11       0.000       32.256   0.100E-07
     Final TRS4 iteration    9 1.00000000   0.929E-11
     Chemical potential (mu):      -0.01072
 
 PAO| energy:  -7.7635914948323457      penalty:   5.7729598566423674E-006
 PAO|LS| Need extra step
 PAO|LS| adapt:  T T F
 PAO|LS| adapt: scan_steps:    0.0000000000000000       0.40000000000000002        0.0000000000000000     
 PAO|LS| adapt: energies:   -7.6176706171662989       -7.7635914948323457        0.0000000000000000     
 PAO| ======================= Iteration:         5 =============================

     Lanczos converged:  T threshold:   0.100E-02
     Est. extremal eigenvalues:    0.263E+01   0.181E+00
     Est. condition number :    0.145E+02

 Order=           3
     NS sqrt iter    1 1.00000000   0.684E+00       0.001       64.512
     NS sqrt iter    2 1.00000000   0.311E+00       0.001      110.592
     NS sqrt iter    3 1.00000000   0.657E-01       0.001      110.592
     NS sqrt iter    4 1.00000000   0.139E-02       0.001      110.592
     NS sqrt iter    5 1.00000000   0.275E-07       0.001       57.472
     Symmetrizing Results
     Final NS sqrt iter    5 1.00000000   0.392E-08

     Est. extremal eigenvalues     -0.93309     1.68504  converged:  T
     TRS4 it   1 1.00000000   0.885E+00       0.000       16.128   0.100E-07
     TRS4 it   2 1.00000000   0.604E+00       0.000       32.256   0.100E-07
     TRS4 it   3 1.00000000   0.398E+00       0.000       32.256   0.100E-07
     TRS4 it   4 1.00000000   0.185E+00       0.000       32.256   0.100E-07
     TRS4 it   5 1.00000000   0.488E-01       0.000       32.256   0.100E-07
     TRS4 it   6 1.00000000   0.421E-02       0.000       32.256   0.100E-07
     TRS4 it   7 1.00000000   0.402E-04       0.000       32.256   0.100E-07
     TRS4 it   8 1.00000000   0.466E-08       0.000       32.256   0.100E-07
     Final TRS4 iteration    8 1.00000000   0.466E-08
     Chemical potential (mu):       0.03754
 
 PAO| energy:  -7.7087860693920467      penalty:   9.2367364443522390E-005
 PAO|LS| Need extra step
 PAO|LS| adapt:  T T T
 PAO|LS| adapt: scan_steps:    0.0000000000000000       0.40000000000000002       0.80000000000000004     
 PAO|LS| adapt: energies:   -7.6176706171662989       -7.7635914948323457       -7.7087860693920467     
 PAO|LS| adapt: suggested step_size:   0.49078576231982352     
 PAO|LS| adapt: predicted energy  -7.7687614859507397     
 PAO| ======================= Iteration:         6 =============================

     Lanczos converged:  T threshold:   0.100E-02
     Est. extremal eigenvalues:    0.290E+01   0.161E+00
     Est. condition number :    0.181E+02

 Order=           3
     NS sqrt iter    1 1.00000000   0.733E+00       0.001       64.512
     NS sqrt iter    2 1.00000000   0.358E+00       0.001      110.592
     NS sqrt iter    3 1.00000000   0.951E-01       0.001      110.592
     NS sqrt iter    4 1.00000000   0.368E-02       0.001      110.592
     NS sqrt iter    5 1.00000000   0.438E-06       0.001       82.816
     Symmetrizing Results
     Final NS sqrt iter    5 1.00000000   0.869E-11

     Est. extremal eigenvalues     -0.93334     1.73448  converged:  T
     TRS4 it   1 1.00000000   0.887E+00       0.000       16.128   0.100E-07
     TRS4 it   2 1.00000000   0.630E+00       0.000       32.256   0.100E-07
     TRS4 it   3 1.00000000   0.432E+00       0.000       32.256   0.100E-07
     TRS4 it   4 1.00000000   0.225E+00       0.000       32.256   0.100E-07
     TRS4 it   5 1.00000000   0.768E-01       0.000       32.256   0.100E-07
     TRS4 it   6 1.00000000   0.112E-01       0.000       32.256   0.100E-07
     TRS4 it   7 1.00000000   0.319E-03       0.000       32.256   0.100E-07
     TRS4 it   8 1.00000000   0.374E-06       0.000       32.256   0.100E-07
     TRS4 it   9 1.00000000   0.616E-12       0.000       32.256   0.100E-07
     Final TRS4 iteration    9 1.00000000   0.616E-12
     Chemical potential (mu):       0.00293
 
 PAO| energy:  -7.7680229147539404      penalty:   1.3083574311698360E-005
 PAO|CG| warming up with steepest descent
 PAO|CG| beta:    0.0000000000000000     
 PAO| norm of gradient:  0.41740053151327289     
 PAO| energy improvement: -0.15035229758764146     
 PAO| step      6                   -7.768022915  0.261E-01  0.491E+00     0.061
 PAO|LS| adapt:  T F F
 PAO|LS| adapt: scan_steps:    0.0000000000000000        0.0000000000000000        0.0000000000000000     
 PAO|LS| adapt: energies:   -7.7680229147539404        0.0000000000000000        0.0000000000000000     
 PAO| ======================= Iteration:         7 =============================

     Lanczos converged:  T threshold:   0.100E-02
     Est. extremal eigenvalues:    0.281E+01   0.175E+00
     Est. condition number :    0.161E+02

 Order=           3
     NS sqrt iter    1 1.00000000   0.716E+00       0.001       64.512
     NS sqrt iter    2 1.00000000   0.337E+00       0.001      110.592
     NS sqrt iter    3 1.00000000   0.795E-01       0.001      110.592
     NS sqrt iter    4 1.00000000   0.224E-02       0.001      110.592
     NS sqrt iter    5 1.00000000   0.108E-06       0.001       76.544
     Symmetrizing Results
     Final NS sqrt iter    5 1.00000000   0.109E-08

     Est. extremal eigenvalues     -0.93504     1.72043  converged:  T
     TRS4 it   1 1.00000000   0.886E+00       0.000       16.128   0.100E-07
     TRS4 it   2 1.00000000   0.628E+00       0.000       32.256   0.100E-07
     TRS4 it   3 1.00000000   0.432E+00       0.000       32.256   0.100E-07
     TRS4 it   4 1.00000000   0.226E+00       0.000       32.256   0.100E-07
     TRS4 it   5 1.00000000   0.775E-01       0.000       32.256   0.100E-07
     TRS4 it   6 1.00000000   0.111E-01       0.000       32.256   0.100E-07
     TRS4 it   7 1.00000000   0.300E-03       0.000       32.256   0.100E-07
     TRS4 it   8 1.00000000   0.312E-06       0.000       32.256   0.100E-07
     TRS4 it   9 1.00000000   0.418E-12       0.000       32.256   0.100E-07
     Final TRS4 iteration    9 1.00000000   0.418E-12
     Chemical potential (mu):       0.00488
 
 PAO| energy:  -7.7619154974430318      penalty:   1.9795792198803128E-005
 PAO|LS| adapt:  T F T
 PAO|LS| adapt: scan_steps:    0.0000000000000000        0.0000000000000000       0.49078576231982352     
 PAO|LS| adapt: energies:   -7.7680229147539404        0.0000000000000000       -7.7619154974430318     
 PAO| ======================= Iteration:         8 =============================

     Lanczos converged:  T threshold:   0.100E-02
     Est. extremal eigenvalues:    0.286E+01   0.168E+00
     Est. condition number :    0.170E+02

 Order=           3
     NS sqrt iter    1 1.00000000   0.724E+00       0.001       64.512
     NS sqrt iter    2 1.00000000   0.348E+00       0.001      110.592
     NS sqrt iter    3 1.00000000   0.871E-01       0.001      110.592
     NS sqrt iter    4 1.00000000   0.289E-02       0.001      110.592
     NS sqrt iter    5 1.00000000   0.222E-06       0.001       81.280
     Symmetrizing Results
     Final NS sqrt iter    5 1.00000000   0.336E-09

     Est. extremal eigenvalues     -0.93515     1.72689  converged:  T
     TRS4 it   1 1.00000000   0.886E+00       0.000       16.128   0.100E-07
     TRS4 it   2 1.00000000   0.628E+00       0.000       32.256   0.100E-07
     TRS4 it   3 1.00000000   0.431E+00       0.000       32.256   0.100E-07
     TRS4 it   4 1.00000000   0.225E+00       0.000       32.256   0.100E-07
     TRS4 it   5 1.00000000   0.769E-01       0.000       32.256   0.100E-07
     TRS4 it   6 1.00000000   0.112E-01       0.000       32.256   0.100E-07
     TRS4 it   7 1.00000000   0.317E-03       0.000       32.256   0.100E-07
     TRS4 it   8 1.00000000   0.362E-06       0.000       32.256   0.100E-07
     TRS4 it   9 1.00000000   0.573E-12       0.000       32.256   0.100E-07
     Final TRS4 iteration    9 1.00000000   0.573E-12
     Chemical potential (mu):       0.00345
 
 PAO| energy:  -7.7876326861448772      penalty:   1.4184772116747234E-005
 PAO|LS| adapt:  T T T
 PAO|LS| adapt: scan_steps:    0.0000000000000000       0.24539288115991176       0.49078576231982352     
 PAO|LS| adapt: energies:   -7.7680229147539404       -7.7876326861448772       -7.7619154974430318     
 PAO|LS| adapt: suggested step_size:   0.22886059301062961     
 PAO|LS| adapt: predicted energy  -7.7877355513771063     
 PAO| ======================= Iteration:         9 =============================

     Lanczos converged:  T threshold:   0.100E-02
     Est. extremal eigenvalues:    0.286E+01   0.167E+00
     Est. condition number :    0.171E+02

 Order=           3
     NS sqrt iter    1 1.00000000   0.725E+00       0.001       64.512
     NS sqrt iter    2 1.00000000   0.348E+00       0.001      110.592
     NS sqrt iter    3 1.00000000   0.876E-01       0.001      110.592
     NS sqrt iter    4 1.00000000   0.294E-02       0.001      110.592
     NS sqrt iter    5 1.00000000   0.233E-06       0.001       81.408
     Symmetrizing Results
     Final NS sqrt iter    5 1.00000000   0.346E-09

     Est. extremal eigenvalues     -0.93510     1.72736  converged:  T
     TRS4 it   1 1.00000000   0.886E+00       0.000       16.128   0.100E-07
     TRS4 it   2 1.00000000   0.628E+00       0.000       32.256   0.100E-07
     TRS4 it   3 1.00000000   0.431E+00       0.000       32.256   0.100E-07
     TRS4 it   4 1.00000000   0.225E+00       0.000       32.256   0.100E-07
     TRS4 it   5 1.00000000   0.769E-01       0.000       32.256   0.100E-07
     TRS4 it   6 1.00000000   0.112E-01       0.000       32.256   0.100E-07
     TRS4 it   7 1.00000000   0.318E-03       0.000       32.256   0.100E-07
     TRS4 it   8 1.00000000   0.365E-06       0.000       32.256   0.100E-07
     TRS4 it   9 1.00000000   0.580E-12       0.000       32.256   0.100E-07
     Final TRS4 iteration    9 1.00000000   0.580E-12
     Chemical potential (mu):       0.00339
 
 PAO| energy:  -7.7877602442070613      penalty:   1.4008349170669441E-005
 PAO|CG| trace_G_new    3.6814753213743875E-002
 PAO|CG| trace_G_prev   0.17422320370756270     
 PAO|CG| trace_G_mix   -1.4442107857096961E-003
 PAO|CG| trace_D   0.17422320370756270     
 PAO|CG| trace_D_Gnew   1.4442107857096961E-003
 PAO|CG| beta:   0.21959740829741625     
 PAO| norm of gradient:  0.19187171030077330     
 PAO| energy improvement:  -1.9737329453120900E-002
 PAO| step      9                   -7.787760244  0.120E-01  0.229E+00     0.038
 PAO|LS| adapt:  T F F
 PAO|LS| adapt: scan_steps:    0.0000000000000000        0.0000000000000000        0.0000000000000000     
 PAO|LS| adapt: energies:   -7.7877602442070613        0.0000000000000000        0.0000000000000000     
 PAO| ======================= Iteration:        10 =============================

     Lanczos converged:  T threshold:   0.100E-02
     Est. extremal eigenvalues:    0.282E+01   0.173E+00
     Est. condition number :    0.163E+02

 Order=           3
     NS sqrt iter    1 1.00000000   0.717E+00       0.001       64.512
     NS sqrt iter    2 1.00000000   0.340E+00       0.001      110.592
     NS sqrt iter    3 1.00000000   0.820E-01       0.001      110.592
     NS sqrt iter    4 1.00000000   0.242E-02       0.001      110.592
     NS sqrt iter    5 1.00000000   0.130E-06       0.001       77.952
     Symmetrizing Results
     Final NS sqrt iter    5 1.00000000   0.124E-08

     Est. extremal eigenvalues     -0.93599     1.72359  converged:  T
     TRS4 it   1 1.00000000   0.884E+00       0.000       16.128   0.100E-07
     TRS4 it   2 1.00000000   0.627E+00       0.000       32.256   0.100E-07
     TRS4 it   3 1.00000000   0.430E+00       0.000       32.256   0.100E-07
     TRS4 it   4 1.00000000   0.223E+00       0.000       32.256   0.100E-07
     TRS4 it   5 1.00000000   0.750E-01       0.000       32.256   0.100E-07
     TRS4 it   6 1.00000000   0.106E-01       0.000       32.256   0.100E-07
     TRS4 it   7 1.00000000   0.280E-03       0.000       32.256   0.100E-07
     TRS4 it   8 1.00000000   0.276E-06       0.000       32.256   0.100E-07
     TRS4 it   9 1.00000000   0.329E-12       0.000       32.256   0.100E-07
     Final TRS4 iteration    9 1.00000000   0.329E-12
     Chemical potential (mu):       0.00643
 
 PAO| energy:  -7.7927876036926609      penalty:   1.4541780413325824E-005
 PAO|LS| adapt:  T T F
 PAO|LS| adapt: scan_steps:    0.0000000000000000       0.22886059301062961        0.0000000000000000     
 PAO|LS| adapt: energies:   -7.7877602442070613       -7.7927876036926609        0.0000000000000000     
 PAO| ======================= Iteration:        11 =============================

     Lanczos converged:  T threshold:   0.100E-02
     Est. extremal eigenvalues:    0.279E+01   0.179E+00
     Est. condition number :    0.156E+02

 Order=           3
     NS sqrt iter    1 1.00000000   0.709E+00       0.001       64.512
     NS sqrt iter    2 1.00000000   0.332E+00       0.001      110.592
     NS sqrt iter    3 1.00000000   0.766E-01       0.001      110.592
     NS sqrt iter    4 1.00000000   0.198E-02       0.001      110.592
     NS sqrt iter    5 1.00000000   0.713E-07       0.001       73.216
     Symmetrizing Results
     Final NS sqrt iter    5 1.00000000   0.714E-09

     Est. extremal eigenvalues     -0.93591     1.72097  converged:  T
     TRS4 it   1 1.00000000   0.883E+00       0.000       16.128   0.100E-07
     TRS4 it   2 1.00000000   0.626E+00       0.000       32.256   0.100E-07
     TRS4 it   3 1.00000000   0.428E+00       0.000       32.256   0.100E-07
     TRS4 it   4 1.00000000   0.221E+00       0.000       32.256   0.100E-07
     TRS4 it   5 1.00000000   0.731E-01       0.000       32.256   0.100E-07
     TRS4 it   6 1.00000000   0.100E-01       0.000       32.256   0.100E-07
     TRS4 it   7 1.00000000   0.246E-03       0.000       32.256   0.100E-07
     TRS4 it   8 1.00000000   0.207E-06       0.000       32.256   0.100E-07
     TRS4 it   9 1.00000000   0.182E-12       0.000       32.256   0.100E-07
     Final TRS4 iteration    9 1.00000000   0.182E-12
     Chemical potential (mu):       0.00959
 
 PAO| energy:  -7.7914059730713321      penalty:   1.5739995026344681E-005
 PAO|LS| adapt:  T T T
 PAO|LS| adapt: scan_steps:    0.0000000000000000       0.22886059301062961       0.45772118602125922     
 PAO|LS| adapt: energies:   -7.7877602442070613       -7.7927876036926609       -7.7914059730713321     
 PAO|LS| adapt: suggested step_size:   0.29395381798932063     
 PAO|LS| adapt: predicted energy  -7.7930468360118335     
 PAO| ======================= Iteration:        12 =============================

     Lanczos converged:  T threshold:   0.100E-02
     Est. extremal eigenvalues:    0.281E+01   0.175E+00
     Est. condition number :    0.161E+02

 Order=           3
     NS sqrt iter    1 1.00000000   0.715E+00       0.001       64.512
     NS sqrt iter    2 1.00000000   0.338E+00       0.001      110.592
     NS sqrt iter    3 1.00000000   0.805E-01       0.001      110.592
     NS sqrt iter    4 1.00000000   0.229E-02       0.001      110.592
     NS sqrt iter    5 1.00000000   0.110E-06       0.001       76.288
     Symmetrizing Results
     Final NS sqrt iter    5 1.00000000   0.133E-08

     Est. extremal eigenvalues     -0.93606     1.72273  converged:  T
     TRS4 it   1 1.00000000   0.884E+00       0.000       16.128   0.100E-07
     TRS4 it   2 1.00000000   0.627E+00       0.000       32.256   0.100E-07
     TRS4 it   3 1.00000000   0.429E+00       0.000       32.256   0.100E-07
     TRS4 it   4 1.00000000   0.222E+00       0.000       32.256   0.100E-07
     TRS4 it   5 1.00000000   0.744E-01       0.000       32.256   0.100E-07
     TRS4 it   6 1.00000000   0.104E-01       0.000       32.256   0.100E-07
     TRS4 it   7 1.00000000   0.270E-03       0.000       32.256   0.100E-07
     TRS4 it   8 1.00000000   0.254E-06       0.000       32.256   0.100E-07
     TRS4 it   9 1.00000000   0.277E-12       0.000       32.256   0.100E-07
     Final TRS4 iteration    9 1.00000000   0.277E-12
     Chemical potential (mu):       0.00732
 
 PAO| energy:  -7.7930305952876333      penalty:   1.4807275721360464E-005
 PAO|CG| trace_G_new    1.1791320759110343E-002
 PAO|CG| trace_G_prev    3.6814753213743875E-002
 PAO|CG| trace_G_mix   -4.5561495203517706E-004
 PAO|CG| trace_D    4.4582032661013959E-002
 PAO|CG| trace_D_Gnew   2.0677163597108169E-004
 PAO|CG| beta:   0.33266380029877340     
 PAO| norm of gradient:  0.10858784811897851     
 PAO| energy improvement:  -5.2703510805720555E-003
 PAO| step     12                   -7.793030595  0.679E-02  0.294E+00     0.039
 PAO|LS| adapt:  T F F
 PAO|LS| adapt: scan_steps:    0.0000000000000000        0.0000000000000000        0.0000000000000000     
 PAO|LS| adapt: energies:   -7.7930305952876333        0.0000000000000000        0.0000000000000000     
 PAO| ======================= Iteration:        13 =============================

     Lanczos converged:  T threshold:   0.100E-02
     Est. extremal eigenvalues:    0.278E+01   0.179E+00
     Est. condition number :    0.155E+02

 Order=           3
     NS sqrt iter    1 1.00000000   0.707E+00       0.001       64.512
     NS sqrt iter    2 1.00000000   0.330E+00       0.001      110.592
     NS sqrt iter    3 1.00000000   0.761E-01       0.001      110.592
     NS sqrt iter    4 1.00000000   0.195E-02       0.001      110.592
     NS sqrt iter    5 1.00000000   0.684E-07       0.001       72.704
     Symmetrizing Results
     Final NS sqrt iter    5 1.00000000   0.506E-09

     Est. extremal eigenvalues     -0.93654     1.71637  converged:  T
     TRS4 it   1 1.00000000   0.884E+00       0.000       16.128   0.100E-07
     TRS4 it   2 1.00000000   0.624E+00       0.000       32.256   0.100E-07
     TRS4 it   3 1.00000000   0.425E+00       0.000       32.256   0.100E-07
     TRS4 it   4 1.00000000   0.217E+00       0.000       32.256   0.100E-07
     TRS4 it   5 1.00000000   0.709E-01       0.000       32.256   0.100E-07
     TRS4 it   6 1.00000000   0.942E-02       0.001       32.256   0.100E-07
     TRS4 it   7 1.00000000   0.217E-03       0.000       32.256   0.100E-07
     TRS4 it   8 1.00000000   0.160E-06       0.000       32.256   0.100E-07
     TRS4 it   9 1.00000000   0.109E-12       0.000       32.256   0.100E-07
     Final TRS4 iteration    9 1.00000000   0.109E-12
     Chemical potential (mu):       0.01177
 
 PAO| energy:  -7.7950980470092297      penalty:   1.5111638235113090E-005
 PAO|LS| adapt:  T T F
 PAO|LS| adapt: scan_steps:    0.0000000000000000       0.29395381798932063        0.0000000000000000     
 PAO|LS| adapt: energies:   -7.7930305952876333       -7.7950980470092297        0.0000000000000000     
 PAO| ======================= Iteration:        14 =============================

     Lanczos converged:  T threshold:   0.100E-02
     Est. extremal eigenvalues:    0.274E+01   0.183E+00
     Est. condition number :    0.150E+02

 Order=           3
     NS sqrt iter    1 1.00000000   0.700E+00       0.001       64.512
     NS sqrt iter    2 1.00000000   0.324E+00       0.001      110.592
     NS sqrt iter    3 1.00000000   0.720E-01       0.001      110.592
     NS sqrt iter    4 1.00000000   0.166E-02       0.001      110.592
     NS sqrt iter    5 1.00000000   0.426E-07       0.001       69.376
     Symmetrizing Results
     Final NS sqrt iter    5 1.00000000   0.374E-09

     Est. extremal eigenvalues     -0.93652     1.71027  converged:  T
     TRS4 it   1 1.00000000   0.883E+00       0.000       16.128   0.100E-07
     TRS4 it   2 1.00000000   0.621E+00       0.000       32.256   0.100E-07
     TRS4 it   3 1.00000000   0.421E+00       0.000       32.256   0.100E-07
     TRS4 it   4 1.00000000   0.213E+00       0.000       32.256   0.100E-07
     TRS4 it   5 1.00000000   0.676E-01       0.000       32.256   0.100E-07
     TRS4 it   6 1.00000000   0.850E-02       0.000       32.256   0.100E-07
     TRS4 it   7 1.00000000   0.175E-03       0.000       32.256   0.100E-07
     TRS4 it   8 1.00000000   0.101E-06       0.000       32.256   0.100E-07
     TRS4 it   9 1.00000000   0.425E-13       0.000       32.256   0.100E-07
     Final TRS4 iteration    9 1.00000000   0.425E-13
     Chemical potential (mu):       0.01612
 
 PAO| energy:  -7.7944586829637652      penalty:   1.5895624938823133E-005
 PAO|LS| adapt:  T T T
 PAO|LS| adapt: scan_steps:    0.0000000000000000       0.29395381798932063       0.58790763597864126     
 PAO|LS| adapt: energies:   -7.7930305952876333       -7.7950980470092297       -7.7944586829637652     
 PAO|LS| adapt: suggested step_size:   0.37149729729273195     
 PAO|LS| adapt: predicted energy  -7.7951922275236338     
 PAO| ======================= Iteration:        15 =============================

     Lanczos converged:  T threshold:   0.100E-02
     Est. extremal eigenvalues:    0.277E+01   0.180E+00
     Est. condition number :    0.154E+02

 Order=           3
     NS sqrt iter    1 1.00000000   0.706E+00       0.001       64.512
     NS sqrt iter    2 1.00000000   0.329E+00       0.001      110.592
     NS sqrt iter    3 1.00000000   0.750E-01       0.001      110.592
     NS sqrt iter    4 1.00000000   0.187E-02       0.001      110.592
     NS sqrt iter    5 1.00000000   0.604E-07       0.001       71.680
     Symmetrizing Results
     Final NS sqrt iter    5 1.00000000   0.433E-09

     Est. extremal eigenvalues     -0.93659     1.71474  converged:  T
     TRS4 it   1 1.00000000   0.883E+00       0.000       16.128   0.100E-07
     TRS4 it   2 1.00000000   0.623E+00       0.000       32.256   0.100E-07
     TRS4 it   3 1.00000000   0.424E+00       0.000       32.256   0.100E-07
     TRS4 it   4 1.00000000   0.216E+00       0.000       32.256   0.100E-07
     TRS4 it   5 1.00000000   0.700E-01       0.000       32.256   0.100E-07
     TRS4 it   6 1.00000000   0.916E-02       0.000       32.256   0.100E-07
     TRS4 it   7 1.00000000   0.205E-03       0.000       32.256   0.100E-07
     TRS4 it   8 1.00000000   0.142E-06       0.000       32.256   0.100E-07
     TRS4 it   9 1.00000000   0.847E-13       0.000       32.256   0.100E-07
     Final TRS4 iteration    9 1.00000000   0.847E-13
     Chemical potential (mu):       0.01293
 
 PAO| energy:  -7.7951891262389479      penalty:   1.5268808745781587E-005
 PAO|CG| trace_G_new    2.6299707855758012E-003
 PAO|CG| trace_G_prev    1.1791320759110343E-002
 PAO|CG| trace_G_mix    6.1799915618455793E-005
 PAO|CG| trace_D    1.6587429623146639E-002
 PAO|CG| trace_D_Gnew   3.4060205055024985E-005
 PAO|CG| beta:   0.21780179866391103     
 PAO| norm of gradient:   5.1283240786594221E-002
 PAO| energy improvement:  -2.1585309513145745E-003
 PAO| step     15                   -7.795189126  0.321E-02  0.371E+00     0.039
 PAO|LS| adapt:  T F F
 PAO|LS| adapt: scan_steps:    0.0000000000000000        0.0000000000000000        0.0000000000000000     
 PAO|LS| adapt: energies:   -7.7951891262389479        0.0000000000000000        0.0000000000000000     
 PAO| ======================= Iteration:        16 =============================

     Lanczos converged:  T threshold:   0.100E-02
     Est. extremal eigenvalues:    0.276E+01   0.181E+00
     Est. condition number :    0.153E+02

 Order=           3
     NS sqrt iter    1 1.00000000   0.704E+00       0.001       64.512
     NS sqrt iter    2 1.00000000   0.327E+00       0.001      110.592
     NS sqrt iter    3 1.00000000   0.743E-01       0.001      110.592
     NS sqrt iter    4 1.00000000   0.181E-02       0.001      110.592
     NS sqrt iter    5 1.00000000   0.546E-07       0.001       71.296
     Symmetrizing Results
     Final NS sqrt iter    5 1.00000000   0.403E-09

     Est. extremal eigenvalues     -0.93661     1.71373  converged:  T
     TRS4 it   1 1.00000000   0.884E+00       0.000       16.128   0.100E-07
     TRS4 it   2 1.00000000   0.622E+00       0.000       32.256   0.100E-07
     TRS4 it   3 1.00000000   0.423E+00       0.000       32.256   0.100E-07
     TRS4 it   4 1.00000000   0.214E+00       0.000       32.256   0.100E-07
     TRS4 it   5 1.00000000   0.688E-01       0.000       32.256   0.100E-07
     TRS4 it   6 1.00000000   0.887E-02       0.000       32.256   0.100E-07
     TRS4 it   7 1.00000000   0.193E-03       0.000       32.256   0.100E-07
     TRS4 it   8 1.00000000   0.127E-06       0.000       32.256   0.100E-07
     TRS4 it   9 1.00000000   0.684E-13       0.000       32.256   0.100E-07
     Final TRS4 iteration    9 1.00000000   0.684E-13
     Chemical potential (mu):       0.01376
 
 PAO| energy:  -7.7953123211390567      penalty:   1.5049838031953864E-005
 PAO|LS| adapt:  T T F
 PAO|LS| adapt: scan_steps:    0.0000000000000000       0.37149729729273195        0.0000000000000000     
 PAO|LS| adapt: energies:   -7.7951891262389479       -7.7953123211390567        0.0000000000000000     
 PAO| ======================= Iteration:        17 =============================

     Lanczos converged:  T threshold:   0.100E-02
     Est. extremal eigenvalues:    0.275E+01   0.182E+00
     Est. condition number :    0.152E+02

 Order=           3
     NS sqrt iter    1 1.00000000   0.702E+00       0.001       64.512
     NS sqrt iter    2 1.00000000   0.326E+00       0.001      110.592
     NS sqrt iter    3 1.00000000   0.736E-01       0.001      110.592
     NS sqrt iter    4 1.00000000   0.175E-02       0.001      110.592
     NS sqrt iter    5 1.00000000   0.494E-07       0.001       70.528
     Symmetrizing Results
     Final NS sqrt iter    5 1.00000000   0.403E-09

     Est. extremal eigenvalues     -0.93652     1.71281  converged:  T
     TRS4 it   1 1.00000000   0.884E+00       0.000       16.128   0.100E-07
     TRS4 it   2 1.00000000   0.621E+00       0.000       32.256   0.100E-07
     TRS4 it   3 1.00000000   0.422E+00       0.000       32.256   0.100E-07
     TRS4 it   4 1.00000000   0.213E+00       0.000       32.256   0.100E-07
     TRS4 it   5 1.00000000   0.677E-01       0.000       32.256   0.100E-07
     TRS4 it   6 1.00000000   0.858E-02       0.000       32.256   0.100E-07
     TRS4 it   7 1.00000000   0.182E-03       0.000       32.256   0.100E-07
     TRS4 it   8 1.00000000   0.114E-06       0.000       32.256   0.100E-07
     TRS4 it   9 1.00000000   0.551E-13       0.000       32.256   0.100E-07
     Final TRS4 iteration    9 1.00000000   0.551E-13
     Chemical potential (mu):       0.01457
 
 PAO| energy:  -7.7937278131986929      penalty:   1.4958366273368338E-005
 PAO|LS| adapt:  T T T
 PAO|LS| adapt: scan_steps:    0.0000000000000000       0.37149729729273195       0.74299459458546391     
 PAO|LS| adapt: energies:   -7.7951891262389479       -7.7953123211390567       -7.7937278131986929     
 PAO|LS| adapt: suggested step_size:   0.21254872846470627     
 PAO|LS| adapt: predicted energy  -7.7954686302280134     
 PAO| ======================= Iteration:        18 =============================

     Lanczos converged:  T threshold:   0.100E-02
     Est. extremal eigenvalues:    0.276E+01   0.180E+00
     Est. condition number :    0.153E+02

 Order=           3
     NS sqrt iter    1 1.00000000   0.704E+00       0.001       64.512
     NS sqrt iter    2 1.00000000   0.328E+00       0.001      110.592
     NS sqrt iter    3 1.00000000   0.746E-01       0.001      110.592
     NS sqrt iter    4 1.00000000   0.183E-02       0.001      110.592
     NS sqrt iter    5 1.00000000   0.570E-07       0.001       71.424
     Symmetrizing Results
     Final NS sqrt iter    5 1.00000000   0.409E-09

     Est. extremal eigenvalues     -0.93662     1.71415  converged:  T
     TRS4 it   1 1.00000000   0.883E+00       0.000       16.128   0.100E-07
     TRS4 it   2 1.00000000   0.622E+00       0.000       32.256   0.100E-07
     TRS4 it   3 1.00000000   0.423E+00       0.000       32.256   0.100E-07
     TRS4 it   4 1.00000000   0.215E+00       0.000       32.256   0.100E-07
     TRS4 it   5 1.00000000   0.694E-01       0.000       32.256   0.100E-07
     TRS4 it   6 1.00000000   0.899E-02       0.000       32.256   0.100E-07
     TRS4 it   7 1.00000000   0.198E-03       0.000       32.256   0.100E-07
     TRS4 it   8 1.00000000   0.133E-06       0.000       32.256   0.100E-07
     TRS4 it   9 1.00000000   0.757E-13       0.000       32.256   0.100E-07
     Final TRS4 iteration    9 1.00000000   0.757E-13
     Chemical potential (mu):       0.01341
 
 PAO| energy:  -7.7954681714324323      penalty:   1.5128206064210376E-005
 PAO|CG| trace_G_new    7.2687591335000748E-004
 PAO|CG| trace_G_prev    2.6299707855758012E-003
 PAO|CG| trace_G_mix    1.5000862937460141E-006
 PAO|CG| trace_D    3.4020022790441683E-003
 PAO|CG| trace_D_Gnew  -1.7229008951524113E-006
 PAO|CG| beta:   0.27581136301384768     
 PAO| norm of gradient:   2.6960636367675143E-002
 PAO| energy improvement:  -2.7904519348442847E-004
 PAO| step     18                   -7.795468171  0.169E-02  0.213E+00     0.038
 PAO|LS| adapt:  T F F
 PAO|LS| adapt: scan_steps:    0.0000000000000000        0.0000000000000000        0.0000000000000000     
 PAO|LS| adapt: energies:   -7.7954681714324323        0.0000000000000000        0.0000000000000000     
 PAO| ======================= Iteration:        19 =============================

     Lanczos converged:  T threshold:   0.100E-02
     Est. extremal eigenvalues:    0.276E+01   0.180E+00
     Est. condition number :    0.153E+02

 Order=           3
     NS sqrt iter    1 1.00000000   0.704E+00       0.001       64.512
     NS sqrt iter    2 1.00000000   0.328E+00       0.001      110.592
     NS sqrt iter    3 1.00000000   0.748E-01       0.001      110.592
     NS sqrt iter    4 1.00000000   0.184E-02       0.001      110.592
     NS sqrt iter    5 1.00000000   0.575E-07       0.001       71.424
     Symmetrizing Results
     Final NS sqrt iter    5 1.00000000   0.415E-09

     Est. extremal eigenvalues     -0.93662     1.71438  converged:  T
     TRS4 it   1 1.00000000   0.884E+00       0.000       16.128   0.100E-07
     TRS4 it   2 1.00000000   0.622E+00       0.000       32.256   0.100E-07
     TRS4 it   3 1.00000000   0.423E+00       0.000       32.256   0.100E-07
     TRS4 it   4 1.00000000   0.215E+00       0.000       32.256   0.100E-07
     TRS4 it   5 1.00000000   0.693E-01       0.000       32.256   0.100E-07
     TRS4 it   6 1.00000000   0.898E-02       0.000       32.256   0.100E-07
     TRS4 it   7 1.00000000   0.199E-03       0.000       32.256   0.100E-07
     TRS4 it   8 1.00000000   0.135E-06       0.000       32.256   0.100E-07
     TRS4 it   9 1.00000000   0.775E-13       0.000       32.256   0.100E-07
     Final TRS4 iteration    9 1.00000000   0.775E-13
     Chemical potential (mu):       0.01313
 
 PAO| energy:  -7.7955861121837211      penalty:   1.4838887952586035E-005
 PAO|LS| adapt:  T T F
 PAO|LS| adapt: scan_steps:    0.0000000000000000       0.21254872846470627        0.0000000000000000     
 PAO|LS| adapt: energies:   -7.7954681714324323       -7.7955861121837211        0.0000000000000000     
 PAO| ======================= Iteration:        20 =============================

     Lanczos converged:  T threshold:   0.100E-02
     Est. extremal eigenvalues:    0.277E+01   0.180E+00
     Est. condition number :    0.153E+02

 Order=           3
     NS sqrt iter    1 1.00000000   0.704E+00       0.001       64.512
     NS sqrt iter    2 1.00000000   0.328E+00       0.001      110.592
     NS sqrt iter    3 1.00000000   0.750E-01       0.001      110.592
     NS sqrt iter    4 1.00000000   0.185E-02       0.001      110.592
     NS sqrt iter    5 1.00000000   0.580E-07       0.001       71.808
     Symmetrizing Results
     Final NS sqrt iter    5 1.00000000   0.425E-09

     Est. extremal eigenvalues     -0.93661     1.71461  converged:  T
     TRS4 it   1 1.00000000   0.884E+00       0.000       16.128   0.100E-07
     TRS4 it   2 1.00000000   0.622E+00       0.000       32.256   0.100E-07
     TRS4 it   3 1.00000000   0.423E+00       0.000       32.256   0.100E-07
     TRS4 it   4 1.00000000   0.215E+00       0.000       32.256   0.100E-07
     TRS4 it   5 1.00000000   0.692E-01       0.000       32.256   0.100E-07
     TRS4 it   6 1.00000000   0.897E-02       0.000       32.256   0.100E-07
     TRS4 it   7 1.00000000   0.199E-03       0.000       32.256   0.100E-07
     TRS4 it   8 1.00000000   0.137E-06       0.000       32.256   0.100E-07
     TRS4 it   9 1.00000000   0.812E-13       0.000       32.256   0.100E-07
     Final TRS4 iteration    9 1.00000000   0.812E-13
     Chemical potential (mu):       0.01285
 
 PAO| energy:  -7.7956303503785085      penalty:   1.4561997953476100E-005
 PAO|LS| adapt:  T T F
 PAO|LS| adapt: scan_steps:    0.0000000000000000       0.42509745692941253        0.0000000000000000     
 PAO|LS| adapt: energies:   -7.7954681714324323       -7.7956303503785085        0.0000000000000000     
 PAO| ======================= Iteration:        21 =============================

     Lanczos converged:  T threshold:   0.100E-02
     Est. extremal eigenvalues:    0.277E+01   0.180E+00
     Est. condition number :    0.154E+02

 Order=           3
     NS sqrt iter    1 1.00000000   0.704E+00       0.001       64.512
     NS sqrt iter    2 1.00000000   0.329E+00       0.001      110.592
     NS sqrt iter    3 1.00000000   0.754E-01       0.001      110.592
     NS sqrt iter    4 1.00000000   0.187E-02       0.001      110.592
     NS sqrt iter    5 1.00000000   0.592E-07       0.001       71.936
     Symmetrizing Results
     Final NS sqrt iter    5 1.00000000   0.441E-09

     Est. extremal eigenvalues     -0.93661     1.71509  converged:  T
     TRS4 it   1 1.00000000   0.884E+00       0.000       16.128   0.100E-07
     TRS4 it   2 1.00000000   0.622E+00       0.000       32.256   0.100E-07
     TRS4 it   3 1.00000000   0.423E+00       0.000       32.256   0.100E-07
     TRS4 it   4 1.00000000   0.214E+00       0.000       32.256   0.100E-07
     TRS4 it   5 1.00000000   0.690E-01       0.000       32.256   0.100E-07
     TRS4 it   6 1.00000000   0.896E-02       0.000       32.256   0.100E-07
     TRS4 it   7 1.00000000   0.201E-03       0.000       32.256   0.100E-07
     TRS4 it   8 1.00000000   0.141E-06       0.000       32.256   0.100E-07
     TRS4 it   9 1.00000000   0.859E-13       0.000       32.256   0.100E-07
     Final TRS4 iteration    9 1.00000000   0.859E-13
     Chemical potential (mu):       0.01228
 
 PAO| energy:  -7.7954953458056560      penalty:   1.4044925163108756E-005
 PAO|LS| Need extra step
 PAO|LS| adapt:  T T T
 PAO|LS| adapt: scan_steps:    0.0000000000000000       0.42509745692941253       0.85019491385882506     
 PAO|LS| adapt: energies:   -7.7954681714324323       -7.7956303503785085       -7.7954953458056560     
 PAO|LS| adapt: suggested step_size:   0.44453284990251668     
 PAO|LS| adapt: predicted energy  -7.7956306609805912     
 PAO| ======================= Iteration:        22 =============================

     Lanczos converged:  T threshold:   0.100E-02
     Est. extremal eigenvalues:    0.277E+01   0.180E+00
     Est. condition number :    0.153E+02

 Order=           3
     NS sqrt iter    1 1.00000000   0.704E+00       0.001       64.512
     NS sqrt iter    2 1.00000000   0.328E+00       0.001      110.592
     NS sqrt iter    3 1.00000000   0.750E-01       0.001      110.592
     NS sqrt iter    4 1.00000000   0.185E-02       0.001      110.592
     NS sqrt iter    5 1.00000000   0.580E-07       0.001       71.808
     Symmetrizing Results
     Final NS sqrt iter    5 1.00000000   0.426E-09

     Est. extremal eigenvalues     -0.93661     1.71464  converged:  T
     TRS4 it   1 1.00000000   0.884E+00       0.000       16.128   0.100E-07
     TRS4 it   2 1.00000000   0.622E+00       0.000       32.256   0.100E-07
     TRS4 it   3 1.00000000   0.423E+00       0.000       32.256   0.100E-07
     TRS4 it   4 1.00000000   0.215E+00       0.000       32.256   0.100E-07
     TRS4 it   5 1.00000000   0.691E-01       0.000       32.256   0.100E-07
     TRS4 it   6 1.00000000   0.897E-02       0.000       32.256   0.100E-07
     TRS4 it   7 1.00000000   0.199E-03       0.000       32.256   0.100E-07
     TRS4 it   8 1.00000000   0.137E-06       0.000       32.256   0.100E-07
     TRS4 it   9 1.00000000   0.809E-13       0.000       32.256   0.100E-07
     Final TRS4 iteration    9 1.00000000   0.809E-13
     Chemical potential (mu):       0.01282
 
 PAO| energy:  -7.7956306967843156      penalty:   1.4537293242906601E-005
 PAO|CG| trace_G_new    2.2093826520372200E-004
 PAO|CG| trace_G_prev    7.2687591335000748E-004
 PAO|CG| trace_G_mix    2.9655455415772315E-006
 PAO|CG| trace_D    9.8662310891533211E-004
 PAO|CG| trace_D_Gnew  -1.8354596268701242E-006
 PAO|CG| beta:   0.29987610768054973     
 PAO| norm of gradient:   1.4863992236398739E-002
 PAO| energy improvement:  -1.6252535188332473E-004
 PAO| step     22                   -7.795630697  0.929E-03  0.445E+00     0.049
 PAO|LS| adapt:  T F F
 PAO|LS| adapt: scan_steps:    0.0000000000000000        0.0000000000000000        0.0000000000000000     
 PAO|LS| adapt: energies:   -7.7956306967843156        0.0000000000000000        0.0000000000000000     
 PAO| ======================= Iteration:        23 =============================

     Lanczos converged:  T threshold:   0.100E-02
     Est. extremal eigenvalues:    0.277E+01   0.180E+00
     Est. condition number :    0.153E+02

 Order=           3
     NS sqrt iter    1 1.00000000   0.704E+00       0.001       64.512
     NS sqrt iter    2 1.00000000   0.328E+00       0.001      110.592
     NS sqrt iter    3 1.00000000   0.751E-01       0.001      110.592
     NS sqrt iter    4 1.00000000   0.185E-02       0.001      110.592
     NS sqrt iter    5 1.00000000   0.581E-07       0.001       71.808
     Symmetrizing Results
     Final NS sqrt iter    5 1.00000000   0.428E-09

     Est. extremal eigenvalues     -0.93661     1.71458  converged:  T
     TRS4 it   1 1.00000000   0.884E+00       0.000       16.128   0.100E-07
     TRS4 it   2 1.00000000   0.622E+00       0.000       32.256   0.100E-07
     TRS4 it   3 1.00000000   0.423E+00       0.000       32.256   0.100E-07
     TRS4 it   4 1.00000000   0.215E+00       0.000       32.256   0.100E-07
     TRS4 it   5 1.00000000   0.693E-01       0.000       32.256   0.100E-07
     TRS4 it   6 1.00000000   0.902E-02       0.000       32.256   0.100E-07
     TRS4 it   7 1.00000000   0.202E-03       0.000       32.256   0.100E-07
     TRS4 it   8 1.00000000   0.141E-06       0.000       32.256   0.100E-07
     TRS4 it   9 1.00000000   0.857E-13       0.000       32.256   0.100E-07
     Final TRS4 iteration    9 1.00000000   0.857E-13
     Chemical potential (mu):       0.01249
 
 PAO| energy:  -7.7956796398319312      penalty:   1.3855307055795429E-005
 PAO|LS| adapt:  T T F
 PAO|LS| adapt: scan_steps:    0.0000000000000000       0.44453284990251668        0.0000000000000000     
 PAO|LS| adapt: energies:   -7.7956306967843156       -7.7956796398319312        0.0000000000000000     
 PAO| ======================= Iteration:        24 =============================

     Lanczos converged:  T threshold:   0.100E-02
     Est. extremal eigenvalues:    0.277E+01   0.180E+00
     Est. condition number :    0.153E+02

 Order=           3
     NS sqrt iter    1 1.00000000   0.704E+00       0.001       64.512
     NS sqrt iter    2 1.00000000   0.329E+00       0.001      110.592
     NS sqrt iter    3 1.00000000   0.751E-01       0.001      110.592
     NS sqrt iter    4 1.00000000   0.185E-02       0.001      110.592
     NS sqrt iter    5 1.00000000   0.582E-07       0.001       71.808
     Symmetrizing Results
     Final NS sqrt iter    5 1.00000000   0.431E-09

     Est. extremal eigenvalues     -0.93661     1.71453  converged:  T
     TRS4 it   1 1.00000000   0.883E+00       0.000       16.128   0.100E-07
     TRS4 it   2 1.00000000   0.622E+00       0.000       32.256   0.100E-07
     TRS4 it   3 1.00000000   0.423E+00       0.000       32.256   0.100E-07
     TRS4 it   4 1.00000000   0.215E+00       0.000       32.256   0.100E-07
     TRS4 it   5 1.00000000   0.694E-01       0.000       32.256   0.100E-07
     TRS4 it   6 1.00000000   0.906E-02       0.000       32.256   0.100E-07
     TRS4 it   7 1.00000000   0.204E-03       0.000       32.256   0.100E-07
     TRS4 it   8 1.00000000   0.145E-06       0.000       32.256   0.100E-07
     TRS4 it   9 1.00000000   0.901E-13       0.000       32.256   0.100E-07
     Final TRS4 iteration    9 1.00000000   0.901E-13
     Chemical potential (mu):       0.01217
 
 PAO| energy:  -7.7956289272137749      penalty:   1.3201552615536122E-005
 PAO|LS| adapt:  T T T
 PAO|LS| adapt: scan_steps:    0.0000000000000000       0.44453284990251668       0.88906569980503336     
 PAO|LS| adapt: energies:   -7.7956306967843156       -7.7956796398319312       -7.7956289272137749     
 PAO|LS| adapt: suggested step_size:   0.44058609870931170     
 PAO|LS| adapt: predicted energy  -7.7956796437596809     
 PAO| ======================= Iteration:        25 =============================

     Lanczos converged:  T threshold:   0.100E-02
     Est. extremal eigenvalues:    0.277E+01   0.180E+00
     Est. condition number :    0.153E+02

 Order=           3
     NS sqrt iter    1 1.00000000   0.704E+00       0.001       64.512
     NS sqrt iter    2 1.00000000   0.328E+00       0.001      110.592
     NS sqrt iter    3 1.00000000   0.751E-01       0.001      110.592
     NS sqrt iter    4 1.00000000   0.185E-02       0.001      110.592
     NS sqrt iter    5 1.00000000   0.581E-07       0.001       71.808
     Symmetrizing Results
     Final NS sqrt iter    5 1.00000000   0.428E-09

     Est. extremal eigenvalues     -0.93661     1.71459  converged:  T
     TRS4 it   1 1.00000000   0.884E+00       0.000       16.128   0.100E-07
     TRS4 it   2 1.00000000   0.622E+00       0.000       32.256   0.100E-07
     TRS4 it   3 1.00000000   0.423E+00       0.000       32.256   0.100E-07
     TRS4 it   4 1.00000000   0.215E+00       0.000       32.256   0.100E-07
     TRS4 it   5 1.00000000   0.693E-01       0.000       32.256   0.100E-07
     TRS4 it   6 1.00000000   0.902E-02       0.000       32.256   0.100E-07
     TRS4 it   7 1.00000000   0.202E-03       0.000       32.256   0.100E-07
     TRS4 it   8 1.00000000   0.141E-06       0.000       32.256   0.100E-07
     TRS4 it   9 1.00000000   0.855E-13       0.000       32.256   0.100E-07
     Final TRS4 iteration    9 1.00000000   0.855E-13
     Chemical potential (mu):       0.01250
 
 PAO| energy:  -7.7956796423749939      penalty:   1.3861236905831139E-005
 PAO|CG| trace_G_new    7.8123956386420522E-005
 PAO|CG| trace_G_prev    2.2093826520372200E-004
 PAO|CG| trace_G_mix    6.8583285493345341E-007
 PAO|CG| trace_D    3.1076184011227196E-004
 PAO|CG| trace_D_Gnew  -3.5090868040454001E-007
 PAO|CG| beta:   0.35049665778846950     
 PAO| norm of gradient:   8.8387757289355700E-003
 PAO| energy improvement:  -4.8945590678250994E-005
 PAO| step     25                   -7.795679642  0.552E-03  0.441E+00     0.036
 PAO|LS| adapt:  T F F
 PAO|LS| adapt: scan_steps:    0.0000000000000000        0.0000000000000000        0.0000000000000000     
 PAO|LS| adapt: energies:   -7.7956796423749939        0.0000000000000000        0.0000000000000000     
 PAO| ======================= Iteration:        26 =============================

     Lanczos converged:  T threshold:   0.100E-02
     Est. extremal eigenvalues:    0.277E+01   0.180E+00
     Est. condition number :    0.153E+02

 Order=           3
     NS sqrt iter    1 1.00000000   0.704E+00       0.001       64.512
     NS sqrt iter    2 1.00000000   0.328E+00       0.001      110.592
     NS sqrt iter    3 1.00000000   0.750E-01       0.001      110.592
     NS sqrt iter    4 1.00000000   0.185E-02       0.001      110.592
     NS sqrt iter    5 1.00000000   0.577E-07       0.001       71.808
     Symmetrizing Results
     Final NS sqrt iter    5 1.00000000   0.424E-09

     Est. extremal eigenvalues     -0.93662     1.71435  converged:  T
     TRS4 it   1 1.00000000   0.884E+00       0.000       16.128   0.100E-07
     TRS4 it   2 1.00000000   0.622E+00       0.000       32.256   0.100E-07
     TRS4 it   3 1.00000000   0.423E+00       0.000       32.256   0.100E-07
     TRS4 it   4 1.00000000   0.215E+00       0.000       32.256   0.100E-07
     TRS4 it   5 1.00000000   0.692E-01       0.000       32.256   0.100E-07
     TRS4 it   6 1.00000000   0.900E-02       0.000       32.256   0.100E-07
     TRS4 it   7 1.00000000   0.201E-03       0.000       32.256   0.100E-07
     TRS4 it   8 1.00000000   0.140E-06       0.000       32.256   0.100E-07
     TRS4 it   9 1.00000000   0.834E-13       0.000       32.256   0.100E-07
     Final TRS4 iteration    9 1.00000000   0.834E-13
     Chemical potential (mu):       0.01259
 
 PAO| energy:  -7.7956833691928535      penalty:   1.3142906195662394E-005
 PAO|LS| adapt:  T T F
 PAO|LS| adapt: scan_steps:    0.0000000000000000       0.44058609870931170        0.0000000000000000     
 PAO|LS| adapt: energies:   -7.7956796423749939       -7.7956833691928535        0.0000000000000000     
 PAO| ======================= Iteration:        27 =============================

     Lanczos converged:  T threshold:   0.100E-02
     Est. extremal eigenvalues:    0.276E+01   0.180E+00
     Est. condition number :    0.153E+02

 Order=           3
     NS sqrt iter    1 1.00000000   0.704E+00       0.001       64.512
     NS sqrt iter    2 1.00000000   0.328E+00       0.001      110.592
     NS sqrt iter    3 1.00000000   0.749E-01       0.001      110.592
     NS sqrt iter    4 1.00000000   0.184E-02       0.001      110.592
     NS sqrt iter    5 1.00000000   0.573E-07       0.001       71.424
     Symmetrizing Results
     Final NS sqrt iter    5 1.00000000   0.419E-09

     Est. extremal eigenvalues     -0.93662     1.71412  converged:  T
     TRS4 it   1 1.00000000   0.884E+00       0.000       16.128   0.100E-07
     TRS4 it   2 1.00000000   0.622E+00       0.000       32.256   0.100E-07
     TRS4 it   3 1.00000000   0.423E+00       0.000       32.256   0.100E-07
     TRS4 it   4 1.00000000   0.215E+00       0.000       32.256   0.100E-07
     TRS4 it   5 1.00000000   0.691E-01       0.000       32.256   0.100E-07
     TRS4 it   6 1.00000000   0.899E-02       0.000       32.256   0.100E-07
     TRS4 it   7 1.00000000   0.200E-03       0.000       32.256   0.100E-07
     TRS4 it   8 1.00000000   0.138E-06       0.000       32.256   0.100E-07
     TRS4 it   9 1.00000000   0.820E-13       0.000       32.256   0.100E-07
     Final TRS4 iteration    9 1.00000000   0.820E-13
     Chemical potential (mu):       0.01270
 
 PAO| energy:  -7.7956254965755560      penalty:   1.2447823037098704E-005
 PAO|LS| adapt:  T T T
 PAO|LS| adapt: scan_steps:    0.0000000000000000       0.44058609870931170       0.88117219741862340     
 PAO|LS| adapt: energies:   -7.7956796423749939       -7.7956833691928535       -7.7956254965755560     
 PAO|LS| adapt: suggested step_size:   0.24694888048678412     
 PAO|LS| adapt: predicted energy  -7.7956893184511324     
 PAO| ======================= Iteration:        28 =============================

     Lanczos converged:  T threshold:   0.100E-02
     Est. extremal eigenvalues:    0.277E+01   0.180E+00
     Est. condition number :    0.153E+02

 Order=           3
     NS sqrt iter    1 1.00000000   0.704E+00       0.001       64.512
     NS sqrt iter    2 1.00000000   0.328E+00       0.001      110.592
     NS sqrt iter    3 1.00000000   0.750E-01       0.001      110.592
     NS sqrt iter    4 1.00000000   0.185E-02       0.001      110.592
     NS sqrt iter    5 1.00000000   0.579E-07       0.001       71.808
     Symmetrizing Results
     Final NS sqrt iter    5 1.00000000   0.426E-09

     Est. extremal eigenvalues     -0.93662     1.71445  converged:  T
     TRS4 it   1 1.00000000   0.884E+00       0.000       16.128   0.100E-07
     TRS4 it   2 1.00000000   0.622E+00       0.000       32.256   0.100E-07
     TRS4 it   3 1.00000000   0.423E+00       0.000       32.256   0.100E-07
     TRS4 it   4 1.00000000   0.215E+00       0.000       32.256   0.100E-07
     TRS4 it   5 1.00000000   0.692E-01       0.000       32.256   0.100E-07
     TRS4 it   6 1.00000000   0.901E-02       0.000       32.256   0.100E-07
     TRS4 it   7 1.00000000   0.201E-03       0.000       32.256   0.100E-07
     TRS4 it   8 1.00000000   0.140E-06       0.000       32.256   0.100E-07
     TRS4 it   9 1.00000000   0.839E-13       0.000       32.256   0.100E-07
     Final TRS4 iteration    9 1.00000000   0.839E-13
     Chemical potential (mu):       0.01255
 
 PAO| energy:  -7.7956893091673001      penalty:   1.3455730243524389E-005
 PAO|CG| trace_G_new    3.0341990976664971E-005
 PAO|CG| trace_G_prev    7.8123956386420522E-005
 PAO|CG| trace_G_mix    4.4800834284372927E-008
 PAO|CG| trace_D    1.1654638269659050E-004
 PAO|CG| trace_D_Gnew  -2.4268777318559406E-008
 PAO|CG| beta:   0.38780921427638865     
 PAO| norm of gradient:   5.5083564678282187E-003
 PAO| energy improvement:  -9.6667923061843908E-006
 PAO| step     28                   -7.795689309  0.344E-03  0.247E+00     0.035
 PAO|LS| adapt:  T F F
 PAO|LS| adapt: scan_steps:    0.0000000000000000        0.0000000000000000        0.0000000000000000     
 PAO|LS| adapt: energies:   -7.7956893091673001        0.0000000000000000        0.0000000000000000     
 PAO| ======================= Iteration:        29 =============================

     Lanczos converged:  T threshold:   0.100E-02
     Est. extremal eigenvalues:    0.276E+01   0.180E+00
     Est. condition number :    0.153E+02

 Order=           3
     NS sqrt iter    1 1.00000000   0.704E+00       0.001       64.512
     NS sqrt iter    2 1.00000000   0.328E+00       0.001      110.592
     NS sqrt iter    3 1.00000000   0.750E-01       0.001      110.592
     NS sqrt iter    4 1.00000000   0.185E-02       0.001      110.592
     NS sqrt iter    5 1.00000000   0.577E-07       0.001       71.552
     Symmetrizing Results
     Final NS sqrt iter    5 1.00000000   0.422E-09

     Est. extremal eigenvalues     -0.93662     1.71441  converged:  T
     TRS4 it   1 1.00000000   0.884E+00       0.000       16.128   0.100E-07
     TRS4 it   2 1.00000000   0.622E+00       0.000       32.256   0.100E-07
     TRS4 it   3 1.00000000   0.423E+00       0.000       32.256   0.100E-07
     TRS4 it   4 1.00000000   0.215E+00       0.000       32.256   0.100E-07
     TRS4 it   5 1.00000000   0.692E-01       0.000       32.256   0.100E-07
     TRS4 it   6 1.00000000   0.899E-02       0.000       32.256   0.100E-07
     TRS4 it   7 1.00000000   0.200E-03       0.000       32.256   0.100E-07
     TRS4 it   8 1.00000000   0.139E-06       0.000       32.256   0.100E-07
     TRS4 it   9 1.00000000   0.819E-13       0.000       32.256   0.100E-07
     Final TRS4 iteration    9 1.00000000   0.819E-13
     Chemical potential (mu):       0.01267
 
 PAO| energy:  -7.7956959136932529      penalty:   1.3032776224349396E-005
 PAO|LS| adapt:  T T F
 PAO|LS| adapt: scan_steps:    0.0000000000000000       0.24694888048678412        0.0000000000000000     
 PAO|LS| adapt: energies:   -7.7956893091673001       -7.7956959136932529        0.0000000000000000     
 PAO| ======================= Iteration:        30 =============================

     Lanczos converged:  T threshold:   0.100E-02
     Est. extremal eigenvalues:    0.276E+01   0.180E+00
     Est. condition number :    0.153E+02

 Order=           3
     NS sqrt iter    1 1.00000000   0.704E+00       0.001       64.512
     NS sqrt iter    2 1.00000000   0.328E+00       0.001      110.592
     NS sqrt iter    3 1.00000000   0.749E-01       0.001      110.592
     NS sqrt iter    4 1.00000000   0.184E-02       0.001      110.592
     NS sqrt iter    5 1.00000000   0.576E-07       0.001       71.424
     Symmetrizing Results
     Final NS sqrt iter    5 1.00000000   0.421E-09

     Est. extremal eigenvalues     -0.93662     1.71436  converged:  T
     TRS4 it   1 1.00000000   0.884E+00       0.000       16.128   0.100E-07
     TRS4 it   2 1.00000000   0.622E+00       0.000       32.256   0.100E-07
     TRS4 it   3 1.00000000   0.423E+00       0.000       32.256   0.100E-07
     TRS4 it   4 1.00000000   0.215E+00       0.000       32.256   0.100E-07
     TRS4 it   5 1.00000000   0.691E-01       0.000       32.256   0.100E-07
     TRS4 it   6 1.00000000   0.897E-02       0.000       32.256   0.100E-07
     TRS4 it   7 1.00000000   0.199E-03       0.000       32.256   0.100E-07
     TRS4 it   8 1.00000000   0.137E-06       0.000       32.256   0.100E-07
     TRS4 it   9 1.00000000   0.806E-13       0.000       32.256   0.100E-07
     Final TRS4 iteration    9 1.00000000   0.806E-13
     Chemical potential (mu):       0.01279
 
 PAO| energy:  -7.7957007458090768      penalty:   1.2617322569032425E-005
 PAO|LS| adapt:  T T F
 PAO|LS| adapt: scan_steps:    0.0000000000000000       0.49389776097356825        0.0000000000000000     
 PAO|LS| adapt: energies:   -7.7956893091673001       -7.7957007458090768        0.0000000000000000     
 PAO| ======================= Iteration:        31 =============================

     Lanczos converged:  T threshold:   0.100E-02
     Est. extremal eigenvalues:    0.276E+01   0.180E+00
     Est. condition number :    0.153E+02

 Order=           3
     NS sqrt iter    1 1.00000000   0.703E+00       0.001       64.512
     NS sqrt iter    2 1.00000000   0.328E+00       0.001      110.592
     NS sqrt iter    3 1.00000000   0.748E-01       0.001      110.592
     NS sqrt iter    4 1.00000000   0.184E-02       0.001      110.592
     NS sqrt iter    5 1.00000000   0.574E-07       0.001       71.424
     Symmetrizing Results
     Final NS sqrt iter    5 1.00000000   0.419E-09

     Est. extremal eigenvalues     -0.93662     1.71426  converged:  T
     TRS4 it   1 1.00000000   0.884E+00       0.000       16.128   0.100E-07
     TRS4 it   2 1.00000000   0.622E+00       0.000       32.256   0.100E-07
     TRS4 it   3 1.00000000   0.423E+00       0.000       32.256   0.100E-07
     TRS4 it   4 1.00000000   0.214E+00       0.000       32.256   0.100E-07
     TRS4 it   5 1.00000000   0.689E-01       0.000       32.256   0.100E-07
     TRS4 it   6 1.00000000   0.893E-02       0.000       32.256   0.100E-07
     TRS4 it   7 1.00000000   0.197E-03       0.000       32.256   0.100E-07
     TRS4 it   8 1.00000000   0.134E-06       0.000       32.256   0.100E-07
     TRS4 it   9 1.00000000   0.772E-13       0.000       32.256   0.100E-07
     Final TRS4 iteration    9 1.00000000   0.772E-13
     Chemical potential (mu):       0.01302
 
 PAO| energy:  -7.7957050840364142      penalty:   1.1808772781141182E-005
 PAO|LS| Need extra step
 PAO|LS| adapt:  T T F
 PAO|LS| adapt: scan_steps:    0.0000000000000000       0.98779552194713649        0.0000000000000000     
 PAO|LS| adapt: energies:   -7.7956893091673001       -7.7957050840364142        0.0000000000000000     
 PAO| ======================= Iteration:        32 =============================

     Lanczos converged:  T threshold:   0.100E-02
     Est. extremal eigenvalues:    0.276E+01   0.180E+00
     Est. condition number :    0.153E+02

 Order=           3
[...]
     NS sqrt iter    4 1.00000000   0.733E-03       0.001      110.592
     NS sqrt iter    5 1.00000000   0.517E-08       0.001       38.144
     Symmetrizing Results
     Final NS sqrt iter    5 1.00000000   0.308E-09

     Est. extremal eigenvalues     -0.93631     1.62523  converged:  T
     TRS4 it   1 1.00000000   0.881E+00       0.000       16.128   0.100E-07
     TRS4 it   2 1.00000000   0.632E+00       0.000       32.256   0.100E-07
     TRS4 it   3 1.00000000   0.453E+00       0.000       32.256   0.100E-07
     TRS4 it   4 1.00000000   0.275E+00       0.000       32.256   0.100E-07
     TRS4 it   5 1.00000000   0.135E+00       0.000       32.256   0.100E-07
     TRS4 it   6 1.00000000   0.411E-01       0.000       32.256   0.100E-07
     TRS4 it   7 1.00000000   0.529E-02       0.000       32.256   0.100E-07
     TRS4 it   8 1.00000000   0.118E-03       0.000       32.256   0.100E-07
     TRS4 it   9 1.00000000   0.625E-07       0.000       32.256   0.100E-07
     Final TRS4 iteration    9 1.00000000   0.625E-07
     Chemical potential (mu):      -0.07265
 
 PAO| energy:  -7.7947318458637307      penalty:   2.3836703966129537E-008
 PAO|CG| warming up with steepest descent
 PAO|CG| beta:    0.0000000000000000     
 PAO| norm of gradient:   1.3276169052185623E-004
 PAO| energy improvement:  -6.0393210432607702E-009
 PAO| step    414                   -7.794731846  0.830E-05  0.263E+00     0.048
 PAO| converged after          414  steps :-)
 PAO| Recalculating energy after mixing.

     Lanczos converged:  T threshold:   0.100E-02
     Est. extremal eigenvalues:    0.248E+01   0.191E+00
     Est. condition number :    0.130E+02

 Order=           3
     NS sqrt iter    1 1.00000000   0.630E+00       0.001       64.512
     NS sqrt iter    2 1.00000000   0.273E+00       0.001      110.592
     NS sqrt iter    3 1.00000000   0.480E-01       0.001      110.592
     NS sqrt iter    4 1.00000000   0.733E-03       0.001      110.592
     NS sqrt iter    5 1.00000000   0.517E-08       0.001       38.144
     Symmetrizing Results
     Final NS sqrt iter    5 1.00000000   0.308E-09

     Est. extremal eigenvalues     -0.93631     1.62523  converged:  T
     TRS4 it   1 1.00000000   0.881E+00       0.000       16.128   0.100E-07
     TRS4 it   2 1.00000000   0.632E+00       0.000       32.256   0.100E-07
     TRS4 it   3 1.00000000   0.453E+00       0.000       32.256   0.100E-07
     TRS4 it   4 1.00000000   0.275E+00       0.000       32.256   0.100E-07
     TRS4 it   5 1.00000000   0.135E+00       0.000       32.256   0.100E-07
     TRS4 it   6 1.00000000   0.411E-01       0.000       32.256   0.100E-07
     TRS4 it   7 1.00000000   0.529E-02       0.000       32.256   0.100E-07
     TRS4 it   8 1.00000000   0.118E-03       0.000       32.256   0.100E-07
     TRS4 it   9 1.00000000   0.625E-07       0.000       32.256   0.100E-07
     Final TRS4 iteration    9 1.00000000   0.625E-07
     Chemical potential (mu):      -0.07265
 
 PAO| energy:  -7.7947318443538816      penalty:   2.4090188872604021E-008
 PAO| Writing restart file.
     Est. extremal eigenvalues     -0.93631     1.62523  converged:  T
     TRS4 it   1 1.00000000   0.881E+00       0.000       16.128   0.100E-07
     TRS4 it   2 1.00000000   0.632E+00       0.000       32.256   0.100E-07
     TRS4 it   3 1.00000000   0.453E+00       0.000       32.256   0.100E-07
     TRS4 it   4 1.00000000   0.275E+00       0.001       32.256   0.100E-07
     TRS4 it   5 1.00000000   0.135E+00       0.000       32.256   0.100E-07
     TRS4 it   6 1.00000000   0.411E-01       0.000       32.256   0.100E-07
     TRS4 it   7 1.00000000   0.529E-02       0.000       32.256   0.100E-07
     TRS4 it   8 1.00000000   0.118E-03       0.000       32.256   0.100E-07
     TRS4 it   9 1.00000000   0.625E-07       0.000       32.256   0.100E-07
     Final TRS4 iteration    9 1.00000000   0.625E-07
     Chemical potential (mu):      -0.07265

 SCF     1       -34.450223249       -34.450223249    1.982607

*********************************************************
 Using MIXING_FRACTION=0.450 to mix KS matrix:  iscf=  2
 KS_nw=0.450*KS + 0.550*KS_old
*********************************************************
     Est. extremal eigenvalues     -0.93631     1.62523  converged:  T
     TRS4 it   1 1.00000000   0.881E+00       0.000       16.128   0.100E-07
     TRS4 it   2 1.00000000   0.632E+00       0.000       32.256   0.100E-07
     TRS4 it   3 1.00000000   0.453E+00       0.000       32.256   0.100E-07
     TRS4 it   4 1.00000000   0.275E+00       0.000       32.256   0.100E-07
     TRS4 it   5 1.00000000   0.135E+00       0.000       32.256   0.100E-07
     TRS4 it   6 1.00000000   0.411E-01       0.000       32.256   0.100E-07
     TRS4 it   7 1.00000000   0.529E-02       0.000       32.256   0.100E-07
     TRS4 it   8 1.00000000   0.118E-03       0.000       32.256   0.100E-07
     TRS4 it   9 1.00000000   0.626E-07       0.000       32.256   0.100E-07
     Final TRS4 iteration    9 1.00000000   0.626E-07
     Chemical potential (mu):      -0.07265

 SCF     2       -34.450223249        -0.000000000    1.749845


 SCF run converged in     2 steps.

 PAO| Storing density matrix for ASPC guess in slot:           1

 ENERGY| Total FORCE_EVAL ( QS ) energy [a.u.]:              -34.450223248906525

 -------------------------------------------------------------------------------
 -                                                                             -
 -                                DBCSR STATISTICS                             -
 -                                                                             -
 -------------------------------------------------------------------------------
 COUNTER                                    TOTAL       BLAS       SMM       ACC
 flops     5 x     5 x     4                20000       0.0%    100.0%      0.0%
 flops    13 x     5 x     4                20800       0.0%    100.0%      0.0%
 flops     5 x    13 x     4                20800       0.0%    100.0%      0.0%
 flops    13 x    13 x     4                40560       0.0%    100.0%      0.0%
 flops     4 x     4 x     5              3252480       0.0%    100.0%      0.0%
 flops     5 x     4 x     5              3977600       0.0%    100.0%      0.0%
 flops     4 x     4 x    13              4228224       0.0%    100.0%      0.0%
 flops    13 x     4 x     5              5170880       0.0%    100.0%      0.0%
 flops     5 x     4 x    13              5170880       0.0%    100.0%      0.0%
 flops     5 x     4 x     4              6623040       0.0%    100.0%      0.0%
 flops    13 x     4 x    13              6722144       0.0%    100.0%      0.0%
 flops    13 x     4 x     4              8916960       0.0%    100.0%      0.0%
 flops     4 x     4 x     4            414684544       0.0%    100.0%      0.0%
 flops inhomo. stacks                           0       0.0%      0.0%      0.0%
 flops total                       458.848912E+06       0.0%    100.0%      0.0%
 flops max/rank                    458.848912E+06       0.0%    100.0%      0.0%
 matmuls inhomo. stacks                         0       0.0%      0.0%      0.0%
 matmuls total                            3378002       0.0%    100.0%      0.0%
 number of processed stacks                 26987       0.0%    100.0%      0.0%
 average stack size                                     0.0     125.2       0.0
 marketing flops                   744.522432E+06
 -------------------------------------------------------------------------------
 # multiplications                          22430
 max memory usage/rank             505.315328E+06
 # max total images/rank                        1
 # max 3D layers                                1
 # MPI messages exchanged                       0
 -------------------------------------------------------------------------------

 -------------------------------------------------------------------------------
 -                                                                             -
 -                                DBM STATISTICS                               -
 -                                                                             -
 -------------------------------------------------------------------------------
    M  x    N  x    K                                          COUNT     PERCENT
 -------------------------------------------------------------------------------

 -------------------------------------------------------------------------------
 -                                                                             -
 -                                GRID STATISTICS                              -
 -                                                                             -
 -------------------------------------------------------------------------------
 LP    KERNEL             BACKEND                              COUNT     PERCENT
 2     collocate ortho    REF                                  38190      30.80%
 2     integrate ortho    REF                                  38190      30.80%
 3     collocate ortho    REF                                  19550      15.77%
 3     integrate ortho    REF                                  19550      15.77%
 4     collocate ortho    REF                                   4250       3.43%
 4     integrate ortho    REF                                   4250       3.43%
 0     collocate general  REF                                      6       0.00%
 -------------------------------------------------------------------------------

 MEMORY| Estimated peak process memory [MiB]                                 482

 -------------------------------------------------------------------------------
 -                                                                             -
 -                           R E F E R E N C E S                               -
 -                                                                             -
 -------------------------------------------------------------------------------
 
 CP2K version 2023.1 (Development Version), the CP2K developers group (2023).
 CP2K is freely available from https://www.cp2k.org/ .

 Kuehne,Thomas D.; Iannuzzi,Marcella; Del Ben,Mauro;
 Rybkin,Vladimir V.; Seewald,Patrick; Stein,Frederick; Laino,Teodoro;
 Khaliullin,Rustam Z.; Schuett,Ole; Schiffmann,Florian; Golze,Dorothea;
 Wilhelm,Jan; Chulkov,Sergey; Bani-Hashemian,Mohammad Hossein;
 Weber,Valery; Borstnik,Urban; Taillefumier,Mathieu;
 Jakobovits,Alice Shoshana; Lazzaro,Alfio; Pabst,Hans; Mueller,Tiziano;
 Schade,Robert; Guidon,Manuel; Andermatt,Samuel; Holmberg,Nico;
 Schenter,Gregory K.; Hehn,Anna; Bussy,Augustin; Belleflamme,Fabian;
 Tabacchi,Gloria; Gloess,Andreas; Lass,Michael; Bethune,Iain;
 Mundy,Christopher J.; Plessl,Christian; Watkins,Matt;
 VandeVondele,Joost; Krack,Matthias; Hutter,Juerg. 
 The Journal of Chemical Physics, 152 (19), (2020). 
 CP2K: An electronic structure and molecular dynamics software package -
 Quickstep: Efficient and accurate electronic structure calculations.
 https://doi.org/10.1063/5.0007045

 Schuett, O; VandeVondele, J. 
 Journal of Chemical Theory and Computation, 14, (2018). 
 Machine Learning Adaptive Basis Sets for Efficient Large Scale
 Density Functional Theory Simulation.
 https://doi.org/10.1021/acs.jctc.8b00378

 Schuett, Ole; Messmer, Peter; Hutter, Juerg; VandeVondele, Joost. 
 Electronic Structure Calculations on Graphics Processing Units, John
 Wiley & Sons, Ltd, 173-190 (2016). 
 GPU-Accelerated Sparse Matrix-Matrix Multiplication for
 Linear Scaling Density Functional Theory.
 https://doi.org/10.1002/9781118670712.ch8

 Heinecke, A; Henry, G; Hutchinson, M; Pabst, H. 
 Proceedings of Intl. Supercomputing Conference, 981-991 (2016). 
 LIBXSMM: Accelerating Small Matrix Multiplications
 by Runtime Code Generation.
 https://doi.org/10.1109/SC.2016.83

 Borstnik, U; VandeVondele, J; Weber, V; Hutter, J. 
 PARALLEL COMPUTING, 40 (5-6), 47-58 (2014). 
 Sparse matrix multiplication: The distributed block-compressed sparse
 row library.
 https://doi.org/10.1016/j.parco.2014.03.012

 Hutter, J; Iannuzzi, M; Schiffmann, F; VandeVondele, J. 
 WIREs Comput Mol Sci., 4 (1), 15-25 (2014). 
 CP2K: atomistic simulations of condensed matter systems.
 https://doi.org/10.1002/wcms.1159

 VandeVondele, J; Borstnik, U; Hutter, J. 
 JOURNAL OF CHEMICAL THEORY AND COMPUTATION, 8 (10), 3565-3573 (2012). 
 Linear Scaling Self-Consistent Field Calculations with Millions of Atoms
 in the Condensed Phase.
 https://doi.org/10.1021/ct200897x

 VandeVondele, J; Hutter, J. 
 JOURNAL OF CHEMICAL PHYSICS, 127 (11), 114105 (2007). 
 Gaussian basis sets for accurate calculations on molecular systems in
 gas and condensed phases.
 https://doi.org/10.1063/1.2770708

 Krack, M. 
 THEORETICAL CHEMISTRY ACCOUNTS, 114 (1-3), 145-152 (2005). 
 Pseudopotentials for H to Kr optimized for gradient-corrected
 exchange-correlation functionals.
 https://doi.org/10.1007/s00214-005-0655-y

 VandeVondele, J; Krack, M; Mohamed, F; Parrinello, M; Chassaing, T;
 Hutter, J. COMPUTER PHYSICS COMMUNICATIONS, 167 (2), 103-128 (2005). 
 QUICKSTEP: Fast and accurate density functional calculations using a
 mixed Gaussian and plane waves approach.
 https://doi.org/10.1016/j.cpc.2004.12.014

 Frigo, M; Johnson, SG. 
 PROCEEDINGS OF THE IEEE, 93 (2), 216-231 (2005). 
 The design and implementation of FFTW3.
 https://doi.org/10.1109/JPROC.2004.840301

 Niklasson, AMN; Tymczak, CJ; Challacombe, M. 
 JOURNAL OF CHEMICAL PHYSICS, 118 (19), 8611-8620 (2003). 
 Trace resetting density matrix purification in O(N)
 self-consistent-field theory.
 https://doi.org/10.1063/1.1559913

 Hartwigsen, C; Goedecker, S; Hutter, J. 
 PHYSICAL REVIEW B, 58 (7), 3641-3662 (1998). 
 Relativistic separable dual-space Gaussian pseudopotentials from H to Rn.
 https://doi.org/10.1103/PhysRevB.58.3641

 Lippert, G; Hutter, J; Parrinello, M. 
 MOLECULAR PHYSICS, 92 (3), 477-487 (1997). 
 A hybrid Gaussian and plane wave density functional scheme.
 https://doi.org/10.1080/002689797170220

 Perdew, JP; Burke, K; Ernzerhof, M. 
 PHYSICAL REVIEW LETTERS, 77 (18), 3865-3868 (1996). 
 Generalized gradient approximation made simple.
 https://doi.org/10.1103/PhysRevLett.77.3865

 Goedecker, S; Teter, M; Hutter, J. 
 PHYSICAL REVIEW B, 54 (3), 1703-1710 (1996). 
 Separable dual-space Gaussian pseudopotentials.
 https://doi.org/10.1103/PhysRevB.54.1703


 -------------------------------------------------------------------------------
 -                                                                             -
 -                                T I M I N G                                  -
 -                                                                             -
 -------------------------------------------------------------------------------
 SUBROUTINE                       CALLS  ASD         SELF TIME        TOTAL TIME
                                MAXIMUM       AVERAGE  MAXIMUM  AVERAGE  MAXIMUM
 CP2K                                 1  1.0    0.013    0.013   23.140   23.140
 qs_energies                          1  2.0    0.000    0.000   22.829   22.829
 ls_scf                               1  3.0    0.000    0.000   22.755   22.755
 ls_scf_main                          4  4.0    0.001    0.001   15.937   15.937
 ls_scf_dm_to_ks                      9  5.0    0.000    0.000   15.880   15.880
 qs_ks_update_qs_env                 10  6.0    0.000    0.000   13.953   13.953
 rebuild_ks_matrix                   10  7.0    0.000    0.000   13.952   13.952
 qs_ks_build_kohn_sham_matrix        10  8.0    0.002    0.002   13.952   13.952
 qs_vxc_create                       10  9.0    0.000    0.000    9.030    9.030
 xc_vxc_pw_create                    10 10.0    0.229    0.229    9.029    9.029
 pw_transfer                        191 11.1    0.016    0.016    7.073    7.073
 fft_wrap_pw1pw2                    171 12.3    0.002    0.002    6.873    6.873
 fft_wrap_pw1pw2_200                111 13.7    0.886    0.886    6.681    6.681
 xc_pw_derive                        60 12.0    0.001    0.001    5.303    5.303
 xc_rho_set_and_dset_create          10 11.0    0.290    0.290    5.280    5.280
 pao_update                           4  4.0    0.005    0.005    5.066    5.066
 pao_calc_energy                    417  5.0    0.002    0.002    4.579    4.579
 qs_rho_update_rho_low               10  6.0    0.000    0.000    3.643    3.643
 calculate_rho_elec                  10  7.0    0.036    0.036    3.643    3.643
 sum_up_and_integrate                10  9.0    0.114    0.114    3.639    3.639
 dbcsr_multiply_generic           22430  8.4    0.232    0.232    3.623    3.623
 integrate_v_rspace                  10 10.0    0.001    0.001    3.525    3.525
 xc_pw_divergence                    10 11.0    0.000    0.000    3.368    3.368
 fft3d_s                            172 14.2    2.627    2.627    2.640    2.640
 grid_integrate_task_list            10 11.0    2.628    2.628    2.628    2.628
 pao_dm_trs4                        417  6.0    0.002    0.002    2.364    2.364
 grid_collocate_task_list            10  8.0    2.286    2.286    2.286    2.286
 density_matrix_trs4                426  7.0    0.080    0.080    2.278    2.278
 ls_scf_init_matrix_S               421  7.0    0.002    0.002    2.204    2.204
 pao_rebuild_S                      417  6.0    0.001    0.001    2.181    2.181
 matrix_sqrt_Newton_Schulz          421  8.0    0.049    0.049    1.988    1.988
 xc_functional_eval                  10 12.0    0.000    0.000    1.965    1.965
 pbe_lda_eval                        10 13.0    1.965    1.965    1.965    1.965
 pw_scatter_s                        90 14.7    1.721    1.721    1.721    1.721
 pao_guess_initial_P                  1  4.0    0.000    0.000    1.720    1.720
 pao_read_preopt_dm                   1  5.0    0.000    0.000    1.720    1.720
 pw_gather_s                         81 13.8    1.601    1.601    1.601    1.601
 make_m2s                         44860  9.4    0.085    0.085    1.369    1.369
 multiply_cannon                  22430  9.4    0.548    0.548    1.345    1.345
 density_rs2pw                       10  8.0    0.001    0.001    1.321    1.321
 make_images                      44860 10.4    0.354    0.354    1.219    1.219
 pw_derive                           60 13.0    1.103    1.103    1.103    1.103
 potential_pw2rs                     10 11.0    0.002    0.002    0.896    0.896
 pw_copy                            120 11.8    0.795    0.795    0.795    0.795
 arnoldi_extremal                   847  8.5    0.002    0.002    0.734    0.734
 arnoldi_normal_ev                  847  9.5    0.006    0.006    0.731    0.731
 build_subspace                     847 10.5    0.032    0.032    0.572    0.572
 dbcsr_matrix_vector_mult         20322 11.5    0.065    0.065    0.530    0.530
 pw_axpy                             90 10.3    0.518    0.518    0.518    0.518
 pw_poisson_solve                    10  9.0    0.092    0.092    0.487    0.487
 pao_calc_AB                        550  5.8    0.001    0.001    0.483    0.483
 pao_calc_AB_equi                   550  6.8    0.015    0.015    0.483    0.483
 -------------------------------------------------------------------------------

 The number of warnings for this run is : 0
 
 -------------------------------------------------------------------------------
  **** **** ******  **  PROGRAM ENDED AT                 2023-02-01 10:45:42.959
 ***** ** ***  *** **   PROGRAM RAN ON                                    moritz
 **    ****   ******    PROGRAM RAN BY                                       ole
 ***** **    ** ** **   PROGRAM PROCESS ID                                148561
  **** **  *******  **  PROGRAM STOPPED IN /home/ole/git/pao_ml_equivar/2H2O_rot
                                           ations/phi_05
