 DBCSR| CPU Multiplication driver                                           BLAS
 DBCSR| Multrec recursion limit                                              512
 DBCSR| Multiplication stack size                                           1000
 DBCSR| Maximum elements for images                                    UNLIMITED
 DBCSR| Multiplicative factor virtual images                                   1
 DBCSR| Use multiplication densification                                       T
 DBCSR| Multiplication size stacks                                             3


  **** **** ******  **  PROGRAM STARTED AT               2019-03-28 17:31:45.740
 ***** ** ***  *** **   PROGRAM STARTED ON        oleschuett.zrh.corp.google.com
 **    ****   ******    PROGRAM STARTED BY                            oleschuett
 ***** **    ** ** **   PROGRAM PROCESS ID                                 29196
  **** **  *******  **  PROGRAM STARTED IN /usr/local/google/home/oleschuett/git
                                           /pao_ml_equivar/2H2O_rotations/phi_05

 CP2K| version string:                    CP2K version 7.0 (Development Version)
 CP2K| source code revision number:                                git:d9814d431
 CP2K| cp2kflags: libint fftw3 libxc libderiv_max_am1=5 libint_max_am=6         
 CP2K| is freely available from                            https://www.cp2k.org/
 CP2K| Program compiled at                          Mon Mar 25 16:50:07 CET 2019
 CP2K| Program compiled on                        oleschuett.zrh.corp.google.com
 CP2K| Program compiled for                                                local
 CP2K| Data directory path       /usr/local/google/home/oleschuett/git/cp2k/data
 CP2K| Input file name                                            2H2O_pao44.inp

 GLOBAL| Force Environment number                                              1
 GLOBAL| Basis set file name                                        BASIS_MOLOPT
 GLOBAL| Potential file name                                      GTH_POTENTIALS
 GLOBAL| MM Potential file name                                     MM_POTENTIAL
 GLOBAL| Coordinate file name                                         coords.xyz
 GLOBAL| Method name                                                        CP2K
 GLOBAL| Project name                                                 2H2O_pao44
 GLOBAL| Preferred FFT library                                             FFTW3
 GLOBAL| Preferred diagonalization lib.                                       SL
 GLOBAL| Run type                                                         ENERGY
 GLOBAL| All-to-all communication in single precision                          F
 GLOBAL| FFTs using library dependent lengths                                  F
 GLOBAL| Global print level                                                  LOW
 GLOBAL| MPI I/O enabled                                                       T
 GLOBAL| Total number of message passing processes                             1
 GLOBAL| Number of threads for this process                                    1
 GLOBAL| This output is from process                                           0
 GLOBAL| CPU model name :  Intel(R) Xeon(R) CPU E5-1650 v4 @ 3.60GHz

 MEMORY| system memory details [Kb]
 MEMORY|                        rank 0           min           max       average
 MEMORY| MemTotal             65953612      65953612      65953612      65953612
 MEMORY| MemFree               6720272       6720272       6720272       6720272
 MEMORY| Buffers               2547996       2547996       2547996       2547996
 MEMORY| Cached               25385676      25385676      25385676      25385676
 MEMORY| Slab                  3623792       3623792       3623792       3623792
 MEMORY| SReclaimable          2422904       2422904       2422904       2422904
 MEMORY| MemLikelyFree        37076848      37076848      37076848      37076848


 GENERATE|  Preliminary Number of Bonds generated:                             0
 GENERATE|  Achieved consistency in connectivity generation.

 *******************************************************************************
 *******************************************************************************
 **                                                                           **
 **     #####                         ##              ##                      **
 **    ##   ##            ##          ##              ##                      **
 **   ##     ##                       ##            ######                    **
 **   ##     ##  ##   ##  ##   #####  ##  ##   ####   ##    #####    #####    **
 **   ##     ##  ##   ##  ##  ##      ## ##   ##      ##   ##   ##  ##   ##   **
 **   ##  ## ##  ##   ##  ##  ##      ####     ###    ##   ######   ######    **
 **    ##  ###   ##   ##  ##  ##      ## ##      ##   ##   ##       ##        **
 **     #######   #####   ##   #####  ##  ##  ####    ##    #####   ##        **
 **           ##                                                    ##        **
 **                                                                           **
 **                                                ... make the atoms dance   **
 **                                                                           **
 **            Copyright (C) by CP2K developers group (2000 - 2018)           **
 **                                                                           **
 *******************************************************************************


 TOTAL NUMBERS AND MAXIMUM NUMBERS

  Total number of            - Atomic kinds:                                   2
                             - Atoms:                                          6
                             - Shell sets:                                     6
                             - Shells:                                        22
                             - Primitive Cartesian functions:                 42
                             - Cartesian basis functions:                     48
                             - Spherical basis functions:                     46

  Maximum angular momentum of- Orbital basis functions:                        2
                             - Local part of the GTH pseudopotential:          2
                             - Non-local part of the GTH pseudopotential:      0

 ------------------------------ Linear scaling SCF -----------------------------
 eps_scf:                                                              0.100E-07
 eps_filter:                                                           0.100E-07
 mixing_fraction:                                                      0.450E+00
 max_scf:                                                                     25
 fixed chemical potential (mu)                                                 F
 has unit metric:                                                              F
 Computing inv(S):                                                             T
 Computing sqrt(S):                                                            T
 Computing s preconditioner                                                    F
 sign sqrt order:                                                              3
 Extrapolation order:                                                          1
 Use single precision matrices                                                 F
 S preconditioner type                                                      NONE
 Polarized Atomic Orbitals (PAO)                                               T
 Purification method                                   Trace resetting 4th order
 Cluster type                                                             ATOMIC
 Computing Chebyshev                                                       FALSE
 Using PAO                                                                     T
 -------------------------------------------------------------------------------

 
 PAO|                                  EPS_PAO                           0.1E-04
 PAO|                                  MIXING                            0.5E+00
 PAO|                                  MAX_PAO                              1000
 PAO|                                  MAX_CYCLES                           1000
 PAO|                                  PARAMETERIZATION                   DIRECT
 PAO|                                  PRECONDITION                            F
 PAO|                                  REGULARIZATION                    0.0E+00
 PAO|                                  EPS_PGF                           0.1E-09
 PAO|                                  PENALTY_DISTANCE                  0.1E+00
 PAO|                                  PENALTY_STRENGTH                  0.5E-02
 PAO|                                  LINPOT_PRECONDITION_DELTA         0.0E+00
 PAO|                                  LINPOT_INITGUESS_DELT             0.0E+00
 PAO|                                  LINPOT_REGULARIZATION_DELTA       0.0E+00
 PAO|                                  LINPOT_REGULARIZATION_STRENGTH    0.0E+00
 PAO|                                  OPTIMIZER                              CG
 PAO|                                  CG_INIT_STEPS                           2
 PAO|                                  CG_RESET_LIMIT                    0.1E+00
 PAO|                                  CHECK_UNITARY_TOL                -0.1E+01
 PAO|                                  CHECK_GRADIENT_TOL               -0.1E+01
 PAO|                                  NUM_GRADIENT_ORDER                      2
 PAO|                                  NUM_GRADIENT_EPS                  0.1E-07
 PAO|                                  PRINT%RESTART%WRITE_CYCLES            100
 PAO|                                  RESTART_FILE 
 PAO|                                  PREOPT_DM_FILE 2H2O_ref_LS_DM_SPIN_1_RESTART.dm
 PAO|                                  MACHINE_LEARNING%METHOD        GAUSSIAN_P
 PAO|                                  MACHINE_LEARNING%PRIOR               ZERO
 PAO|                                  MACHINE_LEARNING%DESCRIPTOR     POTENTIAL
 PAO|                                  MACHINE_LEARNING%TOLERANCE        0.1E-01
 PAO|                                  MACHINE_LEARNING%GP_NOISE_VAR     0.1E+00
 PAO|                                  MACHINE_LEARNING%GP_SCALE         0.5E-01
 

 Calculating atomic Fock matrix for atomic kind: O

 Electronic structure
    Total number of core electrons                                          2.00
    Total number of valence electrons                                       6.00
    Total number of electrons                                               8.00
    Multiplicity                                                   not specified
    S   [  2.00] 2.00
    P      4.00


 *******************************************************************************
                  Iteration          Convergence                     Energy [au]
 *******************************************************************************
                          1        0.708315                     -15.576645311500
                          2        0.608879                     -15.587933561584
                          3        0.102828E-01                 -15.656849565404
                          4        0.113889E-02                 -15.656866888140
                          5        0.434197E-03                 -15.656867072159
                          6        0.263771E-03                 -15.656867091904
                          7        0.478536E-06                 -15.656867103452

 Energy components [Hartree]           Total Energy ::          -15.656867103452
                                        Band Energy ::           -3.000198112285
                                     Kinetic Energy ::           11.759971203220
                                   Potential Energy ::          -27.416838306672
                                      Virial (-V/T) ::            2.331369510426
                                        Core Energy ::          -26.140716385623
                                          XC Energy ::           -3.154051012914
                                     Coulomb Energy ::           13.637900295084
                       Total Pseudopotential Energy ::          -37.935781716540
                       Local Pseudopotential Energy ::          -39.218907440693
                    Nonlocal Pseudopotential Energy ::            1.283125724153
                                        Confinement ::            0.350941276976

 Orbital energies  State     L     Occupation   Energy[a.u.]          Energy[eV]

                       1     0          2.000      -0.864471          -23.523463

                       1     1          4.000      -0.317814           -8.648154


 Total Electron Density at R=0:                                         0.000068

 Calculating atomic Fock matrix for atomic kind: H

 Electronic structure
    Total number of core electrons                                          0.00
    Total number of valence electrons                                       1.00
    Total number of electrons                                               1.00
    Multiplicity                                                   not specified
    S      1.00


 *******************************************************************************
                  Iteration          Convergence                     Energy [au]
 *******************************************************************************
                          1        0.437545E-02                  -0.424159432110
                          2        0.531356E-03                  -0.424178438213
                          3        0.259176E-06                  -0.424178722480

 Energy components [Hartree]           Total Energy ::           -0.424178722480
                                        Band Energy ::           -0.199015229016
                                     Kinetic Energy ::            0.464007633961
                                   Potential Energy ::           -0.888186356441
                                      Virial (-V/T) ::            1.914163240935
                                        Core Energy ::           -0.479160803564
                                          XC Energy ::           -0.244352904054
                                     Coulomb Energy ::            0.299334985138
                       Total Pseudopotential Energy ::           -0.962295316385
                       Local Pseudopotential Energy ::           -0.962295316385
                    Nonlocal Pseudopotential Energy ::            0.000000000000
                                        Confinement ::            0.191268788606

 Orbital energies  State     L     Occupation   Energy[a.u.]          Energy[eV]

                       1     0          1.000      -0.199015           -5.415480


 Total Electron Density at R=0:                                         0.242907
 PAO| Made initial guess for matrix_X with norm:   4.8989794855663558     

     Lanczos converged:  T threshold:   0.100E-02
     Est. extremal eigenvalues:    0.337E+01   0.113E+00
     Est. condition number :    0.298E+02
     NS sqrt iter    1 1.00000000   0.822E+00       0.001       44.549
     NS sqrt iter    2 1.00000000   0.440E+00       0.002       70.681
     NS sqrt iter    3 1.00000000   0.171E+00       0.002       71.450
     NS sqrt iter    4 1.00000000   0.209E-01       0.002       71.961
     NS sqrt iter    5 1.00000000   0.569E-04       0.001       63.766
     Final NS sqrt iter    5 1.00000000   0.345E-08

 PAO| Read restart DM 2H2O_ref_LS_DM_SPIN_1_RESTART.dm with checksum:    64.019117262626452     
 PAO| Quickstep energy from restart density:  -34.450760000655713     
 PAO| ======================= Iteration:         1 =============================

     Lanczos converged:  T threshold:   0.100E-02
     Est. extremal eigenvalues:    0.337E+01   0.113E+00
     Est. condition number :    0.298E+02
     NS sqrt iter    1 1.00000000   0.822E+00       0.003       24.701
     NS sqrt iter    2 1.00000000   0.440E+00       0.002       56.446
     NS sqrt iter    3 1.00000000   0.171E+00       0.002       59.195
     NS sqrt iter    4 1.00000000   0.209E-01       0.002       64.256
     NS sqrt iter    5 1.00000000   0.569E-04       0.002       45.316
     Final NS sqrt iter    5 1.00000000   0.345E-08

     Est. extremal eigenvalues     -0.91943     1.91208  converged:  T
     TRS4 it   1 1.00000000   0.894E+00       0.001       16.128   0.100E-07
     TRS4 it   2 1.00000000   0.699E+00       0.001       32.171   0.100E-07
     TRS4 it   3 1.00000000   0.501E+00       0.001       29.183   0.100E-07
     TRS4 it   4 1.00000000   0.314E+00       0.001       32.256   0.100E-07
     TRS4 it   5 1.00000000   0.156E+00       0.001       32.256   0.100E-07
     TRS4 it   6 1.00000000   0.489E-01       0.001       32.256   0.100E-07
     TRS4 it   7 1.00000000   0.664E-02       0.001       32.256   0.100E-07
     TRS4 it   8 1.00000000   0.173E-03       0.001       32.256   0.100E-07
     TRS4 it   9 1.00000000   0.132E-06       0.001       32.256   0.100E-07
     TRS4 it  10 1.00000000   0.788E-13       0.001       32.256   0.100E-07
     Final TRS4 iteration   10 1.00000000   0.788E-13
     Chemical potential (mu):      -0.06381
 
 PAO| energy:  -7.6176706171902637      penalty:   3.6361557350031018E-033
 PAO|CG| warming up with steepest descent
 PAO|CG| beta:    0.0000000000000000     
 PAO| norm of gradient:  0.78388478004407292     
 PAO|LS| adapt:  T F F
 PAO|LS| adapt: scan_steps:    0.0000000000000000        0.0000000000000000        0.0000000000000000     
 PAO|LS| adapt: energies:   -7.6176706171902637        0.0000000000000000        0.0000000000000000     
 PAO| ======================= Iteration:         2 =============================

     Lanczos converged:  T threshold:   0.100E-02
     Est. extremal eigenvalues:    0.328E+01   0.125E+00
     Est. condition number :    0.262E+02
     NS sqrt iter    1 1.00000000   0.805E+00       0.002       35.919
     NS sqrt iter    2 1.00000000   0.424E+00       0.002       55.317
     NS sqrt iter    3 1.00000000   0.153E+00       0.002       67.654
     NS sqrt iter    4 1.00000000   0.145E-01       0.002       60.084
     NS sqrt iter    5 1.00000000   0.189E-04       0.002       50.766
     Final NS sqrt iter    5 1.00000000   0.540E-09

     Est. extremal eigenvalues     -0.92310     1.85950  converged:  T
     TRS4 it   1 1.00000000   0.892E+00       0.001       16.128   0.100E-07
     TRS4 it   2 1.00000000   0.681E+00       0.001       29.156   0.100E-07
     TRS4 it   3 1.00000000   0.486E+00       0.001       30.996   0.100E-07
     TRS4 it   4 1.00000000   0.295E+00       0.001       29.498   0.100E-07
     TRS4 it   5 1.00000000   0.137E+00       0.001       31.126   0.100E-07
     TRS4 it   6 1.00000000   0.379E-01       0.001       30.838   0.100E-07
     TRS4 it   7 1.00000000   0.404E-02       0.001       32.256   0.100E-07
     TRS4 it   8 1.00000000   0.646E-04       0.001       32.256   0.100E-07
     TRS4 it   9 1.00000000   0.185E-07       0.001       28.483   0.100E-07
     Final TRS4 iteration    9 1.00000000   0.185E-07
     Chemical potential (mu):      -0.05190
 
 PAO| energy:  -7.6732254472429959      penalty:   2.2550614571261993E-008
 PAO|LS| adapt:  T T F
 PAO|LS| adapt: scan_steps:    0.0000000000000000       0.10000000000000001        0.0000000000000000     
 PAO|LS| adapt: energies:   -7.6176706171902637       -7.6732254472429959        0.0000000000000000     
 PAO| ======================= Iteration:         3 =============================

     Lanczos converged:  T threshold:   0.100E-02
     Est. extremal eigenvalues:    0.319E+01   0.136E+00
     Est. condition number :    0.234E+02
     NS sqrt iter    1 1.00000000   0.787E+00       0.002       32.430
     NS sqrt iter    2 1.00000000   0.408E+00       0.002       60.504
     NS sqrt iter    3 1.00000000   0.136E+00       0.002       65.187
     NS sqrt iter    4 1.00000000   0.101E-01       0.002       67.838
     NS sqrt iter    5 1.00000000   0.661E-05       0.001       55.672
     Final NS sqrt iter    5 1.00000000   0.673E-10

     Est. extremal eigenvalues     -0.92653     1.81715  converged:  T
     TRS4 it   1 1.00000000   0.890E+00       0.001       16.128   0.100E-07
     TRS4 it   2 1.00000000   0.666E+00       0.001       22.976   0.100E-07
     TRS4 it   3 1.00000000   0.471E+00       0.001       32.079   0.100E-07
     TRS4 it   4 1.00000000   0.276E+00       0.001       26.790   0.100E-07
     TRS4 it   5 1.00000000   0.119E+00       0.001       32.256   0.100E-07
     TRS4 it   6 1.00000000   0.286E-01       0.001       32.256   0.100E-07
     TRS4 it   7 1.00000000   0.229E-02       0.001       32.256   0.100E-07
     TRS4 it   8 1.00000000   0.208E-04       0.001       32.256   0.100E-07
     TRS4 it   9 1.00000000   0.192E-08       0.013        2.435   0.100E-07
     Final TRS4 iteration    9 1.00000000   0.192E-08
     Chemical potential (mu):      -0.03904
 
 PAO| energy:  -7.7163323216805066      penalty:   3.6080993840723052E-007
 PAO|LS| adapt:  T T F
 PAO|LS| adapt: scan_steps:    0.0000000000000000       0.20000000000000001        0.0000000000000000     
 PAO|LS| adapt: energies:   -7.6176706171902637       -7.7163323216805066        0.0000000000000000     
 PAO| ======================= Iteration:         4 =============================

     Lanczos converged:  T threshold:   0.100E-02
     Est. extremal eigenvalues:    0.299E+01   0.154E+00
     Est. condition number :    0.194E+02
     NS sqrt iter    1 1.00000000   0.750E+00       0.002       38.496
     NS sqrt iter    2 1.00000000   0.373E+00       0.002       64.172
     NS sqrt iter    3 1.00000000   0.106E+00       0.002       69.000
     NS sqrt iter    4 1.00000000   0.499E-02       0.002       68.779
     NS sqrt iter    5 1.00000000   0.996E-06       0.001       56.266
     Final NS sqrt iter    5 1.00000000   0.167E-11

     Est. extremal eigenvalues     -0.93186     1.75528  converged:  T
     TRS4 it   1 1.00000000   0.888E+00       0.001       16.128   0.100E-07
     TRS4 it   2 1.00000000   0.639E+00       0.001       26.476   0.100E-07
     TRS4 it   3 1.00000000   0.444E+00       0.001       28.256   0.100E-07
     TRS4 it   4 1.00000000   0.240E+00       0.002       20.274   0.100E-07
     TRS4 it   5 1.00000000   0.884E-01       0.001       22.968   0.100E-07
     TRS4 it   6 1.00000000   0.152E-01       0.001       22.443   0.100E-07
     TRS4 it   7 1.00000000   0.613E-03       0.001       25.531   0.100E-07
     TRS4 it   8 1.00000000   0.145E-05       0.001       27.369   0.100E-07
     TRS4 it   9 1.00000000   0.929E-11       0.001       28.050   0.100E-07
     Final TRS4 iteration    9 1.00000000   0.929E-11
     Chemical potential (mu):      -0.01072
 
 PAO| energy:  -7.7635914948564304      penalty:   5.7729598566653000E-006
 PAO|LS| Need extra step
 PAO|LS| adapt:  T T F
 PAO|LS| adapt: scan_steps:    0.0000000000000000       0.40000000000000002        0.0000000000000000     
 PAO|LS| adapt: energies:   -7.6176706171902637       -7.7635914948564304        0.0000000000000000     
 PAO| ======================= Iteration:         5 =============================

     Lanczos converged:  T threshold:   0.100E-02
     Est. extremal eigenvalues:    0.263E+01   0.181E+00
     Est. condition number :    0.145E+02
     NS sqrt iter    1 1.00000000   0.684E+00       0.002       32.919
     NS sqrt iter    2 1.00000000   0.311E+00       0.002       63.087
     NS sqrt iter    3 1.00000000   0.657E-01       0.002       62.357
     NS sqrt iter    4 1.00000000   0.139E-02       0.002       65.025
     NS sqrt iter    5 1.00000000   0.275E-07       0.002       37.190
     Final NS sqrt iter    5 1.00000000   0.392E-08

     Est. extremal eigenvalues     -0.93309     1.68504  converged:  T
     TRS4 it   1 1.00000000   0.885E+00       0.001       16.128   0.100E-07
     TRS4 it   2 1.00000000   0.604E+00       0.001       32.256   0.100E-07
     TRS4 it   3 1.00000000   0.398E+00       0.001       31.462   0.100E-07
     TRS4 it   4 1.00000000   0.185E+00       0.001       32.256   0.100E-07
     TRS4 it   5 1.00000000   0.488E-01       0.001       32.256   0.100E-07
     TRS4 it   6 1.00000000   0.421E-02       0.001       31.116   0.100E-07
     TRS4 it   7 1.00000000   0.402E-04       0.001       30.778   0.100E-07
     TRS4 it   8 1.00000000   0.466E-08       0.001       32.256   0.100E-07
     Final TRS4 iteration    8 1.00000000   0.466E-08
     Chemical potential (mu):       0.03754
 
 PAO| energy:  -7.7087860694161110      penalty:   9.2367364443889582E-005
 PAO|LS| Need extra step
 PAO|LS| adapt:  T T T
 PAO|LS| adapt: scan_steps:    0.0000000000000000       0.40000000000000002       0.80000000000000004     
 PAO|LS| adapt: energies:   -7.6176706171902637       -7.7635914948564304       -7.7087860694161110     
 PAO|LS| adapt: suggested step_size:   0.49078576231985926     
 PAO|LS| adapt: predicted energy  -7.7687614859748315     
 PAO| ======================= Iteration:         6 =============================

     Lanczos converged:  T threshold:   0.100E-02
     Est. extremal eigenvalues:    0.290E+01   0.161E+00
     Est. condition number :    0.181E+02
     NS sqrt iter    1 1.00000000   0.733E+00       0.002       29.773
     NS sqrt iter    2 1.00000000   0.358E+00       0.002       55.548
     NS sqrt iter    3 1.00000000   0.951E-01       0.002       66.058
     NS sqrt iter    4 1.00000000   0.368E-02       0.002       69.722
     NS sqrt iter    5 1.00000000   0.438E-06       0.001       55.876
     Final NS sqrt iter    5 1.00000000   0.869E-11

     Est. extremal eigenvalues     -0.93334     1.73448  converged:  T
     TRS4 it   1 1.00000000   0.887E+00       0.001       16.128   0.100E-07
     TRS4 it   2 1.00000000   0.630E+00       0.001       32.256   0.100E-07
     TRS4 it   3 1.00000000   0.432E+00       0.001       32.256   0.100E-07
     TRS4 it   4 1.00000000   0.225E+00       0.001       32.256   0.100E-07
     TRS4 it   5 1.00000000   0.768E-01       0.001       32.256   0.100E-07
     TRS4 it   6 1.00000000   0.112E-01       0.001       32.256   0.100E-07
     TRS4 it   7 1.00000000   0.319E-03       0.001       32.256   0.100E-07
     TRS4 it   8 1.00000000   0.374E-06       0.001       32.256   0.100E-07
     TRS4 it   9 1.00000000   0.616E-12       0.001       32.256   0.100E-07
     Final TRS4 iteration    9 1.00000000   0.616E-12
     Chemical potential (mu):       0.00293
 
 PAO| energy:  -7.7680229147780162      penalty:   1.3083574311753841E-005
 PAO|CG| warming up with steepest descent
 PAO|CG| beta:    0.0000000000000000     
 PAO| norm of gradient:  0.41740053151266687     
 PAO| energy improvement: -0.15035229758775248     
 PAO| step      6                   -7.768022915  0.261E-01  0.491E+00     0.157
 PAO|LS| adapt:  T F F
 PAO|LS| adapt: scan_steps:    0.0000000000000000        0.0000000000000000        0.0000000000000000     
 PAO|LS| adapt: energies:   -7.7680229147780162        0.0000000000000000        0.0000000000000000     
 PAO| ======================= Iteration:         7 =============================

     Lanczos converged:  T threshold:   0.100E-02
     Est. extremal eigenvalues:    0.281E+01   0.175E+00
     Est. condition number :    0.161E+02
     NS sqrt iter    1 1.00000000   0.716E+00       0.002       42.553
     NS sqrt iter    2 1.00000000   0.337E+00       0.002       65.925
     NS sqrt iter    3 1.00000000   0.795E-01       0.001       74.014
     NS sqrt iter    4 1.00000000   0.224E-02       0.001       74.905
     NS sqrt iter    5 1.00000000   0.108E-06       0.001       55.860
     Final NS sqrt iter    5 1.00000000   0.109E-08

     Est. extremal eigenvalues     -0.93504     1.72043  converged:  T
     TRS4 it   1 1.00000000   0.886E+00       0.001       16.128   0.100E-07
     TRS4 it   2 1.00000000   0.628E+00       0.001       24.795   0.100E-07
     TRS4 it   3 1.00000000   0.432E+00       0.001       25.499   0.100E-07
     TRS4 it   4 1.00000000   0.226E+00       0.001       29.135   0.100E-07
     TRS4 it   5 1.00000000   0.775E-01       0.001       28.181   0.100E-07
     TRS4 it   6 1.00000000   0.111E-01       0.001       24.600   0.100E-07
     TRS4 it   7 1.00000000   0.300E-03       0.001       27.616   0.100E-07
     TRS4 it   8 1.00000000   0.312E-06       0.001       22.774   0.100E-07
     TRS4 it   9 1.00000000   0.418E-12       0.002       18.108   0.100E-07
     Final TRS4 iteration    9 1.00000000   0.418E-12
     Chemical potential (mu):       0.00488
 
 PAO| energy:  -7.7619154974676610      penalty:   1.9795792198852097E-005
 PAO|LS| adapt:  T F T
 PAO|LS| adapt: scan_steps:    0.0000000000000000        0.0000000000000000       0.49078576231985926     
 PAO|LS| adapt: energies:   -7.7680229147780162        0.0000000000000000       -7.7619154974676610     
 PAO| ======================= Iteration:         8 =============================

     Lanczos converged:  T threshold:   0.100E-02
     Est. extremal eigenvalues:    0.286E+01   0.168E+00
     Est. condition number :    0.170E+02
     NS sqrt iter    1 1.00000000   0.724E+00       0.002       34.784
     NS sqrt iter    2 1.00000000   0.348E+00       0.002       64.730
     NS sqrt iter    3 1.00000000   0.871E-01       0.002       65.844
     NS sqrt iter    4 1.00000000   0.289E-02       0.002       65.876
     NS sqrt iter    5 1.00000000   0.222E-06       0.002       52.644
     Final NS sqrt iter    5 1.00000000   0.336E-09

     Est. extremal eigenvalues     -0.93515     1.72689  converged:  T
     TRS4 it   1 1.00000000   0.886E+00       0.001       16.128   0.100E-07
     TRS4 it   2 1.00000000   0.628E+00       0.001       32.256   0.100E-07
     TRS4 it   3 1.00000000   0.431E+00       0.001       32.256   0.100E-07
     TRS4 it   4 1.00000000   0.225E+00       0.001       32.256   0.100E-07
     TRS4 it   5 1.00000000   0.769E-01       0.001       32.256   0.100E-07
     TRS4 it   6 1.00000000   0.112E-01       0.001       24.201   0.100E-07
     TRS4 it   7 1.00000000   0.317E-03       0.001       22.348   0.100E-07
     TRS4 it   8 1.00000000   0.362E-06       0.001       31.832   0.100E-07
     TRS4 it   9 1.00000000   0.573E-12       0.001       32.256   0.100E-07
     Final TRS4 iteration    9 1.00000000   0.573E-12
     Chemical potential (mu):       0.00345
 
 PAO| energy:  -7.7876326861690259      penalty:   1.4184772116798515E-005
 PAO|LS| adapt:  T T T
 PAO|LS| adapt: scan_steps:    0.0000000000000000       0.24539288115992963       0.49078576231985926     
 PAO|LS| adapt: energies:   -7.7680229147780162       -7.7876326861690259       -7.7619154974676610     
 PAO|LS| adapt: suggested step_size:   0.22886059301199549     
 PAO|LS| adapt: predicted energy  -7.7877355514012381     
 PAO| ======================= Iteration:         9 =============================

     Lanczos converged:  T threshold:   0.100E-02
     Est. extremal eigenvalues:    0.286E+01   0.167E+00
     Est. condition number :    0.171E+02
     NS sqrt iter    1 1.00000000   0.725E+00       0.002       39.966
     NS sqrt iter    2 1.00000000   0.348E+00       0.002       60.990
     NS sqrt iter    3 1.00000000   0.876E-01       0.002       55.553
     NS sqrt iter    4 1.00000000   0.294E-02       0.002       73.057
     NS sqrt iter    5 1.00000000   0.233E-06       0.001       59.275
     Final NS sqrt iter    5 1.00000000   0.346E-09

     Est. extremal eigenvalues     -0.93510     1.72736  converged:  T
     TRS4 it   1 1.00000000   0.886E+00       0.001       16.128   0.100E-07
     TRS4 it   2 1.00000000   0.628E+00       0.001       32.256   0.100E-07
     TRS4 it   3 1.00000000   0.431E+00       0.001       32.256   0.100E-07
     TRS4 it   4 1.00000000   0.225E+00       0.001       32.256   0.100E-07
     TRS4 it   5 1.00000000   0.769E-01       0.001       29.840   0.100E-07
     TRS4 it   6 1.00000000   0.112E-01       0.001       32.256   0.100E-07
     TRS4 it   7 1.00000000   0.318E-03       0.001       32.256   0.100E-07
     TRS4 it   8 1.00000000   0.365E-06       0.001       32.256   0.100E-07
     TRS4 it   9 1.00000000   0.581E-12       0.001       32.256   0.100E-07
     Final TRS4 iteration    9 1.00000000   0.581E-12
     Chemical potential (mu):       0.00339
 
 PAO| energy:  -7.7877602442311922      penalty:   1.4008349170734918E-005
 PAO|CG| trace_G_new    3.6814753213710111E-002
 PAO|CG| trace_G_prev   0.17422320370705680     
 PAO|CG| trace_G_mix   -1.4442107857355782E-003
 PAO|CG| trace_D   0.17422320370705680     
 PAO|CG| trace_D_Gnew   1.4442107857355782E-003
 PAO|CG| beta:   0.21959740829800867     
 PAO| norm of gradient:  0.19187171030068531     
 PAO| energy improvement:  -1.9737329453175967E-002
 PAO| step      9                   -7.787760244  0.120E-01  0.229E+00     0.087
 PAO|LS| adapt:  T F F
 PAO|LS| adapt: scan_steps:    0.0000000000000000        0.0000000000000000        0.0000000000000000     
 PAO|LS| adapt: energies:   -7.7877602442311922        0.0000000000000000        0.0000000000000000     
 PAO| ======================= Iteration:        10 =============================

     Lanczos converged:  T threshold:   0.100E-02
     Est. extremal eigenvalues:    0.282E+01   0.173E+00
     Est. condition number :    0.163E+02
     NS sqrt iter    1 1.00000000   0.717E+00       0.001       45.276
     NS sqrt iter    2 1.00000000   0.340E+00       0.002       66.960
     NS sqrt iter    3 1.00000000   0.820E-01       0.002       54.837
     NS sqrt iter    4 1.00000000   0.242E-02       0.002       57.920
     NS sqrt iter    5 1.00000000   0.130E-06       0.003       28.670
     Final NS sqrt iter    5 1.00000000   0.124E-08

     Est. extremal eigenvalues     -0.93599     1.72359  converged:  T
     TRS4 it   1 1.00000000   0.884E+00       0.001       16.128   0.100E-07
     TRS4 it   2 1.00000000   0.627E+00       0.001       29.513   0.100E-07
     TRS4 it   3 1.00000000   0.430E+00       0.001       32.256   0.100E-07
     TRS4 it   4 1.00000000   0.223E+00       0.001       25.362   0.100E-07
     TRS4 it   5 1.00000000   0.750E-01       0.001       32.256   0.100E-07
     TRS4 it   6 1.00000000   0.106E-01       0.001       32.256   0.100E-07
     TRS4 it   7 1.00000000   0.280E-03       0.001       32.256   0.100E-07
     TRS4 it   8 1.00000000   0.276E-06       0.001       32.256   0.100E-07
     TRS4 it   9 1.00000000   0.329E-12       0.001       32.256   0.100E-07
     Final TRS4 iteration    9 1.00000000   0.329E-12
     Chemical potential (mu):       0.00643
 
 PAO| energy:  -7.7927876037167669      penalty:   1.4541780413401505E-005
 PAO|LS| adapt:  T T F
 PAO|LS| adapt: scan_steps:    0.0000000000000000       0.22886059301199549        0.0000000000000000     
 PAO|LS| adapt: energies:   -7.7877602442311922       -7.7927876037167669        0.0000000000000000     
 PAO| ======================= Iteration:        11 =============================

     Lanczos converged:  T threshold:   0.100E-02
     Est. extremal eigenvalues:    0.279E+01   0.179E+00
     Est. condition number :    0.156E+02
     NS sqrt iter    1 1.00000000   0.709E+00       0.002       32.147
     NS sqrt iter    2 1.00000000   0.332E+00       0.002       54.905
     NS sqrt iter    3 1.00000000   0.766E-01       0.002       50.067
     NS sqrt iter    4 1.00000000   0.198E-02       0.002       61.822
     NS sqrt iter    5 1.00000000   0.713E-07       0.002       45.481
     Final NS sqrt iter    5 1.00000000   0.714E-09

     Est. extremal eigenvalues     -0.93591     1.72097  converged:  T
     TRS4 it   1 1.00000000   0.883E+00       0.001       16.128   0.100E-07
     TRS4 it   2 1.00000000   0.626E+00       0.001       32.256   0.100E-07
     TRS4 it   3 1.00000000   0.428E+00       0.001       32.256   0.100E-07
     TRS4 it   4 1.00000000   0.221E+00       0.001       32.256   0.100E-07
     TRS4 it   5 1.00000000   0.731E-01       0.001       32.256   0.100E-07
     TRS4 it   6 1.00000000   0.100E-01       0.001       30.713   0.100E-07
     TRS4 it   7 1.00000000   0.246E-03       0.001       32.256   0.100E-07
     TRS4 it   8 1.00000000   0.207E-06       0.001       32.256   0.100E-07
     TRS4 it   9 1.00000000   0.181E-12       0.001       25.339   0.100E-07
     Final TRS4 iteration    9 1.00000000   0.181E-12
     Chemical potential (mu):       0.00959
 
 PAO| energy:  -7.7914059730952818      penalty:   1.5739995026440924E-005
 PAO|LS| adapt:  T T T
 PAO|LS| adapt: scan_steps:    0.0000000000000000       0.22886059301199549       0.45772118602399098     
 PAO|LS| adapt: energies:   -7.7877602442311922       -7.7927876037167669       -7.7914059730952818     
 PAO|LS| adapt: suggested step_size:   0.29395381798650488     
 PAO|LS| adapt: predicted energy  -7.7930468360359084     
 PAO| ======================= Iteration:        12 =============================

     Lanczos converged:  T threshold:   0.100E-02
     Est. extremal eigenvalues:    0.281E+01   0.175E+00
     Est. condition number :    0.161E+02
     NS sqrt iter    1 1.00000000   0.715E+00       0.001       43.188
     NS sqrt iter    2 1.00000000   0.338E+00       0.002       71.853
     NS sqrt iter    3 1.00000000   0.805E-01       0.002       73.056
     NS sqrt iter    4 1.00000000   0.229E-02       0.001       74.910
     NS sqrt iter    5 1.00000000   0.110E-06       0.001       55.147
     Final NS sqrt iter    5 1.00000000   0.133E-08

     Est. extremal eigenvalues     -0.93606     1.72273  converged:  T
     TRS4 it   1 1.00000000   0.884E+00       0.001       16.128   0.100E-07
     TRS4 it   2 1.00000000   0.627E+00       0.001       32.256   0.100E-07
     TRS4 it   3 1.00000000   0.429E+00       0.001       32.256   0.100E-07
     TRS4 it   4 1.00000000   0.222E+00       0.001       32.256   0.100E-07
     TRS4 it   5 1.00000000   0.744E-01       0.001       32.256   0.100E-07
     TRS4 it   6 1.00000000   0.104E-01       0.001       32.256   0.100E-07
     TRS4 it   7 1.00000000   0.270E-03       0.001       32.256   0.100E-07
     TRS4 it   8 1.00000000   0.254E-06       0.001       32.256   0.100E-07
     TRS4 it   9 1.00000000   0.277E-12       0.001       32.256   0.100E-07
     Final TRS4 iteration    9 1.00000000   0.277E-12
     Chemical potential (mu):       0.00732
 
 PAO| energy:  -7.7930305953116994      penalty:   1.4807275721419934E-005
 PAO|CG| trace_G_new    1.1791320759197647E-002
 PAO|CG| trace_G_prev    3.6814753213710111E-002
 PAO|CG| trace_G_mix   -4.5561495204800252E-004
 PAO|CG| trace_D    4.4582032660988063E-002
 PAO|CG| trace_D_Gnew   2.0677163598683537E-004
 PAO|CG| beta:   0.33266380030179837     
 PAO| norm of gradient:  0.10858784811938049     
 PAO| energy improvement:  -5.2703510805072185E-003
 PAO| step     12                   -7.793030595  0.679E-02  0.294E+00     0.087
 PAO|LS| adapt:  T F F
 PAO|LS| adapt: scan_steps:    0.0000000000000000        0.0000000000000000        0.0000000000000000     
 PAO|LS| adapt: energies:   -7.7930305953116994        0.0000000000000000        0.0000000000000000     
 PAO| ======================= Iteration:        13 =============================

     Lanczos converged:  T threshold:   0.100E-02
     Est. extremal eigenvalues:    0.278E+01   0.179E+00
     Est. condition number :    0.155E+02
     NS sqrt iter    1 1.00000000   0.707E+00       0.002       28.159
     NS sqrt iter    2 1.00000000   0.330E+00       0.002       63.858
     NS sqrt iter    3 1.00000000   0.761E-01       0.002       63.511
     NS sqrt iter    4 1.00000000   0.195E-02       0.002       65.064
     NS sqrt iter    5 1.00000000   0.684E-07       0.002       45.815
     Final NS sqrt iter    5 1.00000000   0.506E-09

     Est. extremal eigenvalues     -0.93654     1.71637  converged:  T
     TRS4 it   1 1.00000000   0.884E+00       0.001       16.128   0.100E-07
     TRS4 it   2 1.00000000   0.624E+00       0.001       31.489   0.100E-07
     TRS4 it   3 1.00000000   0.425E+00       0.001       32.256   0.100E-07
     TRS4 it   4 1.00000000   0.217E+00       0.001       31.158   0.100E-07
     TRS4 it   5 1.00000000   0.709E-01       0.001       32.256   0.100E-07
     TRS4 it   6 1.00000000   0.942E-02       0.001       32.256   0.100E-07
     TRS4 it   7 1.00000000   0.217E-03       0.001       32.256   0.100E-07
     TRS4 it   8 1.00000000   0.160E-06       0.002       21.017   0.100E-07
     TRS4 it   9 1.00000000   0.109E-12       0.001       32.256   0.100E-07
     Final TRS4 iteration    9 1.00000000   0.109E-12
     Chemical potential (mu):       0.01177
 
 PAO| energy:  -7.7950980470333029      penalty:   1.5111638235171632E-005
 PAO|LS| adapt:  T T F
 PAO|LS| adapt: scan_steps:    0.0000000000000000       0.29395381798650488        0.0000000000000000     
 PAO|LS| adapt: energies:   -7.7930305953116994       -7.7950980470333029        0.0000000000000000     
 PAO| ======================= Iteration:        14 =============================

     Lanczos converged:  T threshold:   0.100E-02
     Est. extremal eigenvalues:    0.274E+01   0.183E+00
     Est. condition number :    0.150E+02
     NS sqrt iter    1 1.00000000   0.700E+00       0.002       31.325
     NS sqrt iter    2 1.00000000   0.324E+00       0.002       47.906
     NS sqrt iter    3 1.00000000   0.720E-01       0.002       60.754
     NS sqrt iter    4 1.00000000   0.166E-02       0.002       63.106
     NS sqrt iter    5 1.00000000   0.426E-07       0.002       43.115
     Final NS sqrt iter    5 1.00000000   0.374E-09

     Est. extremal eigenvalues     -0.93652     1.71027  converged:  T
     TRS4 it   1 1.00000000   0.883E+00       0.001       16.128   0.100E-07
     TRS4 it   2 1.00000000   0.621E+00       0.001       32.256   0.100E-07
     TRS4 it   3 1.00000000   0.421E+00       0.001       31.826   0.100E-07
     TRS4 it   4 1.00000000   0.213E+00       0.001       28.033   0.100E-07
     TRS4 it   5 1.00000000   0.676E-01       0.001       28.623   0.100E-07
     TRS4 it   6 1.00000000   0.850E-02       0.001       31.445   0.100E-07
     TRS4 it   7 1.00000000   0.175E-03       0.001       31.617   0.100E-07
     TRS4 it   8 1.00000000   0.101E-06       0.001       32.076   0.100E-07
     TRS4 it   9 1.00000000   0.424E-13       0.001       31.691   0.100E-07
     Final TRS4 iteration    9 1.00000000   0.424E-13
     Chemical potential (mu):       0.01612
 
 PAO| energy:  -7.7944586829878624      penalty:   1.5895624938877194E-005
 PAO|LS| adapt:  T T T
 PAO|LS| adapt: scan_steps:    0.0000000000000000       0.29395381798650488       0.58790763597300977     
 PAO|LS| adapt: energies:   -7.7930305953116994       -7.7950980470333029       -7.7944586829878624     
 PAO|LS| adapt: suggested step_size:   0.37149729729134479     
 PAO|LS| adapt: predicted energy  -7.7951922275477123     
 PAO| ======================= Iteration:        15 =============================

     Lanczos converged:  T threshold:   0.100E-02
     Est. extremal eigenvalues:    0.277E+01   0.180E+00
     Est. condition number :    0.154E+02
     NS sqrt iter    1 1.00000000   0.706E+00       0.002       37.341
     NS sqrt iter    2 1.00000000   0.329E+00       0.002       57.467
     NS sqrt iter    3 1.00000000   0.750E-01       0.002       65.933
     NS sqrt iter    4 1.00000000   0.187E-02       0.002       71.913
     NS sqrt iter    5 1.00000000   0.604E-07       0.001       50.901
     Final NS sqrt iter    5 1.00000000   0.433E-09

     Est. extremal eigenvalues     -0.93659     1.71474  converged:  T
     TRS4 it   1 1.00000000   0.883E+00       0.001       16.128   0.100E-07
     TRS4 it   2 1.00000000   0.623E+00       0.001       32.256   0.100E-07
     TRS4 it   3 1.00000000   0.424E+00       0.001       32.068   0.100E-07
     TRS4 it   4 1.00000000   0.216E+00       0.001       32.256   0.100E-07
     TRS4 it   5 1.00000000   0.700E-01       0.001       32.256   0.100E-07
     TRS4 it   6 1.00000000   0.916E-02       0.001       32.256   0.100E-07
     TRS4 it   7 1.00000000   0.205E-03       0.001       32.256   0.100E-07
     TRS4 it   8 1.00000000   0.142E-06       0.001       32.256   0.100E-07
     TRS4 it   9 1.00000000   0.849E-13       0.001       32.256   0.100E-07
     Final TRS4 iteration    9 1.00000000   0.849E-13
     Chemical potential (mu):       0.01293
 
 PAO| energy:  -7.7951891262630291      penalty:   1.5268808745844064E-005
 PAO|CG| trace_G_new    2.6299707855762054E-003
 PAO|CG| trace_G_prev    1.1791320759197647E-002
 PAO|CG| trace_G_mix    6.1799915624229128E-005
 PAO|CG| trace_D    1.6587429623309065E-002
 PAO|CG| trace_D_Gnew   3.4060205053975789E-005
 PAO|CG| beta:   0.21780179866184304     
 PAO| norm of gradient:   5.1283240786598162E-002
 PAO| energy improvement:  -2.1585309513296735E-003
 PAO| step     15                   -7.795189126  0.321E-02  0.371E+00     0.089
 PAO|LS| adapt:  T F F
 PAO|LS| adapt: scan_steps:    0.0000000000000000        0.0000000000000000        0.0000000000000000     
 PAO|LS| adapt: energies:   -7.7951891262630291        0.0000000000000000        0.0000000000000000     
 PAO| ======================= Iteration:        16 =============================

     Lanczos converged:  T threshold:   0.100E-02
     Est. extremal eigenvalues:    0.276E+01   0.181E+00
     Est. condition number :    0.153E+02
     NS sqrt iter    1 1.00000000   0.704E+00       0.002       32.771
     NS sqrt iter    2 1.00000000   0.327E+00       0.002       61.294
     NS sqrt iter    3 1.00000000   0.743E-01       0.002       71.178
     NS sqrt iter    4 1.00000000   0.181E-02       0.002       73.374
     NS sqrt iter    5 1.00000000   0.546E-07       0.001       48.694
     Final NS sqrt iter    5 1.00000000   0.403E-09

     Est. extremal eigenvalues     -0.93661     1.71373  converged:  T
     TRS4 it   1 1.00000000   0.884E+00       0.001       16.128   0.100E-07
     TRS4 it   2 1.00000000   0.622E+00       0.001       32.256   0.100E-07
     TRS4 it   3 1.00000000   0.423E+00       0.001       32.256   0.100E-07
     TRS4 it   4 1.00000000   0.214E+00       0.001       32.256   0.100E-07
     TRS4 it   5 1.00000000   0.688E-01       0.001       32.256   0.100E-07
     TRS4 it   6 1.00000000   0.887E-02       0.001       32.256   0.100E-07
     TRS4 it   7 1.00000000   0.193E-03       0.001       32.256   0.100E-07
     TRS4 it   8 1.00000000   0.127E-06       0.001       32.256   0.100E-07
     TRS4 it   9 1.00000000   0.694E-13       0.001       32.256   0.100E-07
     Final TRS4 iteration    9 1.00000000   0.694E-13
     Chemical potential (mu):       0.01376
 
 PAO| energy:  -7.7953123211631468      penalty:   1.5049838032016294E-005
 PAO|LS| adapt:  T T F
 PAO|LS| adapt: scan_steps:    0.0000000000000000       0.37149729729134479        0.0000000000000000     
 PAO|LS| adapt: energies:   -7.7951891262630291       -7.7953123211631468        0.0000000000000000     
 PAO| ======================= Iteration:        17 =============================

     Lanczos converged:  T threshold:   0.100E-02
     Est. extremal eigenvalues:    0.275E+01   0.182E+00
     Est. condition number :    0.152E+02
     NS sqrt iter    1 1.00000000   0.702E+00       0.001       45.388
     NS sqrt iter    2 1.00000000   0.326E+00       0.002       71.928
     NS sqrt iter    3 1.00000000   0.736E-01       0.002       67.854
     NS sqrt iter    4 1.00000000   0.175E-02       0.002       57.107
     NS sqrt iter    5 1.00000000   0.494E-07       0.002       41.315
     Final NS sqrt iter    5 1.00000000   0.403E-09

     Est. extremal eigenvalues     -0.93652     1.71281  converged:  T
     TRS4 it   1 1.00000000   0.884E+00       0.001       16.128   0.100E-07
     TRS4 it   2 1.00000000   0.621E+00       0.001       32.256   0.100E-07
     TRS4 it   3 1.00000000   0.422E+00       0.001       32.256   0.100E-07
     TRS4 it   4 1.00000000   0.213E+00       0.001       32.256   0.100E-07
     TRS4 it   5 1.00000000   0.677E-01       0.001       32.256   0.100E-07
     TRS4 it   6 1.00000000   0.858E-02       0.001       32.256   0.100E-07
     TRS4 it   7 1.00000000   0.182E-03       0.001       31.700   0.100E-07
     TRS4 it   8 1.00000000   0.114E-06       0.001       32.256   0.100E-07
     TRS4 it   9 1.00000000   0.555E-13       0.001       32.256   0.100E-07
     Final TRS4 iteration    9 1.00000000   0.555E-13
     Chemical potential (mu):       0.01457
 
 PAO| energy:  -7.7937278132227963      penalty:   1.4958366273430078E-005
 PAO|LS| adapt:  T T T
 PAO|LS| adapt: scan_steps:    0.0000000000000000       0.37149729729134479       0.74299459458268957     
 PAO|LS| adapt: energies:   -7.7951891262630291       -7.7953123211631468       -7.7937278132227963     
 PAO|LS| adapt: suggested step_size:   0.21254872846591452     
 PAO|LS| adapt: predicted energy  -7.7954686302520990     
 PAO| ======================= Iteration:        18 =============================

     Lanczos converged:  T threshold:   0.100E-02
     Est. extremal eigenvalues:    0.276E+01   0.180E+00
     Est. condition number :    0.153E+02
     NS sqrt iter    1 1.00000000   0.704E+00       0.002       37.263
     NS sqrt iter    2 1.00000000   0.328E+00       0.002       61.363
     NS sqrt iter    3 1.00000000   0.746E-01       0.002       61.997
     NS sqrt iter    4 1.00000000   0.183E-02       0.002       61.245
     NS sqrt iter    5 1.00000000   0.570E-07       0.002       37.422
     Final NS sqrt iter    5 1.00000000   0.409E-09

     Est. extremal eigenvalues     -0.93662     1.71415  converged:  T
     TRS4 it   1 1.00000000   0.883E+00       0.001       16.128   0.100E-07
     TRS4 it   2 1.00000000   0.622E+00       0.001       31.816   0.100E-07
     TRS4 it   3 1.00000000   0.423E+00       0.001       31.561   0.100E-07
     TRS4 it   4 1.00000000   0.215E+00       0.001       31.237   0.100E-07
     TRS4 it   5 1.00000000   0.694E-01       0.001       31.812   0.100E-07
     TRS4 it   6 1.00000000   0.899E-02       0.001       32.256   0.100E-07
     TRS4 it   7 1.00000000   0.198E-03       0.001       31.242   0.100E-07
     TRS4 it   8 1.00000000   0.133E-06       0.001       30.898   0.100E-07
     TRS4 it   9 1.00000000   0.750E-13       0.001       31.808   0.100E-07
     Final TRS4 iteration    9 1.00000000   0.750E-13
     Chemical potential (mu):       0.01341
 
 PAO| energy:  -7.7954681714565073      penalty:   1.5128206064271845E-005
 PAO|CG| trace_G_new    7.2687591335215897E-004
 PAO|CG| trace_G_prev    2.6299707855762054E-003
 PAO|CG| trace_G_mix    1.5000862863911724E-006
 PAO|CG| trace_D    3.4020022790379337E-003
 PAO|CG| trace_D_Gnew  -1.7229008880115780E-006
 PAO|CG| beta:   0.27581136301741987     
 PAO| norm of gradient:   2.6960636367715042E-002
 PAO| energy improvement:  -2.7904519347821122E-004
 PAO| step     18                   -7.795468171  0.169E-02  0.213E+00     0.083
 PAO|LS| adapt:  T F F
 PAO|LS| adapt: scan_steps:    0.0000000000000000        0.0000000000000000        0.0000000000000000     
 PAO|LS| adapt: energies:   -7.7954681714565073        0.0000000000000000        0.0000000000000000     
 PAO| ======================= Iteration:        19 =============================

     Lanczos converged:  T threshold:   0.100E-02
     Est. extremal eigenvalues:    0.276E+01   0.180E+00
     Est. condition number :    0.153E+02
     NS sqrt iter    1 1.00000000   0.704E+00       0.002       37.759
     NS sqrt iter    2 1.00000000   0.328E+00       0.002       60.626
     NS sqrt iter    3 1.00000000   0.748E-01       0.002       61.122
     NS sqrt iter    4 1.00000000   0.184E-02       0.002       60.670
     NS sqrt iter    5 1.00000000   0.575E-07       0.002       43.261
     Final NS sqrt iter    5 1.00000000   0.415E-09

     Est. extremal eigenvalues     -0.93662     1.71438  converged:  T
     TRS4 it   1 1.00000000   0.884E+00       0.001       16.128   0.100E-07
     TRS4 it   2 1.00000000   0.622E+00       0.001       31.755   0.100E-07
     TRS4 it   3 1.00000000   0.423E+00       0.001       31.666   0.100E-07
     TRS4 it   4 1.00000000   0.215E+00       0.001       31.658   0.100E-07
     TRS4 it   5 1.00000000   0.693E-01       0.001       31.766   0.100E-07
     TRS4 it   6 1.00000000   0.898E-02       0.001       31.090   0.100E-07
     TRS4 it   7 1.00000000   0.199E-03       0.001       31.374   0.100E-07
     TRS4 it   8 1.00000000   0.135E-06       0.001       32.256   0.100E-07
     TRS4 it   9 1.00000000   0.784E-13       0.001       32.256   0.100E-07
     Final TRS4 iteration    9 1.00000000   0.784E-13
     Chemical potential (mu):       0.01313
 
 PAO| energy:  -7.7955861122078023      penalty:   1.4838887952643874E-005
 PAO|LS| adapt:  T T F
 PAO|LS| adapt: scan_steps:    0.0000000000000000       0.21254872846591452        0.0000000000000000     
 PAO|LS| adapt: energies:   -7.7954681714565073       -7.7955861122078023        0.0000000000000000     
 PAO| ======================= Iteration:        20 =============================

     Lanczos converged:  T threshold:   0.100E-02
     Est. extremal eigenvalues:    0.277E+01   0.180E+00
     Est. condition number :    0.153E+02
     NS sqrt iter    1 1.00000000   0.704E+00       0.002       38.748
     NS sqrt iter    2 1.00000000   0.328E+00       0.002       60.975
     NS sqrt iter    3 1.00000000   0.750E-01       0.002       61.544
     NS sqrt iter    4 1.00000000   0.185E-02       0.002       61.690
     NS sqrt iter    5 1.00000000   0.580E-07       0.002       43.437
     Final NS sqrt iter    5 1.00000000   0.425E-09

     Est. extremal eigenvalues     -0.93661     1.71461  converged:  T
     TRS4 it   1 1.00000000   0.884E+00       0.001       16.128   0.100E-07
     TRS4 it   2 1.00000000   0.622E+00       0.001       31.282   0.100E-07
     TRS4 it   3 1.00000000   0.423E+00       0.001       32.009   0.100E-07
     TRS4 it   4 1.00000000   0.215E+00       0.001       32.233   0.100E-07
     TRS4 it   5 1.00000000   0.692E-01       0.001       31.859   0.100E-07
     TRS4 it   6 1.00000000   0.897E-02       0.001       31.435   0.100E-07
     TRS4 it   7 1.00000000   0.199E-03       0.001       32.062   0.100E-07
     TRS4 it   8 1.00000000   0.137E-06       0.001       30.780   0.100E-07
     TRS4 it   9 1.00000000   0.802E-13       0.001       32.068   0.100E-07
     Final TRS4 iteration    9 1.00000000   0.802E-13
     Chemical potential (mu):       0.01285
 
 PAO| energy:  -7.7956303504025843      penalty:   1.4561997953530510E-005
 PAO|LS| adapt:  T T F
 PAO|LS| adapt: scan_steps:    0.0000000000000000       0.42509745693182904        0.0000000000000000     
 PAO|LS| adapt: energies:   -7.7954681714565073       -7.7956303504025843        0.0000000000000000     
 PAO| ======================= Iteration:        21 =============================

     Lanczos converged:  T threshold:   0.100E-02
     Est. extremal eigenvalues:    0.277E+01   0.180E+00
     Est. condition number :    0.154E+02
     NS sqrt iter    1 1.00000000   0.704E+00       0.002       38.082
     NS sqrt iter    2 1.00000000   0.329E+00       0.002       52.616
     NS sqrt iter    3 1.00000000   0.754E-01       0.002       60.786
     NS sqrt iter    4 1.00000000   0.187E-02       0.002       60.888
     NS sqrt iter    5 1.00000000   0.592E-07       0.002       43.028
     Final NS sqrt iter    5 1.00000000   0.441E-09

     Est. extremal eigenvalues     -0.93661     1.71509  converged:  T
     TRS4 it   1 1.00000000   0.884E+00       0.001       16.128   0.100E-07
     TRS4 it   2 1.00000000   0.622E+00       0.001       32.256   0.100E-07
     TRS4 it   3 1.00000000   0.423E+00       0.001       31.319   0.100E-07
     TRS4 it   4 1.00000000   0.214E+00       0.001       32.256   0.100E-07
     TRS4 it   5 1.00000000   0.690E-01       0.001       26.140   0.100E-07
     TRS4 it   6 1.00000000   0.896E-02       0.001       31.866   0.100E-07
     TRS4 it   7 1.00000000   0.201E-03       0.001       31.298   0.100E-07
     TRS4 it   8 1.00000000   0.141E-06       0.001       32.256   0.100E-07
     TRS4 it   9 1.00000000   0.871E-13       0.001       32.256   0.100E-07
     Final TRS4 iteration    9 1.00000000   0.871E-13
     Chemical potential (mu):       0.01228
 
 PAO| energy:  -7.7954953458297327      penalty:   1.4044925163156742E-005
 PAO|LS| Need extra step
 PAO|LS| adapt:  T T T
 PAO|LS| adapt: scan_steps:    0.0000000000000000       0.42509745693182904       0.85019491386365809     
 PAO|LS| adapt: energies:   -7.7954681714565073       -7.7956303504025843       -7.7954953458297327     
 PAO|LS| adapt: suggested step_size:   0.44453284990631425     
 PAO|LS| adapt: predicted energy  -7.7956306610046679     
 PAO| ======================= Iteration:        22 =============================

     Lanczos converged:  T threshold:   0.100E-02
     Est. extremal eigenvalues:    0.277E+01   0.180E+00
     Est. condition number :    0.153E+02
     NS sqrt iter    1 1.00000000   0.704E+00       0.002       38.527
     NS sqrt iter    2 1.00000000   0.328E+00       0.002       56.123
     NS sqrt iter    3 1.00000000   0.750E-01       0.002       61.497
     NS sqrt iter    4 1.00000000   0.185E-02       0.002       59.421
     NS sqrt iter    5 1.00000000   0.580E-07       0.002       43.303
     Final NS sqrt iter    5 1.00000000   0.426E-09

     Est. extremal eigenvalues     -0.93661     1.71464  converged:  T
     TRS4 it   1 1.00000000   0.884E+00       0.001       16.128   0.100E-07
     TRS4 it   2 1.00000000   0.622E+00       0.001       30.354   0.100E-07
     TRS4 it   3 1.00000000   0.423E+00       0.001       31.878   0.100E-07
     TRS4 it   4 1.00000000   0.215E+00       0.001       32.256   0.100E-07
     TRS4 it   5 1.00000000   0.691E-01       0.001       31.147   0.100E-07
     TRS4 it   6 1.00000000   0.897E-02       0.001       31.939   0.100E-07
     TRS4 it   7 1.00000000   0.199E-03       0.001       31.676   0.100E-07
     TRS4 it   8 1.00000000   0.137E-06       0.001       31.692   0.100E-07
     TRS4 it   9 1.00000000   0.805E-13       0.001       31.636   0.100E-07
     Final TRS4 iteration    9 1.00000000   0.805E-13
     Chemical potential (mu):       0.01282
 
 PAO| energy:  -7.7956306968083942      penalty:   1.4537293242958890E-005
 PAO|CG| trace_G_new    2.2093826520662069E-004
 PAO|CG| trace_G_prev    7.2687591335215897E-004
 PAO|CG| trace_G_mix    2.9655455363055814E-006
 PAO|CG| trace_D    9.8662310891978644E-004
 PAO|CG| trace_D_Gnew  -1.8354596184083041E-006
 PAO|CG| beta:   0.29987610769090245     
 PAO| norm of gradient:   1.4863992236496247E-002
 PAO| energy improvement:  -1.6252535188687744E-004
 PAO| step     22                   -7.795630697  0.929E-03  0.445E+00     0.114
 PAO|LS| adapt:  T F F
 PAO|LS| adapt: scan_steps:    0.0000000000000000        0.0000000000000000        0.0000000000000000     
 PAO|LS| adapt: energies:   -7.7956306968083942        0.0000000000000000        0.0000000000000000     
 PAO| ======================= Iteration:        23 =============================

     Lanczos converged:  T threshold:   0.100E-02
     Est. extremal eigenvalues:    0.277E+01   0.180E+00
     Est. condition number :    0.153E+02
     NS sqrt iter    1 1.00000000   0.704E+00       0.002       39.912
     NS sqrt iter    2 1.00000000   0.328E+00       0.002       62.942
     NS sqrt iter    3 1.00000000   0.751E-01       0.002       63.334
     NS sqrt iter    4 1.00000000   0.185E-02       0.002       62.635
     NS sqrt iter    5 1.00000000   0.581E-07       0.002       44.708
     Final NS sqrt iter    5 1.00000000   0.428E-09

     Est. extremal eigenvalues     -0.93661     1.71458  converged:  T
     TRS4 it   1 1.00000000   0.884E+00       0.001       16.128   0.100E-07
     TRS4 it   2 1.00000000   0.622E+00       0.001       32.254   0.100E-07
     TRS4 it   3 1.00000000   0.423E+00       0.001       32.256   0.100E-07
     TRS4 it   4 1.00000000   0.215E+00       0.001       31.440   0.100E-07
     TRS4 it   5 1.00000000   0.693E-01       0.001       32.256   0.100E-07
     TRS4 it   6 1.00000000   0.902E-02       0.001       32.256   0.100E-07
     TRS4 it   7 1.00000000   0.202E-03       0.001       31.580   0.100E-07
     TRS4 it   8 1.00000000   0.141E-06       0.001       31.676   0.100E-07
     TRS4 it   9 1.00000000   0.859E-13       0.001       32.256   0.100E-07
     Final TRS4 iteration    9 1.00000000   0.859E-13
     Chemical potential (mu):       0.01249
 
 PAO| energy:  -7.7956796398560151      penalty:   1.3855307055832548E-005
 PAO|LS| adapt:  T T F
 PAO|LS| adapt: scan_steps:    0.0000000000000000       0.44453284990631425        0.0000000000000000     
 PAO|LS| adapt: energies:   -7.7956306968083942       -7.7956796398560151        0.0000000000000000     
 PAO| ======================= Iteration:        24 =============================

     Lanczos converged:  T threshold:   0.100E-02
     Est. extremal eigenvalues:    0.277E+01   0.180E+00
     Est. condition number :    0.153E+02
     NS sqrt iter    1 1.00000000   0.704E+00       0.002       39.590
     NS sqrt iter    2 1.00000000   0.329E+00       0.002       60.607
     NS sqrt iter    3 1.00000000   0.751E-01       0.002       60.888
     NS sqrt iter    4 1.00000000   0.185E-02       0.002       61.961
     NS sqrt iter    5 1.00000000   0.582E-07       0.002       44.933
     Final NS sqrt iter    5 1.00000000   0.431E-09

     Est. extremal eigenvalues     -0.93661     1.71453  converged:  T
     TRS4 it   1 1.00000000   0.883E+00       0.001       16.128   0.100E-07
     TRS4 it   2 1.00000000   0.622E+00       0.001       30.969   0.100E-07
     TRS4 it   3 1.00000000   0.423E+00       0.001       32.256   0.100E-07
     TRS4 it   4 1.00000000   0.215E+00       0.001       32.256   0.100E-07
     TRS4 it   5 1.00000000   0.694E-01       0.001       32.256   0.100E-07
     TRS4 it   6 1.00000000   0.906E-02       0.001       32.256   0.100E-07
     TRS4 it   7 1.00000000   0.204E-03       0.001       32.256   0.100E-07
     TRS4 it   8 1.00000000   0.145E-06       0.001       32.256   0.100E-07
     TRS4 it   9 1.00000000   0.904E-13       0.001       32.256   0.100E-07
     Final TRS4 iteration    9 1.00000000   0.904E-13
     Chemical potential (mu):       0.01217
 
 PAO| energy:  -7.7956289272378498      penalty:   1.3201552615558602E-005
 PAO|LS| adapt:  T T T
 PAO|LS| adapt: scan_steps:    0.0000000000000000       0.44453284990631425       0.88906569981262851     
 PAO|LS| adapt: energies:   -7.7956306968083942       -7.7956796398560151       -7.7956289272378498     
 PAO|LS| adapt: suggested step_size:   0.44058609870571469     
 PAO|LS| adapt: predicted energy  -7.7956796437837657     
 PAO| ======================= Iteration:        25 =============================

     Lanczos converged:  T threshold:   0.100E-02
     Est. extremal eigenvalues:    0.277E+01   0.180E+00
     Est. condition number :    0.153E+02
     NS sqrt iter    1 1.00000000   0.704E+00       0.002       39.461
     NS sqrt iter    2 1.00000000   0.328E+00       0.002       62.751
     NS sqrt iter    3 1.00000000   0.751E-01       0.002       62.236
     NS sqrt iter    4 1.00000000   0.185E-02       0.002       64.399
     NS sqrt iter    5 1.00000000   0.581E-07       0.002       45.282
     Final NS sqrt iter    5 1.00000000   0.428E-09

     Est. extremal eigenvalues     -0.93661     1.71459  converged:  T
     TRS4 it   1 1.00000000   0.884E+00       0.001       16.128   0.100E-07
     TRS4 it   2 1.00000000   0.622E+00       0.001       32.256   0.100E-07
     TRS4 it   3 1.00000000   0.423E+00       0.001       30.063   0.100E-07
     TRS4 it   4 1.00000000   0.215E+00       0.001       32.256   0.100E-07
     TRS4 it   5 1.00000000   0.693E-01       0.003       10.480   0.100E-07
     TRS4 it   6 1.00000000   0.902E-02       0.001       32.256   0.100E-07
     TRS4 it   7 1.00000000   0.202E-03       0.001       24.764   0.100E-07
     TRS4 it   8 1.00000000   0.141E-06       0.001       32.256   0.100E-07
     TRS4 it   9 1.00000000   0.856E-13       0.001       32.256   0.100E-07
     Final TRS4 iteration    9 1.00000000   0.856E-13
     Chemical potential (mu):       0.01250
 
 PAO| energy:  -7.7956796423990742      penalty:   1.3861236905879149E-005
 PAO|CG| trace_G_new    7.8123956381610080E-005
 PAO|CG| trace_G_prev    2.2093826520662069E-004
 PAO|CG| trace_G_mix    6.8583286105087444E-007
 PAO|CG| trace_D    3.1076184011666027E-004
 PAO|CG| trace_D_Gnew  -3.5090868340709732E-007
 PAO|CG| beta:   0.35049665773440986     
 PAO| norm of gradient:   8.8387757286634491E-003
 PAO| energy improvement:  -4.8945590680027351E-005
 PAO| step     25                   -7.795679642  0.552E-03  0.441E+00     0.090
 PAO|LS| adapt:  T F F
 PAO|LS| adapt: scan_steps:    0.0000000000000000        0.0000000000000000        0.0000000000000000     
 PAO|LS| adapt: energies:   -7.7956796423990742        0.0000000000000000        0.0000000000000000     
 PAO| ======================= Iteration:        26 =============================

     Lanczos converged:  T threshold:   0.100E-02
     Est. extremal eigenvalues:    0.277E+01   0.180E+00
     Est. condition number :    0.153E+02
     NS sqrt iter    1 1.00000000   0.704E+00       0.002       38.007
     NS sqrt iter    2 1.00000000   0.328E+00       0.002       57.816
     NS sqrt iter    3 1.00000000   0.750E-01       0.002       58.043
     NS sqrt iter    4 1.00000000   0.185E-02       0.002       64.274
     NS sqrt iter    5 1.00000000   0.577E-07       0.002       44.896
     Final NS sqrt iter    5 1.00000000   0.424E-09

     Est. extremal eigenvalues     -0.93662     1.71435  converged:  T
     TRS4 it   1 1.00000000   0.884E+00       0.001       16.128   0.100E-07
     TRS4 it   2 1.00000000   0.622E+00       0.001       31.792   0.100E-07
     TRS4 it   3 1.00000000   0.423E+00       0.001       31.664   0.100E-07
     TRS4 it   4 1.00000000   0.215E+00       0.001       32.256   0.100E-07
     TRS4 it   5 1.00000000   0.692E-01       0.001       32.256   0.100E-07
     TRS4 it   6 1.00000000   0.900E-02       0.001       32.256   0.100E-07
     TRS4 it   7 1.00000000   0.201E-03       0.002       18.966   0.100E-07
     TRS4 it   8 1.00000000   0.140E-06       0.001       31.338   0.100E-07
     TRS4 it   9 1.00000000   0.839E-13       0.001       30.673   0.100E-07
     Final TRS4 iteration    9 1.00000000   0.839E-13
     Chemical potential (mu):       0.01259
 
 PAO| energy:  -7.7956833692169356      penalty:   1.3142906195748491E-005
 PAO|LS| adapt:  T T F
 PAO|LS| adapt: scan_steps:    0.0000000000000000       0.44058609870571469        0.0000000000000000     
 PAO|LS| adapt: energies:   -7.7956796423990742       -7.7956833692169356        0.0000000000000000     
 PAO| ======================= Iteration:        27 =============================

     Lanczos converged:  T threshold:   0.100E-02
     Est. extremal eigenvalues:    0.276E+01   0.180E+00
     Est. condition number :    0.153E+02
     NS sqrt iter    1 1.00000000   0.704E+00       0.002       38.897
     NS sqrt iter    2 1.00000000   0.328E+00       0.002       63.802
     NS sqrt iter    3 1.00000000   0.749E-01       0.002       65.159
     NS sqrt iter    4 1.00000000   0.184E-02       0.002       56.788
     NS sqrt iter    5 1.00000000   0.573E-07       0.002       45.592
     Final NS sqrt iter    5 1.00000000   0.419E-09

     Est. extremal eigenvalues     -0.93662     1.71412  converged:  T
     TRS4 it   1 1.00000000   0.884E+00       0.001       16.128   0.100E-07
     TRS4 it   2 1.00000000   0.622E+00       0.001       28.653   0.100E-07
     TRS4 it   3 1.00000000   0.423E+00       0.001       30.718   0.100E-07
     TRS4 it   4 1.00000000   0.215E+00       0.001       29.669   0.100E-07
     TRS4 it   5 1.00000000   0.691E-01       0.001       32.256   0.100E-07
     TRS4 it   6 1.00000000   0.899E-02       0.001       27.379   0.100E-07
     TRS4 it   7 1.00000000   0.200E-03       0.001       32.256   0.100E-07
     TRS4 it   8 1.00000000   0.138E-06       0.001       28.438   0.100E-07
     TRS4 it   9 1.00000000   0.818E-13       0.001       31.546   0.100E-07
     Final TRS4 iteration    9 1.00000000   0.818E-13
     Chemical potential (mu):       0.01270
 
 PAO| energy:  -7.7956254965996417      penalty:   1.2447823037220077E-005
 PAO|LS| adapt:  T T T
 PAO|LS| adapt: scan_steps:    0.0000000000000000       0.44058609870571469       0.88117219741142938     
 PAO|LS| adapt: energies:   -7.7956796423990742       -7.7956833692169356       -7.7956254965996417     
 PAO|LS| adapt: suggested step_size:   0.24694888049824198     
 PAO|LS| adapt: predicted energy  -7.7956893184752136     
 PAO| ======================= Iteration:        28 =============================

     Lanczos converged:  T threshold:   0.100E-02
     Est. extremal eigenvalues:    0.277E+01   0.180E+00
     Est. condition number :    0.153E+02
     NS sqrt iter    1 1.00000000   0.704E+00       0.002       40.473
     NS sqrt iter    2 1.00000000   0.328E+00       0.002       52.734
     NS sqrt iter    3 1.00000000   0.750E-01       0.002       59.070
     NS sqrt iter    4 1.00000000   0.185E-02       0.002       60.460
     NS sqrt iter    5 1.00000000   0.579E-07       0.002       40.761
     Final NS sqrt iter    5 1.00000000   0.426E-09

     Est. extremal eigenvalues     -0.93662     1.71445  converged:  T
     TRS4 it   1 1.00000000   0.884E+00       0.001       16.128   0.100E-07
     TRS4 it   2 1.00000000   0.622E+00       0.001       30.025   0.100E-07
     TRS4 it   3 1.00000000   0.423E+00       0.001       32.097   0.100E-07
     TRS4 it   4 1.00000000   0.215E+00       0.001       32.256   0.100E-07
     TRS4 it   5 1.00000000   0.692E-01       0.001       26.006   0.100E-07
     TRS4 it   6 1.00000000   0.901E-02       0.001       25.608   0.100E-07
     TRS4 it   7 1.00000000   0.201E-03       0.001       32.256   0.100E-07
     TRS4 it   8 1.00000000   0.140E-06       0.001       30.324   0.100E-07
     TRS4 it   9 1.00000000   0.840E-13       0.001       32.256   0.100E-07
     Final TRS4 iteration    9 1.00000000   0.840E-13
     Chemical potential (mu):       0.01255
 
 PAO| energy:  -7.7956893091913830      penalty:   1.3455730243572197E-005
 PAO|CG| trace_G_new    3.0341990979195587E-005
 PAO|CG| trace_G_prev    7.8123956381610080E-005
 PAO|CG| trace_G_mix    4.4800830148489770E-008
 PAO|CG| trace_D    1.1654638268260952E-004
 PAO|CG| trace_D_Gnew  -2.4268774619910742E-008
 PAO|CG| beta:   0.38780921438560012     
 PAO| norm of gradient:   5.5083564680579256E-003
 PAO| energy improvement:  -9.6667923088489260E-006
 PAO| step     28                   -7.795689309  0.344E-03  0.247E+00     0.092
 PAO|LS| adapt:  T F F
 PAO|LS| adapt: scan_steps:    0.0000000000000000        0.0000000000000000        0.0000000000000000     
 PAO|LS| adapt: energies:   -7.7956893091913830        0.0000000000000000        0.0000000000000000     
 PAO| ======================= Iteration:        29 =============================

     Lanczos converged:  T threshold:   0.100E-02
     Est. extremal eigenvalues:    0.276E+01   0.180E+00
     Est. condition number :    0.153E+02
     NS sqrt iter    1 1.00000000   0.704E+00       0.002       37.010
     NS sqrt iter    2 1.00000000   0.328E+00       0.005       20.128
     NS sqrt iter    3 1.00000000   0.750E-01       0.002       50.072
     NS sqrt iter    4 1.00000000   0.185E-02       0.002       51.018
     NS sqrt iter    5 1.00000000   0.577E-07       0.002       39.962
     Final NS sqrt iter    5 1.00000000   0.422E-09

     Est. extremal eigenvalues     -0.93662     1.71441  converged:  T
     TRS4 it   1 1.00000000   0.884E+00       0.001       16.128   0.100E-07
     TRS4 it   2 1.00000000   0.622E+00       0.001       32.256   0.100E-07
     TRS4 it   3 1.00000000   0.423E+00       0.001       27.999   0.100E-07
     TRS4 it   4 1.00000000   0.215E+00       0.001       23.671   0.100E-07
     TRS4 it   5 1.00000000   0.692E-01       0.001       31.411   0.100E-07
     TRS4 it   6 1.00000000   0.899E-02       0.002       13.953   0.100E-07
     TRS4 it   7 1.00000000   0.200E-03       0.001       32.256   0.100E-07
     TRS4 it   8 1.00000000   0.139E-06       0.001       30.150   0.100E-07
     TRS4 it   9 1.00000000   0.830E-13       0.001       32.256   0.100E-07
     Final TRS4 iteration    9 1.00000000   0.830E-13
     Chemical potential (mu):       0.01267
 
 PAO| energy:  -7.7956959137173376      penalty:   1.3032776224341392E-005
 PAO|LS| adapt:  T T F
 PAO|LS| adapt: scan_steps:    0.0000000000000000       0.24694888049824198        0.0000000000000000     
 PAO|LS| adapt: energies:   -7.7956893091913830       -7.7956959137173376        0.0000000000000000     
 PAO| ======================= Iteration:        30 =============================

     Lanczos converged:  T threshold:   0.100E-02
     Est. extremal eigenvalues:    0.276E+01   0.180E+00
     Est. condition number :    0.153E+02
     NS sqrt iter    1 1.00000000   0.704E+00       0.002       36.981
     NS sqrt iter    2 1.00000000   0.328E+00       0.002       64.548
     NS sqrt iter    3 1.00000000   0.749E-01       0.002       57.616
     NS sqrt iter    4 1.00000000   0.184E-02       0.002       63.987
     NS sqrt iter    5 1.00000000   0.576E-07       0.002       42.509
     Final NS sqrt iter    5 1.00000000   0.421E-09

     Est. extremal eigenvalues     -0.93662     1.71436  converged:  T
     TRS4 it   1 1.00000000   0.884E+00       0.001       16.128   0.100E-07
     TRS4 it   2 1.00000000   0.622E+00       0.001       32.256   0.100E-07
     TRS4 it   3 1.00000000   0.423E+00       0.001       32.256   0.100E-07
     TRS4 it   4 1.00000000   0.215E+00       0.001       32.256   0.100E-07
     TRS4 it   5 1.00000000   0.691E-01       0.001       25.794   0.100E-07
     TRS4 it   6 1.00000000   0.897E-02       0.001       32.256   0.100E-07
     TRS4 it   7 1.00000000   0.199E-03       0.001       32.256   0.100E-07
     TRS4 it   8 1.00000000   0.137E-06       0.001       32.256   0.100E-07
     TRS4 it   9 1.00000000   0.805E-13       0.001       30.478   0.100E-07
     Final TRS4 iteration    9 1.00000000   0.805E-13
     Chemical potential (mu):       0.01279
 
 PAO| energy:  -7.7957007458331598      penalty:   1.2617322568970574E-005
 PAO|LS| adapt:  T T F
 PAO|LS| adapt: scan_steps:    0.0000000000000000       0.49389776099648397        0.0000000000000000     
 PAO|LS| adapt: energies:   -7.7956893091913830       -7.7957007458331598        0.0000000000000000     
 PAO| ======================= Iteration:        31 =============================

     Lanczos converged:  T threshold:   0.100E-02
     Est. extremal eigenvalues:    0.276E+01   0.180E+00
     Est. condition number :    0.153E+02
     NS sqrt iter    1 1.00000000   0.703E+00       0.002       41.072
     NS sqrt iter    2 1.00000000   0.328E+00       0.002       60.285
     NS sqrt iter    3 1.00000000   0.748E-01       0.002       63.988
     NS sqrt iter    4 1.00000000   0.184E-02       0.002       64.370
     NS sqrt iter    5 1.00000000   0.574E-07       0.002       45.078
     Final NS sqrt iter    5 1.00000000   0.419E-09

     Est. extremal eigenvalues     -0.93662     1.71426  converged:  T
     TRS4 it   1 1.00000000   0.884E+00       0.001       16.128   0.100E-07
     TRS4 it   2 1.00000000   0.622E+00       0.001       32.256   0.100E-07
     TRS4 it   3 1.00000000   0.423E+00       0.001       32.256   0.100E-07
     TRS4 it   4 1.00000000   0.214E+00       0.001       31.013   0.100E-07
     TRS4 it   5 1.00000000   0.689E-01       0.001       32.256   0.100E-07
     TRS4 it   6 1.00000000   0.893E-02       0.001       32.256   0.100E-07
     TRS4 it   7 1.00000000   0.197E-03       0.001       32.256   0.100E-07
     TRS4 it   8 1.00000000   0.134E-06       0.001       32.256   0.100E-07
     TRS4 it   9 1.00000000   0.775E-13       0.001       32.256   0.100E-07
     Final TRS4 iteration    9 1.00000000   0.775E-13
     Chemical potential (mu):       0.01302
 
 PAO| energy:  -7.7957050840604927      penalty:   1.1808772780977591E-005
 PAO|LS| Need extra step
 PAO|LS| adapt:  T T F
 PAO|LS| adapt: scan_steps:    0.0000000000000000       0.98779552199296794        0.0000000000000000     
 PAO|LS| adapt: energies:   -7.7956893091913830       -7.7957050840604927        0.0000000000000000     
 PAO| ======================= Iteration:        32 =============================

     Lanczos converged:  T threshold:   0.100E-02
     Est. extremal eigenvalues:    0.276E+01   0.180E+00
     Est. condition number :    0.153E+02
     NS sqrt iter    1 1.00000000   0.703E+00       0.002       40.873
     NS sqrt iter    2 1.00000000   0.327E+00       0.002       64.717
     NS sqrt iter    3 1.00000000   0.745E-01       0.002       64.429
     NS sqrt iter    4 1.00000000   0.183E-02       0.002       60.657
     NS sqrt iter    5 1.00000000   0.570E-07       0.002       43.926
     Final NS sqrt iter    5 1.00000000   0.470E-09

     Est. extremal eigenvalues     -0.93663     1.71404  converged:  T
     TRS4 it   1 1.00000000   0.884E+00       0.001       16.128   0.100E-07
     TRS4 it   2 1.00000000   0.622E+00       0.001       32.256   0.100E-07
     TRS4 it   3 1.00000000   0.423E+00       0.001       32.256   0.100E-07
     TRS4 it   4 1.00000000   0.214E+00       0.001       32.256   0.100E-07
     TRS4 it   5 1.00000000   0.686E-01       0.001       29.618   0.100E-07
     TRS4 it   6 1.00000000   0.885E-02       0.001       32.256   0.100E-07
     TRS4 it   7 1.00000000   0.194E-03       0.001       32.256   0.100E-07
     TRS4 it   8 1.00000000   0.129E-06       0.001       32.256   0.100E-07
     TRS4 it   9 1.00000000   0.709E-13       0.001       32.256   0.100E-07
     Final TRS4 iteration    9 1.00000000   0.709E-13
     Chemical potential (mu):       0.01349
 
 PAO| energy:  -7.7956924590268422      penalty:   1.0280107264223467E-005
 PAO|LS| Need extra step
 PAO|LS| adapt:  T T T
 PAO|LS| adapt: scan_steps:    0.0000000000000000       0.98779552199296794        1.9755910439859359     
 PAO|LS| adapt: energies:   -7.7956893091913830       -7.7957050840604927       -7.7956924590268422     
 PAO|LS| adapt: suggested step_size:    1.0425737616900561     
 PAO|LS| adapt: predicted energy  -7.7957051277290548     
 PAO| ======================= Iteration:        33 =============================

     Lanczos converged:  T threshold:   0.100E-02
     Est. extremal eigenvalues:    0.276E+01   0.180E+00
     Est. condition number :    0.153E+02
     NS sqrt iter    1 1.00000000   0.703E+00       0.002       37.503
     NS sqrt iter    2 1.00000000   0.328E+00       0.002       61.143
     NS sqrt iter    3 1.00000000   0.747E-01       0.002       63.883
     NS sqrt iter    4 1.00000000   0.184E-02       0.002       59.280
     NS sqrt iter    5 1.00000000   0.574E-07       0.002       45.536
     Final NS sqrt iter    5 1.00000000   0.419E-09

     Est. extremal eigenvalues     -0.93662     1.71425  converged:  T
     TRS4 it   1 1.00000000   0.884E+00       0.001       16.128   0.100E-07
     TRS4 it   2 1.00000000   0.622E+00       0.001       32.256   0.100E-07
     TRS4 it   3 1.00000000   0.423E+00       0.001       32.256   0.100E-07
     TRS4 it   4 1.00000000   0.214E+00       0.001       32.256   0.100E-07
     TRS4 it   5 1.00000000   0.689E-01       0.001       32.256   0.100E-07
     TRS4 it   6 1.00000000   0.893E-02       0.001       32.256   0.100E-07
[...]
 PAO| ======================= Iteration:       413 =============================

     Lanczos converged:  T threshold:   0.100E-02
     Est. extremal eigenvalues:    0.248E+01   0.191E+00
     Est. condition number :    0.130E+02
     NS sqrt iter    1 1.00000000   0.630E+00       0.002       42.911
     NS sqrt iter    2 1.00000000   0.273E+00       0.002       68.787
     NS sqrt iter    3 1.00000000   0.480E-01       0.002       68.256
     NS sqrt iter    4 1.00000000   0.733E-03       0.002       69.775
     NS sqrt iter    5 1.00000000   0.517E-08       0.001       29.504
     Final NS sqrt iter    5 1.00000000   0.308E-09

     Est. extremal eigenvalues     -0.93631     1.62523  converged:  T
     TRS4 it   1 1.00000000   0.881E+00       0.001       16.128   0.100E-07
     TRS4 it   2 1.00000000   0.632E+00       0.001       32.256   0.100E-07
     TRS4 it   3 1.00000000   0.453E+00       0.001       32.256   0.100E-07
     TRS4 it   4 1.00000000   0.275E+00       0.001       32.256   0.100E-07
     TRS4 it   5 1.00000000   0.135E+00       0.001       32.256   0.100E-07
     TRS4 it   6 1.00000000   0.411E-01       0.001       32.256   0.100E-07
     TRS4 it   7 1.00000000   0.529E-02       0.001       32.256   0.100E-07
     TRS4 it   8 1.00000000   0.118E-03       0.001       32.256   0.100E-07
     TRS4 it   9 1.00000000   0.625E-07       0.001       32.256   0.100E-07
     Final TRS4 iteration    9 1.00000000   0.625E-07
     Chemical potential (mu):      -0.07265
 
 PAO| energy:  -7.7947318442332936      penalty:   2.3572667476521286E-008
 PAO|LS| Need extra step
 PAO|LS| adapt:  T T T
 PAO|LS| adapt: scan_steps:    0.0000000000000000       0.20000000000000001       0.40000000000000002     
 PAO|LS| adapt: energies:   -7.7947318398499750       -7.7947318455466812       -7.7947318442332936     
 PAO|LS| adapt: suggested step_size:   0.26252867219483816     
 PAO|LS| adapt: predicted energy  -7.7947318458892854     
 PAO| ======================= Iteration:       414 =============================

     Lanczos converged:  T threshold:   0.100E-02
     Est. extremal eigenvalues:    0.248E+01   0.191E+00
     Est. condition number :    0.130E+02
     NS sqrt iter    1 1.00000000   0.630E+00       0.002       40.220
     NS sqrt iter    2 1.00000000   0.273E+00       0.002       68.998
     NS sqrt iter    3 1.00000000   0.480E-01       0.002       69.082
     NS sqrt iter    4 1.00000000   0.733E-03       0.002       68.852
     NS sqrt iter    5 1.00000000   0.517E-08       0.001       29.778
     Final NS sqrt iter    5 1.00000000   0.308E-09

     Est. extremal eigenvalues     -0.93631     1.62523  converged:  T
     TRS4 it   1 1.00000000   0.881E+00       0.001       16.128   0.100E-07
     TRS4 it   2 1.00000000   0.632E+00       0.001       32.256   0.100E-07
     TRS4 it   3 1.00000000   0.453E+00       0.001       32.256   0.100E-07
     TRS4 it   4 1.00000000   0.275E+00       0.001       32.256   0.100E-07
     TRS4 it   5 1.00000000   0.135E+00       0.001       32.256   0.100E-07
     TRS4 it   6 1.00000000   0.411E-01       0.001       32.256   0.100E-07
     TRS4 it   7 1.00000000   0.529E-02       0.001       32.256   0.100E-07
     TRS4 it   8 1.00000000   0.118E-03       0.001       32.256   0.100E-07
     TRS4 it   9 1.00000000   0.625E-07       0.001       32.256   0.100E-07
     Final TRS4 iteration    9 1.00000000   0.625E-07
     Chemical potential (mu):      -0.07265
 
 PAO| energy:  -7.7947318458893013      penalty:   2.3836706948958704E-008
 PAO|CG| warming up with steepest descent
 PAO|CG| beta:    0.0000000000000000     
 PAO| norm of gradient:   1.3276178345853526E-004
 PAO| energy improvement:  -6.0393263723312884E-009
 PAO| step    414                   -7.794731846  0.830E-05  0.263E+00     0.100
 PAO| converged after          414  steps :-)
 PAO| Recalculating energy after mixing.

     Lanczos converged:  T threshold:   0.100E-02
     Est. extremal eigenvalues:    0.248E+01   0.191E+00
     Est. condition number :    0.130E+02
     NS sqrt iter    1 1.00000000   0.630E+00       0.001       44.087
     NS sqrt iter    2 1.00000000   0.273E+00       0.002       69.354
     NS sqrt iter    3 1.00000000   0.480E-01       0.002       70.556
     NS sqrt iter    4 1.00000000   0.733E-03       0.002       69.986
     NS sqrt iter    5 1.00000000   0.517E-08       0.001       30.028
     Final NS sqrt iter    5 1.00000000   0.308E-09

     Est. extremal eigenvalues     -0.93631     1.62523  converged:  T
     TRS4 it   1 1.00000000   0.881E+00       0.001       16.128   0.100E-07
     TRS4 it   2 1.00000000   0.632E+00       0.001       32.256   0.100E-07
     TRS4 it   3 1.00000000   0.453E+00       0.001       32.256   0.100E-07
     TRS4 it   4 1.00000000   0.275E+00       0.001       32.256   0.100E-07
     TRS4 it   5 1.00000000   0.135E+00       0.001       32.256   0.100E-07
     TRS4 it   6 1.00000000   0.411E-01       0.001       32.256   0.100E-07
     TRS4 it   7 1.00000000   0.529E-02       0.001       32.256   0.100E-07
     TRS4 it   8 1.00000000   0.118E-03       0.001       32.256   0.100E-07
     TRS4 it   9 1.00000000   0.625E-07       0.001       32.256   0.100E-07
     Final TRS4 iteration    9 1.00000000   0.625E-07
     Chemical potential (mu):      -0.07265
 
 PAO| energy:  -7.7947318443794460      penalty:   2.4090192012666763E-008
 PAO| Writing restart file.
     Est. extremal eigenvalues     -0.93631     1.62523  converged:  T
     TRS4 it   1 1.00000000   0.881E+00       0.001       16.128   0.100E-07
     TRS4 it   2 1.00000000   0.632E+00       0.001       32.256   0.100E-07
     TRS4 it   3 1.00000000   0.453E+00       0.001       32.256   0.100E-07
     TRS4 it   4 1.00000000   0.275E+00       0.001       32.256   0.100E-07
     TRS4 it   5 1.00000000   0.135E+00       0.001       32.256   0.100E-07
     TRS4 it   6 1.00000000   0.411E-01       0.001       32.256   0.100E-07
     TRS4 it   7 1.00000000   0.529E-02       0.001       32.256   0.100E-07
     TRS4 it   8 1.00000000   0.118E-03       0.001       32.256   0.100E-07
     TRS4 it   9 1.00000000   0.625E-07       0.001       32.256   0.100E-07
     Final TRS4 iteration    9 1.00000000   0.625E-07
     Chemical potential (mu):      -0.07265

 SCF     1       -34.450223249       -34.450223249    2.334880

*********************************************************
 Using MIXING_FRACTION=0.450 to mix KS matrix:  iscf=  2
 KS_nw=0.450*KS + 0.550*KS_old
*********************************************************
     Est. extremal eigenvalues     -0.93631     1.62523  converged:  T
     TRS4 it   1 1.00000000   0.881E+00       0.001       16.128   0.100E-07
     TRS4 it   2 1.00000000   0.632E+00       0.001       32.256   0.100E-07
     TRS4 it   3 1.00000000   0.453E+00       0.001       32.256   0.100E-07
     TRS4 it   4 1.00000000   0.275E+00       0.001       32.256   0.100E-07
     TRS4 it   5 1.00000000   0.135E+00       0.001       32.256   0.100E-07
     TRS4 it   6 1.00000000   0.411E-01       0.001       32.256   0.100E-07
     TRS4 it   7 1.00000000   0.529E-02       0.001       32.256   0.100E-07
     TRS4 it   8 1.00000000   0.118E-03       0.001       32.256   0.100E-07
     TRS4 it   9 1.00000000   0.626E-07       0.001       32.256   0.100E-07
     Final TRS4 iteration    9 1.00000000   0.626E-07
     Chemical potential (mu):      -0.07265

 SCF     2       -34.450223249        -0.000000000    2.162360

 PAO| Storing density matrix for ASPC guess in slot:           1

 ENERGY| Total FORCE_EVAL ( QS ) energy (a.u.):              -34.450223248899050


 -------------------------------------------------------------------------------
 -                                                                             -
 -                                DBCSR STATISTICS                             -
 -                                                                             -
 -------------------------------------------------------------------------------
 COUNTER                                    TOTAL       BLAS       SMM       ACC
 flops     5 x     5 x     4                20000     100.0%      0.0%      0.0%
 flops    13 x     5 x     4                20800     100.0%      0.0%      0.0%
 flops     5 x    13 x     4                20800     100.0%      0.0%      0.0%
 flops    13 x    13 x     4                40560     100.0%      0.0%      0.0%
 flops     4 x     4 x     5              3252480     100.0%      0.0%      0.0%
 flops     5 x     4 x     5              3977600     100.0%      0.0%      0.0%
 flops     4 x     4 x    13              4228224     100.0%      0.0%      0.0%
 flops    13 x     4 x     5              5170880     100.0%      0.0%      0.0%
 flops     5 x     4 x    13              5170880     100.0%      0.0%      0.0%
 flops     5 x     4 x     4              6623040     100.0%      0.0%      0.0%
 flops    13 x     4 x    13              6722144     100.0%      0.0%      0.0%
 flops    13 x     4 x     4              8916960     100.0%      0.0%      0.0%
 flops     4 x     4 x     4            414684544     100.0%      0.0%      0.0%
 flops inhomo. stacks                           0       0.0%      0.0%      0.0%
 flops total                       458.848912E+06     100.0%      0.0%      0.0%
 flops max/rank                    458.848912E+06     100.0%      0.0%      0.0%
 matmuls inhomo. stacks                         0       0.0%      0.0%      0.0%
 matmuls total                            3378002     100.0%      0.0%      0.0%
 number of processed stacks                 26987     100.0%      0.0%      0.0%
 average stack size                                   125.2       0.0       0.0
 marketing flops                   744.522432E+06
 -------------------------------------------------------------------------------
 # multiplications                          22430
 max memory usage/rank             328.245248E+06
 # max total images/rank                        1
 # max 3D layers                                1
 # MPI messages exchanged                       0
 MPI messages size (bytes):
  total size                         0.000000E+00
  min size                           0.000000E+00
  max size                           0.000000E+00
  average size                       0.000000E+00
 MPI breakdown and total messages size (bytes):
             size <=      128                   0                        0
       128 < size <=     8192                   0                        0
      8192 < size <=    32768                   0                        0
     32768 < size <=   131072                   0                        0
    131072 < size <=  4194304                   0                        0
   4194304 < size <= 16777216                   0                        0
  16777216 < size                               0                        0
 -------------------------------------------------------------------------------

 MEMORY| Estimated peak process memory [MiB]                                 314

 -------------------------------------------------------------------------------
 -                                                                             -
 -                           R E F E R E N C E S                               -
 -                                                                             -
 -------------------------------------------------------------------------------
 
 CP2K version 7.0 (Development Version), the CP2K developers group (2018).
 CP2K is freely available from https://www.cp2k.org/ .

 Schuett, O; VandeVondele, J. 
 Journal of Chemical Theory and Computation, 14, (2018). 
 Machine Learning Adaptive Basis Sets for Efficient Large Scale Density Functional Theory Simulation.
 https://dx.doi.org/10.1021/acs.jctc.8b00378


 Schuett, Ole; Messmer, Peter; Hutter, Juerg; VandeVondele, Joost. 
 Electronic Structure Calculations on Graphics Processing Units, John Wiley & Sons, Ltd, 173-190 (2016). 
 GPU-Accelerated Sparse Matrix-Matrix Multiplication for Linear Scaling Density Functional Theory.
 https://dx.doi.org/10.1002/9781118670712.ch8


 Borstnik, U; VandeVondele, J; Weber, V; Hutter, J. 
 PARALLEL COMPUTING, 40 (5-6), 47-58 (2014). 
 Sparse matrix multiplication: The distributed block-compressed sparse
 row library.
 https://dx.doi.org/10.1016/j.parco.2014.03.012


 Hutter, J; Iannuzzi, M; Schiffmann, F; VandeVondele, J. 
 WILEY INTERDISCIPLINARY REVIEWS-COMPUTATIONAL MOLECULAR SCIENCE, 4 (1), 15-25 (2014). 
 CP2K: atomistic simulations of condensed matter systems.
 https://dx.doi.org/10.1002/wcms.1159


 VandeVondele, J; Borstnik, U; Hutter, J. 
 JOURNAL OF CHEMICAL THEORY AND COMPUTATION, 8 (10), 3565-3573 (2012). 
 Linear Scaling Self-Consistent Field Calculations with Millions of Atoms
 in the Condensed Phase.
 https://dx.doi.org/10.1021/ct200897x


 VandeVondele, J; Hutter, J. 
 JOURNAL OF CHEMICAL PHYSICS, 127 (11), 114105 (2007). 
 Gaussian basis sets for accurate calculations on molecular systems in
 gas and condensed phases.
 https://dx.doi.org/10.1063/1.2770708


 Krack, M. 
 THEORETICAL CHEMISTRY ACCOUNTS, 114 (1-3), 145-152 (2005). 
 Pseudopotentials for H to Kr optimized for gradient-corrected
 exchange-correlation functionals.
 https://dx.doi.org/10.1007/s00214-005-0655-y


 VandeVondele, J; Krack, M; Mohamed, F; Parrinello, M; Chassaing, T;
 Hutter, J. COMPUTER PHYSICS COMMUNICATIONS, 167 (2), 103-128 (2005). 
 QUICKSTEP: Fast and accurate density functional calculations using a
 mixed Gaussian and plane waves approach.
 https://dx.doi.org/10.1016/j.cpc.2004.12.014


 Frigo, M; Johnson, SG. 
 PROCEEDINGS OF THE IEEE, 93 (2), 216-231 (2005). 
 The design and implementation of FFTW3.
 https://dx.doi.org/10.1109/JPROC.2004.840301


 Niklasson, AMN; Tymczak, CJ; Challacombe, M. 
 JOURNAL OF CHEMICAL PHYSICS, 118 (19), 8611-8620 (2003). 
 Trace resetting density matrix purification in O(N)
 self-consistent-field theory.
 https://dx.doi.org/10.1063/1.1559913


 Hartwigsen, C; Goedecker, S; Hutter, J. 
 PHYSICAL REVIEW B, 58 (7), 3641-3662 (1998). 
 Relativistic separable dual-space Gaussian pseudopotentials from H to Rn.
 https://dx.doi.org/10.1103/PhysRevB.58.3641


 Lippert, G; Hutter, J; Parrinello, M. 
 MOLECULAR PHYSICS, 92 (3), 477-487 (1997). 
 A hybrid Gaussian and plane wave density functional scheme.
 https://dx.doi.org/10.1080/002689797170220


 Perdew, JP; Burke, K; Ernzerhof, M. 
 PHYSICAL REVIEW LETTERS, 77 (18), 3865-3868 (1996). 
 Generalized gradient approximation made simple.
 https://dx.doi.org/10.1103/PhysRevLett.77.3865


 Goedecker, S; Teter, M; Hutter, J. 
 PHYSICAL REVIEW B, 54 (3), 1703-1710 (1996). 
 Separable dual-space Gaussian pseudopotentials.
 https://dx.doi.org/10.1103/PhysRevB.54.1703


 -------------------------------------------------------------------------------
 -                                                                             -
 -                                T I M I N G                                  -
 -                                                                             -
 -------------------------------------------------------------------------------
 SUBROUTINE                       CALLS  ASD         SELF TIME        TOTAL TIME
                                MAXIMUM       AVERAGE  MAXIMUM  AVERAGE  MAXIMUM
 CP2K                                 1  1.0    0.035    0.035   33.060   33.060
 qs_energies                          1  2.0    0.000    0.000   32.642   32.642
 ls_scf                               1  3.0    0.000    0.000   32.533   32.533
 ls_scf_main                          4  4.0    0.001    0.001   19.652   19.652
 ls_scf_dm_to_ks                      9  5.0    0.000    0.000   19.545   19.545
 qs_ks_update_qs_env                 10  6.0    0.000    0.000   15.368   15.368
 rebuild_ks_matrix                   10  7.0    0.000    0.000   15.368   15.368
 qs_ks_build_kohn_sham_matrix        10  8.0    0.001    0.001   15.368   15.368
 pao_update                           4  4.0    0.011    0.011   10.942   10.942
 pao_calc_energy                    417  5.0    0.005    0.005    9.842    9.842
 qs_vxc_create                       10  9.0    0.000    0.000    9.076    9.076
 xc_vxc_pw_create                    10 10.0    0.117    0.117    9.076    9.076
 dbcsr_multiply_generic           22430  8.4    0.510    0.510    8.455    8.455
 xc_rho_set_and_dset_create          10 11.0    0.032    0.032    6.465    6.465
 pw_transfer                        191 10.6    0.014    0.014    6.222    6.222
 fft_wrap_pw1pw2                    171 11.7    0.002    0.002    6.136    6.136
 qs_rho_update_rho                   10  6.0    0.000    0.000    6.033    6.033
 calculate_rho_elec                  10  7.0    4.777    4.777    6.033    6.033
 fft_wrap_pw1pw2_200                111 12.8    0.329    0.329    5.870    5.870
 sum_up_and_integrate                10  9.0    0.022    0.022    5.460    5.460
 integrate_v_rspace                  10 10.0    4.631    4.631    5.438    5.438
 pao_dm_trs4                        417  6.0    0.003    0.003    5.033    5.033
 density_matrix_trs4                426  7.0    0.183    0.183    4.848    4.848
 ls_scf_init_matrix_S               421  7.0    0.004    0.004    4.804    4.804
 pao_rebuild_S                      417  6.0    0.003    0.003    4.764    4.764
 xc_functional_eval                  10 12.0    0.000    0.000    4.545    4.545
 pbe_lda_eval                        10 13.0    4.545    4.545    4.545    4.545
 matrix_sqrt_Newton_Schulz          421  8.0    0.116    0.116    4.337    4.337
 multiply_cannon                  22430  9.4    1.346    1.346    4.010    4.010
 fft3d_s                            172 13.6    3.243    3.243    3.254    3.254
 make_m2s                         44860  9.4    0.189    0.189    2.689    2.689
 make_images                      44860 10.4    0.627    0.627    2.378    2.378
 pao_guess_initial_P                  1  4.0    0.000    0.000    1.862    1.862
 pao_read_preopt_dm                   1  5.0    0.000    0.000    1.862    1.862
 multiply_cannon_multrec          22430 10.4    1.409    1.409    1.549    1.549
 pw_gather_s                         81 13.1    1.464    1.464    1.464    1.464
 density_rs2pw                       10  8.0    0.001    0.001    1.242    1.242
 arnoldi_extremal                   847  8.5    0.004    0.004    1.194    1.194
 arnoldi_normal_ev                  847  9.5    0.013    0.013    1.190    1.190
 pao_calc_AB                        550  5.8    0.001    0.001    1.079    1.079
 pao_calc_AB_direct                 550  6.8    0.029    0.029    1.078    1.078
 pw_scatter_s                        90 14.2    1.073    1.073    1.073    1.073
 pao_calc_grad_lnv_wrt_AB           132  7.0    0.008    0.008    1.019    1.019
 build_subspace                     847 10.5    0.061    0.061    0.898    0.898
 dbcsr_matrix_vector_mult         20320 11.5    0.121    0.121    0.809    0.809
 potential_pw2rs                     10 11.0    0.005    0.005    0.806    0.806
 dbcsr_finalize                   53016  9.6    0.125    0.125    0.769    0.769
 dbcsr_create_new                171589 10.7    0.386    0.386    0.758    0.758
 -------------------------------------------------------------------------------

 The number of warnings for this run is : 0
 
 -------------------------------------------------------------------------------
  **** **** ******  **  PROGRAM ENDED AT                 2019-03-28 17:32:18.921
 ***** ** ***  *** **   PROGRAM RAN ON            oleschuett.zrh.corp.google.com
 **    ****   ******    PROGRAM RAN BY                                oleschuett
 ***** **    ** ** **   PROGRAM PROCESS ID                                 29196
  **** **  *******  **  PROGRAM STOPPED IN /usr/local/google/home/oleschuett/git
                                           /pao_ml_equivar/2H2O_rotations/phi_05
