 DBCSR| CPU Multiplication driver                                           XSMM (U)
 DBCSR| Multrec recursion limit                                              512 (U)
 DBCSR| Multiplication stack size                                           1000 (D)
 DBCSR| Maximum elements for images                                    UNLIMITED (U)
 DBCSR| Multiplicative factor virtual images                                   1 (U)
 DBCSR| Use multiplication densification                                       T (D)
 DBCSR| Multiplication size stacks                                             3 (U)
 DBCSR| Use memory pool for CPU allocation                                     F (U)
 DBCSR| Number of 3D layers                                               SINGLE (U)
 DBCSR| Use MPI memory allocation                                              F (U)
 DBCSR| Use RMA algorithm                                                      F (U)
 DBCSR| Use Communication thread                                               T (U)
 DBCSR| Communication thread load                                             87 (D)
 DBCSR| MPI: My process id                                                     0
 DBCSR| MPI: Number of processes                                              32
 DBCSR| OMP: Current number of threads                                         1
 DBCSR| OMP: Max number of threads                                             1
 DBCSR| Split modifier for TAS multiplication algorithm                  1.0E+00 (U)


  **** **** ******  **  PROGRAM STARTED AT               2024-09-23 17:44:02.577
 ***** ** ***  *** **   PROGRAM STARTED ON                                moritz
 **    ****   ******    PROGRAM STARTED BY                                   ole
 ***** **    ** ** **   PROGRAM PROCESS ID                                158716
  **** **  *******  **  PROGRAM STARTED IN /home/ole/git/pao_ml_equivar/64H2O_MD
                                           /Frame4100

 CP2K| version string:                 CP2K version 2024.3 (Development Version)
 CP2K| source code revision number:                                  git:3f890bb
 CP2K| cp2kflags: omp libint fftw3 libxc libgrpp pexsi elpa parallel scalapack c
 CP2K|            osma quip deepmd xsmm plumed2 spglib libdftd4 sirius libvori l
 CP2K|            libbqb libvdwxc hdf5
 CP2K| is freely available from                            https://www.cp2k.org/
 CP2K| Program compiled at                          Mo 23 Sep 2024 17:17:04 CEST
 CP2K| Program compiled on                                                moritz
 CP2K| Program compiled for                                                local
 CP2K| Data directory path                               /home/ole/git/cp2k/data
 CP2K| Input file name                                             64H2O_ref.inp

 GLOBAL| Force Environment number                                              1
 GLOBAL| Basis set file name                                        BASIS_MOLOPT
 GLOBAL| Potential file name                                      GTH_POTENTIALS
 GLOBAL| MM Potential file name                                     MM_POTENTIAL
 GLOBAL| Coordinate file name                                         coords.xyz
 GLOBAL| Method name                                                        CP2K
 GLOBAL| Project name                                                  64H2O_ref
 GLOBAL| Run type                                                         ENERGY
 GLOBAL| FFT library                                                       FFTW3
 GLOBAL| Diagonalization library                                            ELPA
 GLOBAL| DGEMM library                                                      BLAS
 GLOBAL| Minimum number of eigenvectors for ELPA usage                        16
 GLOBAL| Orthonormality check for eigenvectors                          DISABLED
 GLOBAL| Matrix multiplication library                                     COSMA
 GLOBAL| All-to-all communication in single precision                          F
 GLOBAL| FFTs using library dependent lengths                                  F
 GLOBAL| Grid backend                                                       AUTO
 GLOBAL| Global print level                                                  LOW
 GLOBAL| MPI I/O enabled                                                       T
 GLOBAL| Total number of message passing processes                            32
 GLOBAL| Number of threads for this process                                    1
 GLOBAL| This output is from process                                           0
 GLOBAL| Stack size for threads created by OpenMP (OMP_STACKSIZE)        default
 GLOBAL| CPU model name           AMD Ryzen Threadripper 3970X 32-Core Processor
 GLOBAL| CPUID                                                              1002

 MEMORY| system memory details [Kb]
 MEMORY|                        rank 0           min           max       average
 MEMORY| MemTotal            131752136     131752136     131752136     131752136
 MEMORY| MemFree             118116096     118116096     118116096     118116096
 MEMORY| Buffers                260340        260340        260340        260340
 MEMORY| Cached                7409692       7409692       7409696       7409693
 MEMORY| Slab                   716860        716860        716860        716860
 MEMORY| SReclaimable           279492        279492        279492        279492
 MEMORY| MemLikelyFree       126065620     126065620     126065624     126065621


 GENERATE|  Preliminary Number of Bonds generated:                             0
 GENERATE|  Achieved consistency in connectivity generation.

 *******************************************************************************
 *******************************************************************************
 **                                                                           **
 **     #####                         ##              ##                      **
 **    ##   ##            ##          ##              ##                      **
 **   ##     ##                       ##            ######                    **
 **   ##     ##  ##   ##  ##   #####  ##  ##   ####   ##    #####    #####    **
 **   ##     ##  ##   ##  ##  ##      ## ##   ##      ##   ##   ##  ##   ##   **
 **   ##  ## ##  ##   ##  ##  ##      ####     ###    ##   ######   ######    **
 **    ##  ###   ##   ##  ##  ##      ## ##      ##   ##   ##       ##        **
 **     #######   #####   ##   #####  ##  ##  ####    ##    #####   ##        **
 **           ##                                                    ##        **
 **                                                                           **
 **                                                ... make the atoms dance   **
 **                                                                           **
 **            Copyright (C) by CP2K developers group (2000-2024)             **
 **                      J. Chem. Phys. 152, 194103 (2020)                    **
 **                                                                           **
 *******************************************************************************


 TOTAL NUMBERS AND MAXIMUM NUMBERS

  Total number of            - Atomic kinds:                                   2
                             - Atoms:                                        192
                             - Shell sets:                                   192
                             - Shells:                                       704
                             - Primitive Cartesian functions:               1344
                             - Cartesian basis functions:                   1536
                             - Spherical basis functions:                   1472

  Maximum angular momentum of- Orbital basis functions:                        2
                             - Local part of the GTH pseudopotential:          2
                             - Non-local part of the GTH pseudopotential:      0

 ------------------------------ Linear scaling SCF -----------------------------
 eps_scf:                                                              0.100E-07
 eps_filter:                                                           0.100E-11
 mixing_fraction:                                                      0.450E+00
 max_scf:                                                                     25
 fixed chemical potential (mu)                                                 F
 has unit metric:                                                              F
 Computing inv(S):                                                             T
 Computing sqrt(S):                                                            T
 Computing S preconditioner                                                    F
 S sqrt method:                                                     NEWTONSCHULZ
 S sqrt order:                                                                 3
 Extrapolation order:                                                          1
 S preconditioner type                                                      NONE
 Polarized Atomic Orbitals (PAO)                                               F
 Purification method                                   Trace resetting 4th order
 Cluster type                                                             ATOMIC
 Computing Chebyshev                                                       FALSE
 Using PAO                                                                     F
 -------------------------------------------------------------------------------


     Lanczos converged:  F threshold:   0.100E-02
     Est. extremal eigenvalues:    0.870E+01   0.589E-02
     Est. condition number :    0.148E+04

 Order=           3
     NS sqrt iter    1 1.00000000   0.225E+01       0.065     6173.331
     NS sqrt iter    2 1.00000000   0.118E+01       0.099     8066.980
     NS sqrt iter    3 1.00000000   0.583E+00       0.099     8067.243
     NS sqrt iter    4 1.00000000   0.335E+00       0.100     7995.324
     NS sqrt iter    5 1.00000000   0.227E+00       0.099     8094.566
     NS sqrt iter    6 1.00000000   0.108E+00       0.100     8007.312
     NS sqrt iter    7 1.00000000   0.138E-01       0.100     8002.814
     NS sqrt iter    8 1.00000000   0.755E-04       0.099     8060.987
     NS sqrt iter    9 1.00000000   0.505E-10       0.067     5950.379
     Symmetrizing Results
     Final NS sqrt iter    9 1.00000000   0.704E-11



 Guess for atomic kind: O

 Electronic structure
    Total number of core electrons                                          2.00
    Total number of valence electrons                                       6.00
    Total number of electrons                                               8.00
    Multiplicity                                                   not specified
    S   [  2.00] 2.00
    P      4.00


 *******************************************************************************
                  Iteration          Convergence                     Energy [au]
 *******************************************************************************
                          1        0.708315                     -15.576645311500
                          2        0.608879                     -15.587933561584
                          3        0.102828E-01                 -15.656849565404
                          4        0.113889E-02                 -15.656866888140
                          5        0.434197E-03                 -15.656867072159
                          6        0.263771E-03                 -15.656867091904
                          7        0.478536E-06                 -15.656867103452

 Energy components [Hartree]           Total Energy ::          -15.656867103452
                                        Band Energy ::           -3.000198112285
                                     Kinetic Energy ::           11.759971203220
                                   Potential Energy ::          -27.416838306672
                                      Virial (-V/T) ::            2.331369510426
                                        Core Energy ::          -26.140716385623
                                          XC Energy ::           -3.154051012914
                                     Coulomb Energy ::           13.637900295084
                       Total Pseudopotential Energy ::          -37.935781716540
                       Local Pseudopotential Energy ::          -39.218907440693
                    Nonlocal Pseudopotential Energy ::            1.283125724153
                                        Confinement ::            0.350941276976

 Orbital energies  State     L     Occupation   Energy[a.u.]          Energy[eV]

                       1     0          2.000      -0.864471          -23.523463

                       1     1          4.000      -0.317814           -8.648154


 Total Electron Density at R=0:                                         0.000068

 Guess for atomic kind: H

 Electronic structure
    Total number of core electrons                                          0.00
    Total number of valence electrons                                       1.00
    Total number of electrons                                               1.00
    Multiplicity                                                   not specified
    S      1.00


 *******************************************************************************
                  Iteration          Convergence                     Energy [au]
 *******************************************************************************
                          1        0.437545E-02                  -0.424159432110
                          2        0.531356E-03                  -0.424178438213
                          3        0.259176E-06                  -0.424178722480

 Energy components [Hartree]           Total Energy ::           -0.424178722480
                                        Band Energy ::           -0.199015229016
                                     Kinetic Energy ::            0.464007633961
                                   Potential Energy ::           -0.888186356441
                                      Virial (-V/T) ::            1.914163240935
                                        Core Energy ::           -0.479160803564
                                          XC Energy ::           -0.244352904054
                                     Coulomb Energy ::            0.299334985138
                       Total Pseudopotential Energy ::           -0.962295316385
                       Local Pseudopotential Energy ::           -0.962295316385
                    Nonlocal Pseudopotential Energy ::            0.000000000000
                                        Confinement ::            0.191268788606

 Orbital energies  State     L     Occupation   Energy[a.u.]          Energy[eV]

                       1     0          1.000      -0.199015           -5.415480


 Total Electron Density at R=0:                                         0.242907
 Re-scaling the density matrix to get the right number of electrons
                  # Electrons              Trace(P)               Scaling factor
                          512               512.001                        1.000
 Energy with the initial guess:     -1095.770107397

     Est. extremal eigenvalues     -0.94668     5.19602  converged:  F
     TRS4 it   1 1.00000000   0.566E+02       0.019     5367.680   0.100E-11
     TRS4 it   2 1.00000000   0.537E+02       0.019     5340.238   0.100E-11
     TRS4 it   3 1.00000000   0.335E+02       0.036     5571.281   0.100E-11
     TRS4 it   4 1.00000000   0.177E+02       0.035     5662.881   0.100E-11
     TRS4 it   5 1.00000000   0.107E+02       0.036     5591.728   0.100E-11
     TRS4 it   6 1.00000000   0.485E+01       0.035     5696.111   0.100E-11
     TRS4 it   7 1.00000000   0.144E+01       0.036     5579.627   0.100E-11
     TRS4 it   8 1.00000000   0.218E+00       0.036     5624.692   0.100E-11
     TRS4 it   9 1.00000000   0.920E-02       0.035     5659.463   0.100E-11
     TRS4 it  10 1.00000000   0.246E-04       0.036     5603.615   0.100E-11
     TRS4 it  11 1.00000000   0.647E-10       0.036     5602.541   0.100E-11
     Final TRS4 iteration   11 1.00000000   0.647E-10
     Chemical potential (mu):      -0.10700

 SCF     1     -1097.891534521     -1097.891534521    2.056097

*********************************************************
 Using MIXING_FRACTION=0.450 to mix KS matrix:  iscf=  2
 KS_nw=0.450*KS + 0.550*KS_old
*********************************************************
     Est. extremal eigenvalues     -0.83018     5.28108  converged:  T
     TRS4 it   1 1.00000000   0.558E+02       0.018     5450.037   0.100E-11
     TRS4 it   2 1.00000000   0.538E+02       0.019     5405.526   0.100E-11
     TRS4 it   3 1.00000000   0.347E+02       0.037     5440.621   0.100E-11
     TRS4 it   4 1.00000000   0.183E+02       0.036     5630.851   0.100E-11
     TRS4 it   5 1.00000000   0.118E+02       0.036     5627.525   0.100E-11
     TRS4 it   6 1.00000000   0.615E+01       0.036     5559.234   0.100E-11
     TRS4 it   7 1.00000000   0.244E+01       0.036     5503.713   0.100E-11
     TRS4 it   8 1.00000000   0.659E+00       0.036     5507.634   0.100E-11
     TRS4 it   9 1.00000000   0.933E-01       0.036     5597.095   0.100E-11
     TRS4 it  10 1.00000000   0.426E-02       0.036     5558.678   0.100E-11
     TRS4 it  11 1.00000000   0.408E-05       0.035     5665.325   0.100E-11
     TRS4 it  12 1.00000000   0.295E-11       0.036     5597.497   0.100E-11
     Final TRS4 iteration   12 1.00000000   0.295E-11
     Chemical potential (mu):      -0.01951

 SCF     2     -1102.967469984        -5.075935463    2.082788

*********************************************************
 Using MIXING_FRACTION=0.450 to mix KS matrix:  iscf=  3
 KS_nw=0.450*KS + 0.550*KS_old
*********************************************************
     Est. extremal eigenvalues     -0.83785     5.27485  converged:  T
     TRS4 it   1 1.00000000   0.559E+02       0.018     5476.074   0.100E-11
     TRS4 it   2 1.00000000   0.538E+02       0.019     5372.696   0.100E-11
     TRS4 it   3 1.00000000   0.346E+02       0.036     5562.434   0.100E-11
     TRS4 it   4 1.00000000   0.182E+02       0.036     5573.469   0.100E-11
     TRS4 it   5 1.00000000   0.116E+02       0.036     5579.686   0.100E-11
     TRS4 it   6 1.00000000   0.592E+01       0.035     5696.551   0.100E-11
     TRS4 it   7 1.00000000   0.226E+01       0.036     5532.117   0.100E-11
     TRS4 it   8 1.00000000   0.568E+00       0.036     5611.816   0.100E-11
     TRS4 it   9 1.00000000   0.696E-01       0.036     5541.131   0.100E-11
     TRS4 it  10 1.00000000   0.218E-02       0.036     5637.504   0.100E-11
     TRS4 it  11 1.00000000   0.920E-06       0.036     5620.445   0.100E-11
     TRS4 it  12 1.00000000   0.133E-12       0.036     5611.275   0.100E-11
     Final TRS4 iteration   12 1.00000000   0.133E-12
     Chemical potential (mu):      -0.02865

 SCF     3     -1103.124928653        -0.157458669    2.078806

*********************************************************
 Using MIXING_FRACTION=0.450 to mix KS matrix:  iscf=  4
 KS_nw=0.450*KS + 0.550*KS_old
*********************************************************
     Est. extremal eigenvalues     -0.83258     5.27921  converged:  T
     TRS4 it   1 1.00000000   0.558E+02       0.019     5274.472   0.100E-11
     TRS4 it   2 1.00000000   0.538E+02       0.019     5411.547   0.100E-11
     TRS4 it   3 1.00000000   0.346E+02       0.036     5555.558   0.100E-11
     TRS4 it   4 1.00000000   0.182E+02       0.036     5591.537   0.100E-11
     TRS4 it   5 1.00000000   0.117E+02       0.036     5575.904   0.100E-11
     TRS4 it   6 1.00000000   0.599E+01       0.037     5462.826   0.100E-11
     TRS4 it   7 1.00000000   0.232E+01       0.035     5704.479   0.100E-11
     TRS4 it   8 1.00000000   0.598E+00       0.036     5605.606   0.100E-11
     TRS4 it   9 1.00000000   0.776E-01       0.036     5551.615   0.100E-11
     TRS4 it  10 1.00000000   0.283E-02       0.035     5675.692   0.100E-11
     TRS4 it  11 1.00000000   0.183E-05       0.036     5595.112   0.100E-11
     TRS4 it  12 1.00000000   0.774E-12       0.035     5680.055   0.100E-11
     Final TRS4 iteration   12 1.00000000   0.774E-12
     Chemical potential (mu):      -0.02261

 SCF     4     -1103.132691138        -0.007762485    2.081245

*********************************************************
 Using MIXING_FRACTION=0.450 to mix KS matrix:  iscf=  5
 KS_nw=0.450*KS + 0.550*KS_old
*********************************************************
     Est. extremal eigenvalues     -0.83128     5.28022  converged:  T
     TRS4 it   1 1.00000000   0.558E+02       0.019     5286.494   0.100E-11
     TRS4 it   2 1.00000000   0.538E+02       0.018     5553.630   0.100E-11
     TRS4 it   3 1.00000000   0.346E+02       0.037     5483.069   0.100E-11
     TRS4 it   4 1.00000000   0.182E+02       0.036     5573.205   0.100E-11
     TRS4 it   5 1.00000000   0.116E+02       0.036     5518.825   0.100E-11
     TRS4 it   6 1.00000000   0.598E+01       0.036     5642.743   0.100E-11
     TRS4 it   7 1.00000000   0.231E+01       0.035     5707.354   0.100E-11
     TRS4 it   8 1.00000000   0.597E+00       0.035     5652.812   0.100E-11
     TRS4 it   9 1.00000000   0.772E-01       0.036     5577.557   0.100E-11
     TRS4 it  10 1.00000000   0.279E-02       0.036     5544.065   0.100E-11
     TRS4 it  11 1.00000000   0.178E-05       0.036     5532.381   0.100E-11
     TRS4 it  12 1.00000000   0.764E-12       0.036     5575.768   0.100E-11
     Final TRS4 iteration   12 1.00000000   0.764E-12
     Chemical potential (mu):      -0.02186

 SCF     5     -1103.133292139        -0.000601001    2.078994

*********************************************************
 Using MIXING_FRACTION=0.450 to mix KS matrix:  iscf=  6
 KS_nw=0.450*KS + 0.550*KS_old
*********************************************************
     Est. extremal eigenvalues     -0.83043     5.28087  converged:  T
     TRS4 it   1 1.00000000   0.558E+02       0.019     5363.146   0.100E-11
     TRS4 it   2 1.00000000   0.538E+02       0.019     5384.384   0.100E-11
     TRS4 it   3 1.00000000   0.346E+02       0.037     5436.206   0.100E-11
     TRS4 it   4 1.00000000   0.182E+02       0.035     5664.309   0.100E-11
     TRS4 it   5 1.00000000   0.117E+02       0.036     5576.684   0.100E-11
     TRS4 it   6 1.00000000   0.599E+01       0.036     5529.837   0.100E-11
     TRS4 it   7 1.00000000   0.232E+01       0.036     5591.239   0.100E-11
     TRS4 it   8 1.00000000   0.600E+00       0.036     5599.233   0.100E-11
     TRS4 it   9 1.00000000   0.782E-01       0.036     5570.704   0.100E-11
     TRS4 it  10 1.00000000   0.288E-02       0.036     5606.501   0.100E-11
     TRS4 it  11 1.00000000   0.194E-05       0.036     5505.236   0.100E-11
     TRS4 it  12 1.00000000   0.899E-12       0.036     5632.745   0.100E-11
     Final TRS4 iteration   12 1.00000000   0.899E-12
     Chemical potential (mu):      -0.02093

 SCF     6     -1103.133381461        -0.000089322    2.081461

*********************************************************
 Using MIXING_FRACTION=0.450 to mix KS matrix:  iscf=  7
 KS_nw=0.450*KS + 0.550*KS_old
*********************************************************
     Est. extremal eigenvalues     -0.82999     5.28121  converged:  T
     TRS4 it   1 1.00000000   0.558E+02       0.018     5445.354   0.100E-11
     TRS4 it   2 1.00000000   0.538E+02       0.019     5368.154   0.100E-11
     TRS4 it   3 1.00000000   0.346E+02       0.036     5530.176   0.100E-11
     TRS4 it   4 1.00000000   0.182E+02       0.036     5497.782   0.100E-11
     TRS4 it   5 1.00000000   0.117E+02       0.036     5625.270   0.100E-11
     TRS4 it   6 1.00000000   0.599E+01       0.036     5646.724   0.100E-11
     TRS4 it   7 1.00000000   0.232E+01       0.036     5620.951   0.100E-11
     TRS4 it   8 1.00000000   0.600E+00       0.036     5632.731   0.100E-11
     TRS4 it   9 1.00000000   0.783E-01       0.036     5531.851   0.100E-11
     TRS4 it  10 1.00000000   0.289E-02       0.036     5576.552   0.100E-11
     TRS4 it  11 1.00000000   0.196E-05       0.036     5545.655   0.100E-11
     TRS4 it  12 1.00000000   0.973E-12       0.036     5579.066   0.100E-11
     Final TRS4 iteration   12 1.00000000   0.973E-12
     Chemical potential (mu):      -0.02057

 SCF     7     -1103.133400709        -0.000019248    2.083427

*********************************************************
 Using MIXING_FRACTION=0.450 to mix KS matrix:  iscf=  8
 KS_nw=0.450*KS + 0.550*KS_old
*********************************************************
     Est. extremal eigenvalues     -0.82976     5.28137  converged:  T
     TRS4 it   1 1.00000000   0.558E+02       0.019     5254.171   0.100E-11
     TRS4 it   2 1.00000000   0.538E+02       0.018     5475.620   0.100E-11
     TRS4 it   3 1.00000000   0.346E+02       0.036     5504.003   0.100E-11
     TRS4 it   4 1.00000000   0.182E+02       0.036     5636.673   0.100E-11
     TRS4 it   5 1.00000000   0.117E+02       0.036     5645.642   0.100E-11
     TRS4 it   6 1.00000000   0.599E+01       0.036     5544.823   0.100E-11
     TRS4 it   7 1.00000000   0.232E+01       0.036     5583.985   0.100E-11
     TRS4 it   8 1.00000000   0.601E+00       0.036     5569.235   0.100E-11
     TRS4 it   9 1.00000000   0.785E-01       0.036     5601.550   0.100E-11
     TRS4 it  10 1.00000000   0.291E-02       0.036     5565.848   0.100E-11
     TRS4 it  11 1.00000000   0.199E-05       0.036     5608.099   0.100E-11
     TRS4 it  12 1.00000000   0.101E-11       0.036     5598.659   0.100E-11
     Final TRS4 iteration   12 1.00000000   0.101E-11
     Chemical potential (mu):      -0.02034

 SCF     8     -1103.133405441        -0.000004731    2.088763


 SCF run converged in     8 steps.

 Writing restart DM 64H2O_ref_LS_DM_SPIN_1_RESTART.dm with checksum:       0.61438353E+04

 ENERGY| Total FORCE_EVAL ( QS ) energy [a.u.]:            -1103.133405440536080

 -------------------------------------------------------------------------------
 -                                                                             -
 -                                DBCSR STATISTICS                             -
 -                                                                             -
 -------------------------------------------------------------------------------
 COUNTER                                    TOTAL       BLAS       SMM       ACC
 flops     5 x     5 x     5          79431458000       0.0%    100.0%      0.0%     
 flops    13 x     5 x     5         102849942000       0.0%    100.0%      0.0%     
 flops     5 x    13 x     5         102870909050       0.0%    100.0%      0.0%     
 flops     5 x     5 x    13         103379952000       0.0%    100.0%      0.0%     
 flops    13 x     5 x    13         133854956040       0.0%    100.0%      0.0%     
 flops     5 x    13 x    13         133917599270       0.0%    100.0%      0.0%     
 flops    13 x    13 x     5         135047947320       0.0%    100.0%      0.0%     
 flops    13 x    13 x    13         175795059726       0.0%    100.0%      0.0%     
 flops inhomo. stacks                           0       0.0%      0.0%      0.0%
 flops total                       967.147823E+09       0.0%    100.0%      0.0%
 flops max/rank                     31.039014E+09       0.0%    100.0%      0.0%
 matmuls inhomo. stacks                         0       0.0%      0.0%      0.0%
 matmuls total                         1071628835       0.0%    100.0%      0.0%
 number of processed stacks               1516634       0.0%    100.0%      0.0%
 average stack size                                     0.0     706.6       0.0
 marketing flops                     1.569237E+12
 -------------------------------------------------------------------------------
 # multiplications                            246
 max memory usage/rank             621.719552E+06
 # max total images/rank                        2
 # max 3D layers                                1
 # MPI messages exchanged                  102336
 MPI messages size (bytes):
  total size                        42.377564E+09
  min size                           0.000000E+00
  max size                         541.696000E+03
  average size                     414.102219E+03
 MPI breakdown and total messages size (bytes):
             size <=      128                 312                        0
       128 < size <=     8192                  42                   279312
      8192 < size <=    32768                  62                   841968
     32768 < size <=   131072                   0                        0
    131072 < size <=  4194304              101920              42376443520
   4194304 < size <= 16777216                   0                        0
  16777216 < size                               0                        0
 -------------------------------------------------------------------------------

 *** WARNING in dbcsr_mm.F:301 :: Using a non-square number of MPI ranks ***
 *** might lead to poor performance. Used ranks: 32 Suggested: 36 64     ***

 -------------------------------------------------------------------------------
 -                                                                             -
 -                      DBCSR MESSAGE PASSING PERFORMANCE                      -
 -                                                                             -
 -------------------------------------------------------------------------------
 ROUTINE             CALLS      AVE VOLUME [Bytes]
 MP_Bcast                9                     12.
 MP_Allreduce         1762                     34.
 MP_Alltoall           546                  34827.
 MP_ISend             8604                 170854.
 MP_IRecv             8238                 179055.
 -------------------------------------------------------------------------------

 -------------------------------------------------------------------------------
 -                                                                             -
 -                                DBM STATISTICS                               -
 -                                                                             -
 -------------------------------------------------------------------------------
    M  x    N  x    K                                          COUNT     PERCENT
 -------------------------------------------------------------------------------

 -------------------------------------------------------------------------------
 -                                                                             -
 -                                GRID STATISTICS                              -
 -                                                                             -
 -------------------------------------------------------------------------------
 LP    KERNEL             BACKEND                              COUNT     PERCENT
 2     collocate ortho    CPU                                7375203      28.82%
 2     integrate ortho    CPU                                7375203      28.82%
 3     collocate ortho    CPU                                4740291      18.53%
 3     integrate ortho    CPU                                4740291      18.53%
 4     collocate ortho    CPU                                 674604       2.64%
 4     integrate ortho    CPU                                 674604       2.64%
 0     collocate general  CPU                                   6144       0.02%
 -------------------------------------------------------------------------------

 MEMORY| Estimated peak process memory [MiB]                                 593

 -------------------------------------------------------------------------------
 -                                                                             -
 -                         MESSAGE PASSING PERFORMANCE                         -
 -                                                                             -
 -------------------------------------------------------------------------------

 ROUTINE             CALLS      AVE VOLUME [Bytes]
 MP_Group                5
 MP_Bcast             2418                 161261.
 MP_Allreduce         6482                    940.
 MP_Sync                 5
 MP_Alltoall           244                1612323.
 MP_SendRecv           837                  18832.
 MP_ISendRecv          837                  18832.
 MP_Wait              2391
 MP_ISend             1406                 108579.
 MP_IRecv             1406                 108603.
 -------------------------------------------------------------------------------


 -------------------------------------------------------------------------------
 -                                                                             -
 -                           R E F E R E N C E S                               -
 -                                                                             -
 -------------------------------------------------------------------------------
 
 CP2K version 2024.3 (Development Version), the CP2K developers group (2024).
 CP2K is freely available from https://www.cp2k.org/ .
 
 T. D. Kuehne, M. Iannuzzi, M. Del Ben, V. V. Rybkin, P. Seewald, F. Stein, T. 
 Laino, R. Z. Khaliullin, O. Schuett, F. Schiffmann, D. Golze, J. Wilhelm, S. 
 Chulkov, M. H. Bani-Hashemian, V. Weber, U. Borstnik, M. Taillefumier, A. S. 
 Jakobovits, A. Lazzaro, H. Pabst, T. Mueller, R. Schade, M. Guidon, S. 
 Andermatt, N. Holmberg, G. K. Schenter, A. Hehn, A. Bussy, F. Belleflamme, G. 
 Tabacchi, A. Gloess, M. Lass, I. Bethune, C. J. Mundy, C. Plessl, M. Watkins, 
 J. VandeVondele, M. Krack, J. Hutter.
 J. Chem. Phys. 152, 194103 (2020).
 CP2K: An electronic structure and molecular dynamics software package - 
 Quickstep: Efficient and accurate electronic structure calculations.
 https://doi.org/10.1063/5.0007045

 O. Schuett, P. Messmer, J. Hutter, J. VandeVondele.
 Electronic Structure Calculations on Graphics Processing Units, 173-190 (2016).
 GPU-Accelerated Sparse Matrix-Matrix Multiplication for Linear Scaling Density 
 Functional Theory.
 https://doi.org/10.1002/9781118670712.ch8

 A. Heinecke, G. Henry, M. Hutchinson, H. Pabst.
 Proceedings of Intl. Supercomputing Conference, 981-991 (2016).
 LIBXSMM: Accelerating Small Matrix Multiplications by Runtime Code Generation.
 https://doi.org/10.1109/SC.2016.83

 J. Hutter, M. Iannuzzi, F. Schiffmann, J. VandeVondele.
 WIREs Comput Mol Sci. 4, 15-25 (2014).
 CP2K: atomistic simulations of condensed matter systems.
 https://doi.org/10.1002/wcms.1159

 U. Borstnik, J. VandeVondele, V. Weber, J. Hutter.
 Parallel Comput. 40, 47-58 (2014).
 Sparse matrix multiplication: The distributed block-compressed sparse row 
 library.
 https://doi.org/10.1016/j.parco.2014.03.012

 A. Marek, V. Blum, R. Johanni, V. Havu, B. Lang, T. Auckenthaler, A. Heinecke, 
 H. Bungartz, H. Lederer.
 J. Phys. Condens. Matter 26, 213201 (2014).
 The ELPA library: scalable parallel eigenvalue solutions for electronic 
 structure theory and computational science.
 https://doi.org/10.1088/0953-8984/26/21/213201

 J. VandeVondele, U. Borstnik, J. Hutter.
 J. Chem. Theory Comput. 8, 3565-3573 (2012).
 Linear Scaling Self-Consistent Field Calculations with Millions of Atoms in the 
 Condensed Phase.
 https://doi.org/10.1021/ct200897x

 J. VandeVondele, J. Hutter.
 J. Chem. Phys. 127, 114105 (2007).
 Gaussian basis sets for accurate calculations on molecular systems in gas and 
 condensed phases.
 https://doi.org/10.1063/1.2770708

 J. VandeVondele, M. Krack, F. Mohamed, M. Parrinello, T. Chassaing, J. Hutter.
 Comput. Phys. Commun. 167, 103-128 (2005).
 QUICKSTEP: Fast and accurate density functional calculations using a mixed 
 Gaussian and plane waves approach.
 https://doi.org/10.1016/j.cpc.2004.12.014

 M. Krack.
 Theor. Chem. Acc. 114, 145-152 (2005).
 Pseudopotentials for H to Kr optimized for gradient-corrected 
 exchange-correlation functionals.
 https://doi.org/10.1007/s00214-005-0655-y

 M. Frigo, S. G. Johnson.
 Proc. IEEE 93, 216-231 (2005).
 The design and implementation of FFTW3.
 https://doi.org/10.1109/JPROC.2004.840301

 A. M. N. Niklasson, C. J. Tymczak, M. Challacombe.
 J. Chem. Phys. 118, 8611-8620 (2003).
 Trace resetting density matrix purification in O(N) self-consistent-field 
 theory.
 https://doi.org/10.1063/1.1559913

 C. Hartwigsen, S. Goedecker, J. Hutter.
 Phys. Rev. B 58, 3641-3662 (1998).
 Relativistic separable dual-space Gaussian pseudopotentials from H to Rn.
 https://doi.org/10.1103/PhysRevB.58.3641

 G. Lippert, J. Hutter, M. Parrinello.
 Mol. Phys. 92, 477-487 (1997).
 A hybrid Gaussian and plane wave density functional scheme.
 https://doi.org/10.1080/002689797170220

 S. Goedecker, M. Teter, J. Hutter.
 Phys. Rev. B 54, 1703-1710 (1996).
 Separable dual-space Gaussian pseudopotentials.
 https://doi.org/10.1103/PhysRevB.54.1703

 J. P. Perdew, K. Burke, M. Ernzerhof.
 Phys. Rev. Lett. 77, 3865-3868 (1996).
 Generalized gradient approximation made simple.
 https://doi.org/10.1103/PhysRevLett.77.3865


 -------------------------------------------------------------------------------
 -                                                                             -
 -                                T I M I N G                                  -
 -                                                                             -
 -------------------------------------------------------------------------------
 SUBROUTINE                       CALLS  ASD         SELF TIME        TOTAL TIME
                                MAXIMUM       AVERAGE  MAXIMUM  AVERAGE  MAXIMUM
 CP2K                                 1  1.0    0.012    0.015   20.321   20.321
 qs_energies                          1  2.0    0.000    0.000   20.173   20.173
 ls_scf                               1  3.0    0.000    0.000   19.199   19.200
 ls_scf_main                          1  4.0    0.000    0.000   16.632   16.635
 ls_scf_dm_to_ks                      8  5.0    0.000    0.000   12.384   12.389
 qs_ks_update_qs_env                  9  6.1    0.000    0.000    7.799    7.802
 rebuild_ks_matrix                    9  7.1    0.000    0.000    7.793    7.796
 qs_ks_build_kohn_sham_matrix         9  8.1    0.002    0.002    7.793    7.796
 qs_rho_update_rho_low                9  6.1    0.000    0.000    6.154    6.157
 calculate_rho_elec                   9  7.1    0.003    0.003    6.154    6.157
 sum_up_and_integrate                 9  9.1    0.000    0.000    5.890    5.893
 integrate_v_rspace                   9 10.1    0.000    0.000    5.881    5.885
 grid_collocate_task_list             9  8.1    5.446    5.529    5.446    5.529
 grid_integrate_task_list             9 11.1    5.204    5.278    5.204    5.278
 dbcsr_multiply_generic             246  6.2    0.012    0.013    4.634    4.654
 density_matrix_trs4                  8  5.0    0.004    0.006    4.243    4.261
 multiply_cannon                    246  7.2    0.018    0.022    3.764    3.852
 multiply_cannon_loop               246  8.2    0.019    0.022    3.690    3.738
 ls_scf_init_scf                      1  4.0    0.000    0.000    2.504    2.505
 multiply_cannon_multrec           1968  9.2    2.099    2.144    2.106    2.151
 mp_waitall_1                     16729 10.5    1.727    1.820    1.727    1.820
 fft_wrap_pw1pw2                    172 11.3    0.003    0.003    1.761    1.787
 fft_wrap_pw1pw2_200                100 12.8    0.104    0.110    1.689    1.726
 qs_vxc_create                        9  9.1    0.000    0.000    1.554    1.584
 xc_vxc_pw_create                     9 10.1    0.013    0.019    1.554    1.584
 ls_scf_initial_guess                 1  5.0    0.000    0.000    1.574    1.576
 ls_scf_qs_atomic_guess               1  6.0    0.000    0.000    1.574    1.576
 multiply_cannon_metrocomm3        1968  9.2    0.005    0.006    1.347    1.433
 fft3d_ps                           172 13.3    0.717    0.802    1.322    1.364
 xc_pw_derive                        54 12.1    0.001    0.001    1.103    1.191
 qs_energies_init_hamiltonians        1  3.0    0.000    0.000    0.973    0.973
 ls_scf_init_matrix_S                 1  5.0    0.000    0.000    0.930    0.931
 matrix_sqrt_Newton_Schulz            1  6.0    0.001    0.001    0.907    0.908
 xc_rho_set_and_dset_create           9 11.1    0.020    0.025    0.784    0.805
 build_core_hamiltonian_matrix        1  4.0    0.000    0.000    0.696    0.782
 xc_pw_divergence                     9 11.1    0.000    0.000    0.737    0.775
 density_rs2pw                        9  8.1    0.000    0.000    0.675    0.768
 make_m2s                           492  7.2    0.005    0.006    0.682    0.692
 make_images                        492  8.2    0.039    0.040    0.672    0.683
 mp_alltoall_z22v                   172 15.3    0.431    0.625    0.431    0.625
 potential_pw2rs                      9 11.1    0.000    0.001    0.598    0.600
 mp_waitany                        1406 12.5    0.467    0.562    0.467    0.562
 build_core_ppl                       1  5.0    0.474    0.530    0.474    0.530
 transfer_rs2pw                      46  9.0    0.001    0.001    0.400    0.483
 arnoldi_extremal                     9  6.1    0.000    0.000    0.429    0.430
 arnoldi_normal_ev                    9  7.1    0.000    0.001    0.428    0.429
 -------------------------------------------------------------------------------

 The number of warnings for this run is : 1
 
 -------------------------------------------------------------------------------
  **** **** ******  **  PROGRAM ENDED AT                 2024-09-23 17:44:23.478
 ***** ** ***  *** **   PROGRAM RAN ON                                    moritz
 **    ****   ******    PROGRAM RAN BY                                       ole
 ***** **    ** ** **   PROGRAM PROCESS ID                                158716
  **** **  *******  **  PROGRAM STOPPED IN /home/ole/git/pao_ml_equivar/64H2O_MD
                                           /Frame4100
