 DBCSR| CPU Multiplication driver                                           XSMM (U)
 DBCSR| Multrec recursion limit                                              512 (U)
 DBCSR| Multiplication stack size                                           1000 (D)
 DBCSR| Maximum elements for images                                    UNLIMITED (U)
 DBCSR| Multiplicative factor virtual images                                   1 (U)
 DBCSR| Use multiplication densification                                       T (D)
 DBCSR| Multiplication size stacks                                             3 (U)
 DBCSR| Use memory pool for CPU allocation                                     F (U)
 DBCSR| Number of 3D layers                                               SINGLE (U)
 DBCSR| Use MPI memory allocation                                              F (U)
 DBCSR| Use RMA algorithm                                                      F (U)
 DBCSR| Use Communication thread                                               T (U)
 DBCSR| Communication thread load                                             87 (D)
 DBCSR| MPI: My process id                                                     0
 DBCSR| MPI: Number of processes                                              32
 DBCSR| OMP: Current number of threads                                         1
 DBCSR| OMP: Max number of threads                                             1
 DBCSR| Split modifier for TAS multiplication algorithm                  1.0E+00 (U)


  **** **** ******  **  PROGRAM STARTED AT               2024-09-23 17:40:40.974
 ***** ** ***  *** **   PROGRAM STARTED ON                                moritz
 **    ****   ******    PROGRAM STARTED BY                                   ole
 ***** **    ** ** **   PROGRAM PROCESS ID                                157824
  **** **  *******  **  PROGRAM STARTED IN /home/ole/git/pao_ml_equivar/64H2O_MD
                                           /Frame3200

 CP2K| version string:                 CP2K version 2024.3 (Development Version)
 CP2K| source code revision number:                                  git:3f890bb
 CP2K| cp2kflags: omp libint fftw3 libxc libgrpp pexsi elpa parallel scalapack c
 CP2K|            osma quip deepmd xsmm plumed2 spglib libdftd4 sirius libvori l
 CP2K|            libbqb libvdwxc hdf5
 CP2K| is freely available from                            https://www.cp2k.org/
 CP2K| Program compiled at                          Mo 23 Sep 2024 17:17:04 CEST
 CP2K| Program compiled on                                                moritz
 CP2K| Program compiled for                                                local
 CP2K| Data directory path                               /home/ole/git/cp2k/data
 CP2K| Input file name                                             64H2O_ref.inp

 GLOBAL| Force Environment number                                              1
 GLOBAL| Basis set file name                                        BASIS_MOLOPT
 GLOBAL| Potential file name                                      GTH_POTENTIALS
 GLOBAL| MM Potential file name                                     MM_POTENTIAL
 GLOBAL| Coordinate file name                                         coords.xyz
 GLOBAL| Method name                                                        CP2K
 GLOBAL| Project name                                                  64H2O_ref
 GLOBAL| Run type                                                         ENERGY
 GLOBAL| FFT library                                                       FFTW3
 GLOBAL| Diagonalization library                                            ELPA
 GLOBAL| DGEMM library                                                      BLAS
 GLOBAL| Minimum number of eigenvectors for ELPA usage                        16
 GLOBAL| Orthonormality check for eigenvectors                          DISABLED
 GLOBAL| Matrix multiplication library                                     COSMA
 GLOBAL| All-to-all communication in single precision                          F
 GLOBAL| FFTs using library dependent lengths                                  F
 GLOBAL| Grid backend                                                       AUTO
 GLOBAL| Global print level                                                  LOW
 GLOBAL| MPI I/O enabled                                                       T
 GLOBAL| Total number of message passing processes                            32
 GLOBAL| Number of threads for this process                                    1
 GLOBAL| This output is from process                                           0
 GLOBAL| Stack size for threads created by OpenMP (OMP_STACKSIZE)        default
 GLOBAL| CPU model name           AMD Ryzen Threadripper 3970X 32-Core Processor
 GLOBAL| CPUID                                                              1002

 MEMORY| system memory details [Kb]
 MEMORY|                        rank 0           min           max       average
 MEMORY| MemTotal            131752136     131752136     131752136     131752136
 MEMORY| MemFree             118199148     118199148     118199148     118199148
 MEMORY| Buffers                260060        260060        260060        260060
 MEMORY| Cached                7253564       7253564       7253564       7253564
 MEMORY| Slab                   711936        711936        711936        711936
 MEMORY| SReclaimable           275152        275152        275152        275152
 MEMORY| MemLikelyFree       125987924     125987924     125987924     125987924


 GENERATE|  Preliminary Number of Bonds generated:                             0
 GENERATE|  Achieved consistency in connectivity generation.

 *******************************************************************************
 *******************************************************************************
 **                                                                           **
 **     #####                         ##              ##                      **
 **    ##   ##            ##          ##              ##                      **
 **   ##     ##                       ##            ######                    **
 **   ##     ##  ##   ##  ##   #####  ##  ##   ####   ##    #####    #####    **
 **   ##     ##  ##   ##  ##  ##      ## ##   ##      ##   ##   ##  ##   ##   **
 **   ##  ## ##  ##   ##  ##  ##      ####     ###    ##   ######   ######    **
 **    ##  ###   ##   ##  ##  ##      ## ##      ##   ##   ##       ##        **
 **     #######   #####   ##   #####  ##  ##  ####    ##    #####   ##        **
 **           ##                                                    ##        **
 **                                                                           **
 **                                                ... make the atoms dance   **
 **                                                                           **
 **            Copyright (C) by CP2K developers group (2000-2024)             **
 **                      J. Chem. Phys. 152, 194103 (2020)                    **
 **                                                                           **
 *******************************************************************************


 TOTAL NUMBERS AND MAXIMUM NUMBERS

  Total number of            - Atomic kinds:                                   2
                             - Atoms:                                        192
                             - Shell sets:                                   192
                             - Shells:                                       704
                             - Primitive Cartesian functions:               1344
                             - Cartesian basis functions:                   1536
                             - Spherical basis functions:                   1472

  Maximum angular momentum of- Orbital basis functions:                        2
                             - Local part of the GTH pseudopotential:          2
                             - Non-local part of the GTH pseudopotential:      0

 ------------------------------ Linear scaling SCF -----------------------------
 eps_scf:                                                              0.100E-07
 eps_filter:                                                           0.100E-11
 mixing_fraction:                                                      0.450E+00
 max_scf:                                                                     25
 fixed chemical potential (mu)                                                 F
 has unit metric:                                                              F
 Computing inv(S):                                                             T
 Computing sqrt(S):                                                            T
 Computing S preconditioner                                                    F
 S sqrt method:                                                     NEWTONSCHULZ
 S sqrt order:                                                                 3
 Extrapolation order:                                                          1
 S preconditioner type                                                      NONE
 Polarized Atomic Orbitals (PAO)                                               F
 Purification method                                   Trace resetting 4th order
 Cluster type                                                             ATOMIC
 Computing Chebyshev                                                       FALSE
 Using PAO                                                                     F
 -------------------------------------------------------------------------------


     Lanczos converged:  F threshold:   0.100E-02
     Est. extremal eigenvalues:    0.885E+01   0.576E-02
     Est. condition number :    0.154E+04

 Order=           3
     NS sqrt iter    1 1.00000000   0.228E+01       0.065     6167.746
     NS sqrt iter    2 1.00000000   0.119E+01       0.100     7991.375
     NS sqrt iter    3 1.00000000   0.590E+00       0.098     8123.510
     NS sqrt iter    4 1.00000000   0.339E+00       0.099     8078.773
     NS sqrt iter    5 1.00000000   0.229E+00       0.100     7956.343
     NS sqrt iter    6 1.00000000   0.110E+00       0.099     8040.547
     NS sqrt iter    7 1.00000000   0.149E-01       0.099     8029.141
     NS sqrt iter    8 1.00000000   0.993E-04       0.099     8079.109
     NS sqrt iter    9 1.00000000   0.219E-09       0.075     6068.674
     Symmetrizing Results
     Final NS sqrt iter    9 1.00000000   0.581E-11



 Guess for atomic kind: O

 Electronic structure
    Total number of core electrons                                          2.00
    Total number of valence electrons                                       6.00
    Total number of electrons                                               8.00
    Multiplicity                                                   not specified
    S   [  2.00] 2.00
    P      4.00


 *******************************************************************************
                  Iteration          Convergence                     Energy [au]
 *******************************************************************************
                          1        0.708315                     -15.576645311500
                          2        0.608879                     -15.587933561584
                          3        0.102828E-01                 -15.656849565404
                          4        0.113889E-02                 -15.656866888140
                          5        0.434197E-03                 -15.656867072159
                          6        0.263771E-03                 -15.656867091904
                          7        0.478536E-06                 -15.656867103452

 Energy components [Hartree]           Total Energy ::          -15.656867103452
                                        Band Energy ::           -3.000198112285
                                     Kinetic Energy ::           11.759971203220
                                   Potential Energy ::          -27.416838306672
                                      Virial (-V/T) ::            2.331369510426
                                        Core Energy ::          -26.140716385623
                                          XC Energy ::           -3.154051012914
                                     Coulomb Energy ::           13.637900295084
                       Total Pseudopotential Energy ::          -37.935781716540
                       Local Pseudopotential Energy ::          -39.218907440693
                    Nonlocal Pseudopotential Energy ::            1.283125724153
                                        Confinement ::            0.350941276976

 Orbital energies  State     L     Occupation   Energy[a.u.]          Energy[eV]

                       1     0          2.000      -0.864471          -23.523463

                       1     1          4.000      -0.317814           -8.648154


 Total Electron Density at R=0:                                         0.000068

 Guess for atomic kind: H

 Electronic structure
    Total number of core electrons                                          0.00
    Total number of valence electrons                                       1.00
    Total number of electrons                                               1.00
    Multiplicity                                                   not specified
    S      1.00


 *******************************************************************************
                  Iteration          Convergence                     Energy [au]
 *******************************************************************************
                          1        0.437545E-02                  -0.424159432110
                          2        0.531356E-03                  -0.424178438213
                          3        0.259176E-06                  -0.424178722480

 Energy components [Hartree]           Total Energy ::           -0.424178722480
                                        Band Energy ::           -0.199015229016
                                     Kinetic Energy ::            0.464007633961
                                   Potential Energy ::           -0.888186356441
                                      Virial (-V/T) ::            1.914163240935
                                        Core Energy ::           -0.479160803564
                                          XC Energy ::           -0.244352904054
                                     Coulomb Energy ::            0.299334985138
                       Total Pseudopotential Energy ::           -0.962295316385
                       Local Pseudopotential Energy ::           -0.962295316385
                    Nonlocal Pseudopotential Energy ::            0.000000000000
                                        Confinement ::            0.191268788606

 Orbital energies  State     L     Occupation   Energy[a.u.]          Energy[eV]

                       1     0          1.000      -0.199015           -5.415480


 Total Electron Density at R=0:                                         0.242907
 Re-scaling the density matrix to get the right number of electrons
                  # Electrons              Trace(P)               Scaling factor
                          512               512.001                        1.000
 Energy with the initial guess:     -1095.994003905

     Est. extremal eigenvalues     -0.94897     5.33914  converged:  T
     TRS4 it   1 1.00000000   0.565E+02       0.019     5302.952   0.100E-11
     TRS4 it   2 1.00000000   0.544E+02       0.019     5348.248   0.100E-11
     TRS4 it   3 1.00000000   0.344E+02       0.036     5528.558   0.100E-11
     TRS4 it   4 1.00000000   0.177E+02       0.037     5472.543   0.100E-11
     TRS4 it   5 1.00000000   0.106E+02       0.035     5682.153   0.100E-11
     TRS4 it   6 1.00000000   0.480E+01       0.036     5533.796   0.100E-11
     TRS4 it   7 1.00000000   0.142E+01       0.036     5595.051   0.100E-11
     TRS4 it   8 1.00000000   0.212E+00       0.036     5573.322   0.100E-11
     TRS4 it   9 1.00000000   0.873E-02       0.036     5602.449   0.100E-11
     TRS4 it  10 1.00000000   0.224E-04       0.036     5546.392   0.100E-11
     TRS4 it  11 1.00000000   0.513E-10       0.036     5540.791   0.100E-11
     Final TRS4 iteration   11 1.00000000   0.513E-10
     Chemical potential (mu):      -0.10646

 SCF     1     -1097.913691946     -1097.913691946    2.060614

*********************************************************
 Using MIXING_FRACTION=0.450 to mix KS matrix:  iscf=  2
 KS_nw=0.450*KS + 0.550*KS_old
*********************************************************
     Est. extremal eigenvalues     -0.84208     5.43713  converged:  T
     TRS4 it   1 1.00000000   0.558E+02       0.018     5449.927   0.100E-11
     TRS4 it   2 1.00000000   0.547E+02       0.019     5356.788   0.100E-11
     TRS4 it   3 1.00000000   0.357E+02       0.037     5490.448   0.100E-11
     TRS4 it   4 1.00000000   0.184E+02       0.036     5570.012   0.100E-11
     TRS4 it   5 1.00000000   0.119E+02       0.037     5432.031   0.100E-11
     TRS4 it   6 1.00000000   0.621E+01       0.036     5567.219   0.100E-11
     TRS4 it   7 1.00000000   0.248E+01       0.036     5502.485   0.100E-11
     TRS4 it   8 1.00000000   0.685E+00       0.036     5556.922   0.100E-11
     TRS4 it   9 1.00000000   0.101E+00       0.036     5624.711   0.100E-11
     TRS4 it  10 1.00000000   0.504E-02       0.036     5582.897   0.100E-11
     TRS4 it  11 1.00000000   0.770E-05       0.036     5503.658   0.100E-11
     TRS4 it  12 1.00000000   0.192E-10       0.035     5686.222   0.100E-11
     Final TRS4 iteration   12 1.00000000   0.192E-10
     Chemical potential (mu):      -0.01720

 SCF     2     -1102.958845458        -5.045153512    2.085639

*********************************************************
 Using MIXING_FRACTION=0.450 to mix KS matrix:  iscf=  3
 KS_nw=0.450*KS + 0.550*KS_old
*********************************************************
     Est. extremal eigenvalues     -0.85048     5.43059  converged:  T
     TRS4 it   1 1.00000000   0.559E+02       0.019     5331.887   0.100E-11
     TRS4 it   2 1.00000000   0.546E+02       0.019     5280.198   0.100E-11
     TRS4 it   3 1.00000000   0.355E+02       0.037     5423.268   0.100E-11
     TRS4 it   4 1.00000000   0.183E+02       0.036     5646.475   0.100E-11
     TRS4 it   5 1.00000000   0.117E+02       0.037     5481.207   0.100E-11
     TRS4 it   6 1.00000000   0.601E+01       0.036     5560.847   0.100E-11
     TRS4 it   7 1.00000000   0.232E+01       0.036     5517.229   0.100E-11
     TRS4 it   8 1.00000000   0.603E+00       0.036     5551.469   0.100E-11
     TRS4 it   9 1.00000000   0.792E-01       0.036     5611.035   0.100E-11
     TRS4 it  10 1.00000000   0.299E-02       0.036     5550.349   0.100E-11
     TRS4 it  11 1.00000000   0.305E-05       0.036     5617.779   0.100E-11
     TRS4 it  12 1.00000000   0.572E-11       0.036     5600.588   0.100E-11
     Final TRS4 iteration   12 1.00000000   0.572E-11
     Chemical potential (mu):      -0.02495

 SCF     3     -1103.110863979        -0.152018521    2.086216

*********************************************************
 Using MIXING_FRACTION=0.450 to mix KS matrix:  iscf=  4
 KS_nw=0.450*KS + 0.550*KS_old
*********************************************************
     Est. extremal eigenvalues     -0.84645     5.43358  converged:  T
     TRS4 it   1 1.00000000   0.559E+02       0.019     5239.113   0.100E-11
     TRS4 it   2 1.00000000   0.546E+02       0.019     5405.872   0.100E-11
     TRS4 it   3 1.00000000   0.355E+02       0.036     5553.325   0.100E-11
     TRS4 it   4 1.00000000   0.184E+02       0.036     5534.657   0.100E-11
     TRS4 it   5 1.00000000   0.118E+02       0.036     5555.684   0.100E-11
     TRS4 it   6 1.00000000   0.609E+01       0.036     5571.571   0.100E-11
     TRS4 it   7 1.00000000   0.239E+01       0.035     5685.897   0.100E-11
     TRS4 it   8 1.00000000   0.640E+00       0.035     5707.586   0.100E-11
     TRS4 it   9 1.00000000   0.901E-01       0.036     5651.585   0.100E-11
     TRS4 it  10 1.00000000   0.406E-02       0.035     5683.899   0.100E-11
     TRS4 it  11 1.00000000   0.685E-05       0.036     5619.578   0.100E-11
     TRS4 it  12 1.00000000   0.378E-10       0.036     5547.360   0.100E-11
     Final TRS4 iteration   12 1.00000000   0.378E-10
     Chemical potential (mu):      -0.01859

 SCF     4     -1103.118552042        -0.007688063    2.080561

*********************************************************
 Using MIXING_FRACTION=0.450 to mix KS matrix:  iscf=  5
 KS_nw=0.450*KS + 0.550*KS_old
*********************************************************
     Est. extremal eigenvalues     -0.84515     5.43492  converged:  T
     TRS4 it   1 1.00000000   0.559E+02       0.019     5307.230   0.100E-11
     TRS4 it   2 1.00000000   0.546E+02       0.019     5384.435   0.100E-11
     TRS4 it   3 1.00000000   0.355E+02       0.036     5539.431   0.100E-11
     TRS4 it   4 1.00000000   0.184E+02       0.036     5562.049   0.100E-11
     TRS4 it   5 1.00000000   0.118E+02       0.037     5477.651   0.100E-11
     TRS4 it   6 1.00000000   0.609E+01       0.036     5553.403   0.100E-11
     TRS4 it   7 1.00000000   0.238E+01       0.036     5549.801   0.100E-11
     TRS4 it   8 1.00000000   0.639E+00       0.036     5593.940   0.100E-11
     TRS4 it   9 1.00000000   0.902E-01       0.036     5522.125   0.100E-11
     TRS4 it  10 1.00000000   0.410E-02       0.035     5664.447   0.100E-11
     TRS4 it  11 1.00000000   0.724E-05       0.036     5603.380   0.100E-11
     TRS4 it  12 1.00000000   0.474E-10       0.036     5582.772   0.100E-11
     Final TRS4 iteration   12 1.00000000   0.474E-10
     Chemical potential (mu):      -0.01761

 SCF     5     -1103.119200067        -0.000648025    2.093524

*********************************************************
 Using MIXING_FRACTION=0.450 to mix KS matrix:  iscf=  6
 KS_nw=0.450*KS + 0.550*KS_old
*********************************************************
     Est. extremal eigenvalues     -0.84451     5.43527  converged:  T
     TRS4 it   1 1.00000000   0.559E+02       0.018     5425.809   0.100E-11
     TRS4 it   2 1.00000000   0.546E+02       0.018     5427.400   0.100E-11
     TRS4 it   3 1.00000000   0.355E+02       0.036     5506.402   0.100E-11
     TRS4 it   4 1.00000000   0.184E+02       0.036     5626.045   0.100E-11
     TRS4 it   5 1.00000000   0.118E+02       0.036     5610.517   0.100E-11
     TRS4 it   6 1.00000000   0.610E+01       0.036     5631.212   0.100E-11
     TRS4 it   7 1.00000000   0.239E+01       0.036     5602.978   0.100E-11
     TRS4 it   8 1.00000000   0.644E+00       0.037     5487.574   0.100E-11
     TRS4 it   9 1.00000000   0.917E-01       0.036     5576.806   0.100E-11
     TRS4 it  10 1.00000000   0.427E-02       0.037     5457.798   0.100E-11
     TRS4 it  11 1.00000000   0.818E-05       0.036     5640.696   0.100E-11
     TRS4 it  12 1.00000000   0.638E-10       0.036     5548.394   0.100E-11
     Final TRS4 iteration   12 1.00000000   0.638E-10
     Chemical potential (mu):      -0.01656

 SCF     6     -1103.119299898        -0.000099831    2.093882

*********************************************************
 Using MIXING_FRACTION=0.450 to mix KS matrix:  iscf=  7
 KS_nw=0.450*KS + 0.550*KS_old
*********************************************************
     Est. extremal eigenvalues     -0.84407     5.43562  converged:  T
     TRS4 it   1 1.00000000   0.559E+02       0.019     5330.578   0.100E-11
     TRS4 it   2 1.00000000   0.546E+02       0.019     5359.790   0.100E-11
     TRS4 it   3 1.00000000   0.355E+02       0.036     5512.663   0.100E-11
     TRS4 it   4 1.00000000   0.184E+02       0.035     5663.082   0.100E-11
     TRS4 it   5 1.00000000   0.118E+02       0.036     5520.373   0.100E-11
     TRS4 it   6 1.00000000   0.610E+01       0.036     5590.806   0.100E-11
     TRS4 it   7 1.00000000   0.239E+01       0.036     5561.408   0.100E-11
     TRS4 it   8 1.00000000   0.645E+00       0.036     5641.058   0.100E-11
     TRS4 it   9 1.00000000   0.920E-01       0.036     5641.562   0.100E-11
     TRS4 it  10 1.00000000   0.431E-02       0.035     5674.636   0.100E-11
     TRS4 it  11 1.00000000   0.842E-05       0.036     5564.295   0.100E-11
     TRS4 it  12 1.00000000   0.697E-10       0.036     5585.861   0.100E-11
     Final TRS4 iteration   12 1.00000000   0.697E-10
     Chemical potential (mu):      -0.01616

 SCF     7     -1103.119320926        -0.000021028    2.098466

*********************************************************
 Using MIXING_FRACTION=0.450 to mix KS matrix:  iscf=  8
 KS_nw=0.450*KS + 0.550*KS_old
*********************************************************
     Est. extremal eigenvalues     -0.84388     5.43572  converged:  T
     TRS4 it   1 1.00000000   0.559E+02       0.019     5390.337   0.100E-11
     TRS4 it   2 1.00000000   0.546E+02       0.019     5335.857   0.100E-11
     TRS4 it   3 1.00000000   0.355E+02       0.036     5573.535   0.100E-11
     TRS4 it   4 1.00000000   0.184E+02       0.036     5577.441   0.100E-11
     TRS4 it   5 1.00000000   0.118E+02       0.036     5535.749   0.100E-11
     TRS4 it   6 1.00000000   0.610E+01       0.036     5565.272   0.100E-11
     TRS4 it   7 1.00000000   0.239E+01       0.036     5505.050   0.100E-11
     TRS4 it   8 1.00000000   0.646E+00       0.036     5603.461   0.100E-11
     TRS4 it   9 1.00000000   0.923E-01       0.036     5601.412   0.100E-11
     TRS4 it  10 1.00000000   0.434E-02       0.036     5547.522   0.100E-11
     TRS4 it  11 1.00000000   0.864E-05       0.036     5617.377   0.100E-11
     TRS4 it  12 1.00000000   0.742E-10       0.036     5586.399   0.100E-11
     Final TRS4 iteration   12 1.00000000   0.742E-10
     Chemical potential (mu):      -0.01591

 SCF     8     -1103.119325943        -0.000005016    2.095222


 SCF run converged in     8 steps.

 Writing restart DM 64H2O_ref_LS_DM_SPIN_1_RESTART.dm with checksum:       0.62117986E+04

 ENERGY| Total FORCE_EVAL ( QS ) energy [a.u.]:            -1103.119325942681826

 -------------------------------------------------------------------------------
 -                                                                             -
 -                                DBCSR STATISTICS                             -
 -                                                                             -
 -------------------------------------------------------------------------------
 COUNTER                                    TOTAL       BLAS       SMM       ACC
 flops     5 x     5 x     5          79600050250       0.0%    100.0%      0.0%     
 flops    13 x     5 x     5         103033588450       0.0%    100.0%      0.0%     
 flops     5 x    13 x     5         103097116850       0.0%    100.0%      0.0%     
 flops     5 x     5 x    13         103584270400       0.0%    100.0%      0.0%     
 flops    13 x     5 x    13         134026599200       0.0%    100.0%      0.0%     
 flops     5 x    13 x    13         134178695820       0.0%    100.0%      0.0%     
 flops    13 x    13 x     5         135301347610       0.0%    100.0%      0.0%     
 flops    13 x    13 x    13         176022299830       0.0%    100.0%      0.0%     
 flops inhomo. stacks                           0       0.0%      0.0%      0.0%
 flops total                       968.843968E+09       0.0%    100.0%      0.0%
 flops max/rank                     31.078152E+09       0.0%    100.0%      0.0%
 matmuls inhomo. stacks                         0       0.0%      0.0%      0.0%
 matmuls total                         1073705801       0.0%    100.0%      0.0%
 number of processed stacks               1518923       0.0%    100.0%      0.0%
 average stack size                                     0.0     706.9       0.0
 marketing flops                     1.569237E+12
 -------------------------------------------------------------------------------
 # multiplications                            246
 max memory usage/rank             617.447424E+06
 # max total images/rank                        2
 # max 3D layers                                1
 # MPI messages exchanged                  102336
 MPI messages size (bytes):
  total size                        42.424484E+09
  min size                           0.000000E+00
  max size                         541.696000E+03
  average size                     414.560688E+03
 MPI breakdown and total messages size (bytes):
             size <=      128                 312                        0
       128 < size <=     8192                  42                   279312
      8192 < size <=    32768                  62                   841968
     32768 < size <=   131072                   0                        0
    131072 < size <=  4194304              101920              42423362880
   4194304 < size <= 16777216                   0                        0
  16777216 < size                               0                        0
 -------------------------------------------------------------------------------

 *** WARNING in dbcsr_mm.F:301 :: Using a non-square number of MPI ranks ***
 *** might lead to poor performance. Used ranks: 32 Suggested: 36 64     ***

 -------------------------------------------------------------------------------
 -                                                                             -
 -                      DBCSR MESSAGE PASSING PERFORMANCE                      -
 -                                                                             -
 -------------------------------------------------------------------------------
 ROUTINE             CALLS      AVE VOLUME [Bytes]
 MP_Bcast                9                     12.
 MP_Allreduce         1762                     34.
 MP_Alltoall           546                  34827.
 MP_ISend             8604                 171048.
 MP_IRecv             8238                 179259.
 -------------------------------------------------------------------------------

 -------------------------------------------------------------------------------
 -                                                                             -
 -                                DBM STATISTICS                               -
 -                                                                             -
 -------------------------------------------------------------------------------
    M  x    N  x    K                                          COUNT     PERCENT
 -------------------------------------------------------------------------------

 -------------------------------------------------------------------------------
 -                                                                             -
 -                                GRID STATISTICS                              -
 -                                                                             -
 -------------------------------------------------------------------------------
 LP    KERNEL             BACKEND                              COUNT     PERCENT
 2     collocate ortho    CPU                                7377660      28.82%
 2     integrate ortho    CPU                                7377660      28.82%
 3     collocate ortho    CPU                                4743234      18.53%
 3     integrate ortho    CPU                                4743234      18.53%
 4     collocate ortho    CPU                                 674766       2.64%
 4     integrate ortho    CPU                                 674766       2.64%
 0     collocate general  CPU                                   6144       0.02%
 -------------------------------------------------------------------------------

 MEMORY| Estimated peak process memory [MiB]                                 590

 -------------------------------------------------------------------------------
 -                                                                             -
 -                         MESSAGE PASSING PERFORMANCE                         -
 -                                                                             -
 -------------------------------------------------------------------------------

 ROUTINE             CALLS      AVE VOLUME [Bytes]
 MP_Group                5
 MP_Bcast             2662                 146625.
 MP_Allreduce         7086                    940.
 MP_Sync                 5
 MP_Alltoall           244                1016777.
 MP_SendRecv           837                  18832.
 MP_ISendRecv          837                  18832.
 MP_Wait              2391
 MP_ISend             1406                 108579.
 MP_IRecv             1406                 108603.
 -------------------------------------------------------------------------------


 -------------------------------------------------------------------------------
 -                                                                             -
 -                           R E F E R E N C E S                               -
 -                                                                             -
 -------------------------------------------------------------------------------
 
 CP2K version 2024.3 (Development Version), the CP2K developers group (2024).
 CP2K is freely available from https://www.cp2k.org/ .
 
 T. D. Kuehne, M. Iannuzzi, M. Del Ben, V. V. Rybkin, P. Seewald, F. Stein, T. 
 Laino, R. Z. Khaliullin, O. Schuett, F. Schiffmann, D. Golze, J. Wilhelm, S. 
 Chulkov, M. H. Bani-Hashemian, V. Weber, U. Borstnik, M. Taillefumier, A. S. 
 Jakobovits, A. Lazzaro, H. Pabst, T. Mueller, R. Schade, M. Guidon, S. 
 Andermatt, N. Holmberg, G. K. Schenter, A. Hehn, A. Bussy, F. Belleflamme, G. 
 Tabacchi, A. Gloess, M. Lass, I. Bethune, C. J. Mundy, C. Plessl, M. Watkins, 
 J. VandeVondele, M. Krack, J. Hutter.
 J. Chem. Phys. 152, 194103 (2020).
 CP2K: An electronic structure and molecular dynamics software package - 
 Quickstep: Efficient and accurate electronic structure calculations.
 https://doi.org/10.1063/5.0007045

 O. Schuett, P. Messmer, J. Hutter, J. VandeVondele.
 Electronic Structure Calculations on Graphics Processing Units, 173-190 (2016).
 GPU-Accelerated Sparse Matrix-Matrix Multiplication for Linear Scaling Density 
 Functional Theory.
 https://doi.org/10.1002/9781118670712.ch8

 A. Heinecke, G. Henry, M. Hutchinson, H. Pabst.
 Proceedings of Intl. Supercomputing Conference, 981-991 (2016).
 LIBXSMM: Accelerating Small Matrix Multiplications by Runtime Code Generation.
 https://doi.org/10.1109/SC.2016.83

 J. Hutter, M. Iannuzzi, F. Schiffmann, J. VandeVondele.
 WIREs Comput Mol Sci. 4, 15-25 (2014).
 CP2K: atomistic simulations of condensed matter systems.
 https://doi.org/10.1002/wcms.1159

 U. Borstnik, J. VandeVondele, V. Weber, J. Hutter.
 Parallel Comput. 40, 47-58 (2014).
 Sparse matrix multiplication: The distributed block-compressed sparse row 
 library.
 https://doi.org/10.1016/j.parco.2014.03.012

 A. Marek, V. Blum, R. Johanni, V. Havu, B. Lang, T. Auckenthaler, A. Heinecke, 
 H. Bungartz, H. Lederer.
 J. Phys. Condens. Matter 26, 213201 (2014).
 The ELPA library: scalable parallel eigenvalue solutions for electronic 
 structure theory and computational science.
 https://doi.org/10.1088/0953-8984/26/21/213201

 J. VandeVondele, U. Borstnik, J. Hutter.
 J. Chem. Theory Comput. 8, 3565-3573 (2012).
 Linear Scaling Self-Consistent Field Calculations with Millions of Atoms in the 
 Condensed Phase.
 https://doi.org/10.1021/ct200897x

 J. VandeVondele, J. Hutter.
 J. Chem. Phys. 127, 114105 (2007).
 Gaussian basis sets for accurate calculations on molecular systems in gas and 
 condensed phases.
 https://doi.org/10.1063/1.2770708

 J. VandeVondele, M. Krack, F. Mohamed, M. Parrinello, T. Chassaing, J. Hutter.
 Comput. Phys. Commun. 167, 103-128 (2005).
 QUICKSTEP: Fast and accurate density functional calculations using a mixed 
 Gaussian and plane waves approach.
 https://doi.org/10.1016/j.cpc.2004.12.014

 M. Krack.
 Theor. Chem. Acc. 114, 145-152 (2005).
 Pseudopotentials for H to Kr optimized for gradient-corrected 
 exchange-correlation functionals.
 https://doi.org/10.1007/s00214-005-0655-y

 M. Frigo, S. G. Johnson.
 Proc. IEEE 93, 216-231 (2005).
 The design and implementation of FFTW3.
 https://doi.org/10.1109/JPROC.2004.840301

 A. M. N. Niklasson, C. J. Tymczak, M. Challacombe.
 J. Chem. Phys. 118, 8611-8620 (2003).
 Trace resetting density matrix purification in O(N) self-consistent-field 
 theory.
 https://doi.org/10.1063/1.1559913

 C. Hartwigsen, S. Goedecker, J. Hutter.
 Phys. Rev. B 58, 3641-3662 (1998).
 Relativistic separable dual-space Gaussian pseudopotentials from H to Rn.
 https://doi.org/10.1103/PhysRevB.58.3641

 G. Lippert, J. Hutter, M. Parrinello.
 Mol. Phys. 92, 477-487 (1997).
 A hybrid Gaussian and plane wave density functional scheme.
 https://doi.org/10.1080/002689797170220

 S. Goedecker, M. Teter, J. Hutter.
 Phys. Rev. B 54, 1703-1710 (1996).
 Separable dual-space Gaussian pseudopotentials.
 https://doi.org/10.1103/PhysRevB.54.1703

 J. P. Perdew, K. Burke, M. Ernzerhof.
 Phys. Rev. Lett. 77, 3865-3868 (1996).
 Generalized gradient approximation made simple.
 https://doi.org/10.1103/PhysRevLett.77.3865


 -------------------------------------------------------------------------------
 -                                                                             -
 -                                T I M I N G                                  -
 -                                                                             -
 -------------------------------------------------------------------------------
 SUBROUTINE                       CALLS  ASD         SELF TIME        TOTAL TIME
                                MAXIMUM       AVERAGE  MAXIMUM  AVERAGE  MAXIMUM
 CP2K                                 1  1.0    0.013    0.017   20.488   20.489
 qs_energies                          1  2.0    0.000    0.000   20.320   20.321
 ls_scf                               1  3.0    0.000    0.000   19.253   19.254
 ls_scf_main                          1  4.0    0.000    0.000   16.694   16.694
 ls_scf_dm_to_ks                      8  5.0    0.000    0.000   12.384   12.388
 qs_ks_update_qs_env                  9  6.1    0.000    0.000    7.807    7.810
 rebuild_ks_matrix                    9  7.1    0.000    0.000    7.801    7.803
 qs_ks_build_kohn_sham_matrix         9  8.1    0.002    0.002    7.801    7.803
 qs_rho_update_rho_low                9  6.1    0.000    0.000    6.129    6.132
 calculate_rho_elec                   9  7.1    0.003    0.003    6.129    6.132
 sum_up_and_integrate                 9  9.1    0.000    0.000    5.898    5.901
 integrate_v_rspace                   9 10.1    0.000    0.000    5.890    5.892
 grid_collocate_task_list             9  8.1    5.437    5.540    5.437    5.540
 grid_integrate_task_list             9 11.1    5.195    5.288    5.195    5.288
 dbcsr_multiply_generic             246  6.2    0.012    0.013    4.655    4.661
 density_matrix_trs4                  8  5.0    0.004    0.006    4.305    4.307
 multiply_cannon                    246  7.2    0.018    0.022    3.801    3.888
 multiply_cannon_loop               246  8.2    0.020    0.021    3.725    3.767
 ls_scf_init_scf                      1  4.0    0.000    0.000    2.495    2.496
 multiply_cannon_multrec           1968  9.2    2.104    2.142    2.110    2.149
 mp_waitall_1                     16729 10.5    1.753    1.835    1.753    1.835
 fft_wrap_pw1pw2                    172 11.3    0.003    0.004    1.765    1.799
 fft_wrap_pw1pw2_200                100 12.8    0.102    0.112    1.693    1.750
 qs_vxc_create                        9  9.1    0.000    0.000    1.555    1.581
 xc_vxc_pw_create                     9 10.1    0.013    0.019    1.555    1.581
 ls_scf_initial_guess                 1  5.0    0.000    0.000    1.557    1.558
 ls_scf_qs_atomic_guess               1  6.0    0.000    0.000    1.557    1.558
 multiply_cannon_metrocomm3        1968  9.2    0.005    0.006    1.377    1.456
 fft3d_ps                           172 13.3    0.719    0.817    1.330    1.367
 xc_pw_derive                        54 12.1    0.001    0.001    1.104    1.184
 qs_energies_init_hamiltonians        1  3.0    0.000    0.000    1.066    1.066
 ls_scf_init_matrix_S                 1  5.0    0.000    0.000    0.938    0.939
 matrix_sqrt_Newton_Schulz            1  6.0    0.001    0.001    0.915    0.915
 build_core_hamiltonian_matrix        1  4.0    0.000    0.000    0.718    0.878
 xc_rho_set_and_dset_create           9 11.1    0.019    0.026    0.783    0.802
 xc_pw_divergence                     9 11.1    0.000    0.000    0.739    0.781
 density_rs2pw                        9  8.1    0.000    0.001    0.659    0.746
 make_m2s                           492  7.2    0.005    0.007    0.676    0.687
 make_images                        492  8.2    0.039    0.040    0.666    0.677
 mp_waitany                        1406 12.5    0.524    0.660    0.524    0.660
 build_core_ppl                       1  5.0    0.491    0.629    0.491    0.629
 mp_alltoall_z22v                   172 15.3    0.436    0.613    0.436    0.613
 potential_pw2rs                      9 11.1    0.001    0.001    0.599    0.600
 transfer_rs2pw                      46  9.0    0.001    0.001    0.454    0.575
 arnoldi_extremal                     9  6.1    0.000    0.000    0.478    0.479
 arnoldi_normal_ev                    9  7.1    0.000    0.001    0.477    0.478
 transfer_rs2pw_200                  10  9.8    0.031    0.049    0.350    0.473
 build_subspace                      42  8.1    0.003    0.004    0.423    0.423
 qs_env_update_s_mstruct              1  4.0    0.000    0.000    0.329    0.414
 -------------------------------------------------------------------------------

 The number of warnings for this run is : 1
 
 -------------------------------------------------------------------------------
  **** **** ******  **  PROGRAM ENDED AT                 2024-09-23 17:41:02.090
 ***** ** ***  *** **   PROGRAM RAN ON                                    moritz
 **    ****   ******    PROGRAM RAN BY                                       ole
 ***** **    ** ** **   PROGRAM PROCESS ID                                157824
  **** **  *******  **  PROGRAM STOPPED IN /home/ole/git/pao_ml_equivar/64H2O_MD
                                           /Frame3200
