 DBCSR| CPU Multiplication driver                                           XSMM (U)
 DBCSR| Multrec recursion limit                                              512 (U)
 DBCSR| Multiplication stack size                                           1000 (D)
 DBCSR| Maximum elements for images                                    UNLIMITED (U)
 DBCSR| Multiplicative factor virtual images                                   1 (U)
 DBCSR| Use multiplication densification                                       T (D)
 DBCSR| Multiplication size stacks                                             3 (U)
 DBCSR| Use memory pool for CPU allocation                                     F (U)
 DBCSR| Number of 3D layers                                               SINGLE (U)
 DBCSR| Use MPI memory allocation                                              F (U)
 DBCSR| Use RMA algorithm                                                      F (U)
 DBCSR| Use Communication thread                                               T (U)
 DBCSR| Communication thread load                                             87 (D)
 DBCSR| MPI: My process id                                                     0
 DBCSR| MPI: Number of processes                                              32
 DBCSR| OMP: Current number of threads                                         1
 DBCSR| OMP: Max number of threads                                             1
 DBCSR| Split modifier for TAS multiplication algorithm                  1.0E+00 (U)


  **** **** ******  **  PROGRAM STARTED AT               2024-09-24 02:14:53.405
 ***** ** ***  *** **   PROGRAM STARTED ON                                moritz
 **    ****   ******    PROGRAM STARTED BY                                   ole
 ***** **    ** ** **   PROGRAM PROCESS ID                                166763
  **** **  *******  **  PROGRAM STARTED IN /home/ole/git/pao_ml_equivar/64H2O_MD
                                           /Frame3200

 CP2K| version string:                 CP2K version 2024.3 (Development Version)
 CP2K| source code revision number:                                  git:3f890bb
 CP2K| cp2kflags: omp libint fftw3 libxc libgrpp pexsi elpa parallel scalapack c
 CP2K|            osma quip deepmd xsmm plumed2 spglib libdftd4 sirius libvori l
 CP2K|            libbqb libvdwxc hdf5
 CP2K| is freely available from                            https://www.cp2k.org/
 CP2K| Program compiled at                          Mo 23 Sep 2024 17:17:04 CEST
 CP2K| Program compiled on                                                moritz
 CP2K| Program compiled for                                                local
 CP2K| Data directory path                               /home/ole/git/cp2k/data
 CP2K| Input file name                                           64H2O_pao44.inp

 GLOBAL| Force Environment number                                              1
 GLOBAL| Basis set file name                                        BASIS_MOLOPT
 GLOBAL| Potential file name                                      GTH_POTENTIALS
 GLOBAL| MM Potential file name                                     MM_POTENTIAL
 GLOBAL| Coordinate file name                                         coords.xyz
 GLOBAL| Method name                                                        CP2K
 GLOBAL| Project name                                                64H2O_pao44
 GLOBAL| Run type                                                         ENERGY
 GLOBAL| FFT library                                                       FFTW3
 GLOBAL| Diagonalization library                                            ELPA
 GLOBAL| DGEMM library                                                      BLAS
 GLOBAL| Minimum number of eigenvectors for ELPA usage                        16
 GLOBAL| Orthonormality check for eigenvectors                          DISABLED
 GLOBAL| Matrix multiplication library                                     COSMA
 GLOBAL| All-to-all communication in single precision                          F
 GLOBAL| FFTs using library dependent lengths                                  F
 GLOBAL| Grid backend                                                       AUTO
 GLOBAL| Global print level                                                  LOW
 GLOBAL| MPI I/O enabled                                                       T
 GLOBAL| Total number of message passing processes                            32
 GLOBAL| Number of threads for this process                                    1
 GLOBAL| This output is from process                                           0
 GLOBAL| Stack size for threads created by OpenMP (OMP_STACKSIZE)        default
 GLOBAL| CPU model name           AMD Ryzen Threadripper 3970X 32-Core Processor
 GLOBAL| CPUID                                                              1002

 MEMORY| system memory details [Kb]
 MEMORY|                        rank 0           min           max       average
 MEMORY| MemTotal            131752136     131752136     131752136     131752136
 MEMORY| MemFree             114342524     114342524     114342524     114342524
 MEMORY| Buffers               2005312       2005312       2005312       2005312
 MEMORY| Cached                8655900       8655900       8655904       8655901
 MEMORY| Slab                  1642760       1642760       1642760       1642760
 MEMORY| SReclaimable          1144252       1144252       1144252       1144252
 MEMORY| MemLikelyFree       126147988     126147988     126147992     126147989


 GENERATE|  Preliminary Number of Bonds generated:                             0
 GENERATE|  Achieved consistency in connectivity generation.

 *******************************************************************************
 *******************************************************************************
 **                                                                           **
 **     #####                         ##              ##                      **
 **    ##   ##            ##          ##              ##                      **
 **   ##     ##                       ##            ######                    **
 **   ##     ##  ##   ##  ##   #####  ##  ##   ####   ##    #####    #####    **
 **   ##     ##  ##   ##  ##  ##      ## ##   ##      ##   ##   ##  ##   ##   **
 **   ##  ## ##  ##   ##  ##  ##      ####     ###    ##   ######   ######    **
 **    ##  ###   ##   ##  ##  ##      ## ##      ##   ##   ##       ##        **
 **     #######   #####   ##   #####  ##  ##  ####    ##    #####   ##        **
 **           ##                                                    ##        **
 **                                                                           **
 **                                                ... make the atoms dance   **
 **                                                                           **
 **            Copyright (C) by CP2K developers group (2000-2024)             **
 **                      J. Chem. Phys. 152, 194103 (2020)                    **
 **                                                                           **
 *******************************************************************************


 TOTAL NUMBERS AND MAXIMUM NUMBERS

  Total number of            - Atomic kinds:                                   2
                             - Atoms:                                        192
                             - Shell sets:                                   192
                             - Shells:                                       704
                             - Primitive Cartesian functions:               1344
                             - Cartesian basis functions:                   1536
                             - Spherical basis functions:                   1472

  Maximum angular momentum of- Orbital basis functions:                        2
                             - Local part of the GTH pseudopotential:          2
                             - Non-local part of the GTH pseudopotential:      0

 ------------------------------ Linear scaling SCF -----------------------------
 eps_scf:                                                              0.100E-07
 eps_filter:                                                           0.100E-11
 mixing_fraction:                                                      0.450E+00
 max_scf:                                                                     25
 fixed chemical potential (mu)                                                 F
 has unit metric:                                                              F
 Computing inv(S):                                                             T
 Computing sqrt(S):                                                            T
 Computing S preconditioner                                                    F
 S sqrt method:                                                     NEWTONSCHULZ
 S sqrt order:                                                                 3
 Extrapolation order:                                                          1
 S preconditioner type                                                      NONE
 Polarized Atomic Orbitals (PAO)                                               T
 Purification method                                   Trace resetting 4th order
 Cluster type                                                             ATOMIC
 Computing Chebyshev                                                       FALSE
 Using PAO                                                                     T
 -------------------------------------------------------------------------------

 
 PAO|                                  EPS_PAO                           0.5E-06
 PAO|                                  MIXING                            0.5E+00
 PAO|                                  MAX_PAO                              1500
 PAO|                                  MAX_CYCLES                           1000
 PAO|                                  PARAMETERIZATION              EQUIVARIANT
 PAO|                                  PRECONDITION                            F
 PAO|                                  REGULARIZATION                    0.0E+00
 PAO|                                  EPS_PGF                           0.1E-09
 PAO|                                  PENALTY_DISTANCE                  0.1E+00
 PAO|                                  PENALTY_STRENGTH                  0.5E-02
 PAO|                                  LINPOT_PRECONDITION_DELTA         0.0E+00
 PAO|                                  LINPOT_INITGUESS_DELT             0.0E+00
 PAO|                                  LINPOT_REGULARIZATION_DELTA       0.0E+00
 PAO|                                  LINPOT_REGULARIZATION_STRENGTH    0.0E+00
 PAO|                                  OPTIMIZER                              CG
 PAO|                                  CG_INIT_STEPS                           2
 PAO|                                  CG_RESET_LIMIT                    0.1E+00
 PAO|                                  CHECK_UNITARY_TOL                -0.1E+01
 PAO|                                  CHECK_GRADIENT_TOL               -0.1E+01
 PAO|                                  NUM_GRADIENT_ORDER                      2
 PAO|                                  NUM_GRADIENT_EPS                  0.1E-07
 PAO|                                  PRINT%RESTART%WRITE_CYCLES            100
 PAO|                                  RESTART_FILE 
 PAO|                                  PREOPT_DM_FILE 64H2O_ref_LS_DM_SPIN_1_RESTART.dm
 PAO|                                  MACHINE_LEARNING%METHOD       GAUSSIAN_PR
 PAO|                                  MACHINE_LEARNING%PRIOR               ZERO
 PAO|                                  MACHINE_LEARNING%DESCRIPTOR     POTENTIAL
 PAO|                                  MACHINE_LEARNING%TOLERANCE        0.1E-01
 PAO|                                  MACHINE_LEARNING%GP_NOISE_VAR     0.1E+00
 PAO|                                  MACHINE_LEARNING%GP_SCALE         0.5E-01
 

 Calculating atomic Fock matrix for atomic kind: O

 Electronic structure
    Total number of core electrons                                          2.00
    Total number of valence electrons                                       6.00
    Total number of electrons                                               8.00
    Multiplicity                                                   not specified
    S   [  2.00] 2.00
    P      4.00


 *******************************************************************************
                  Iteration          Convergence                     Energy [au]
 *******************************************************************************
                          1        0.708315                     -15.576645311500
                          2        0.608879                     -15.587933561584
                          3        0.102828E-01                 -15.656849565404
                          4        0.113889E-02                 -15.656866888140
                          5        0.434197E-03                 -15.656867072159
                          6        0.263771E-03                 -15.656867091904
                          7        0.478536E-06                 -15.656867103452

 Energy components [Hartree]           Total Energy ::          -15.656867103452
                                        Band Energy ::           -3.000198112285
                                     Kinetic Energy ::           11.759971203220
                                   Potential Energy ::          -27.416838306672
                                      Virial (-V/T) ::            2.331369510426
                                        Core Energy ::          -26.140716385623
                                          XC Energy ::           -3.154051012914
                                     Coulomb Energy ::           13.637900295084
                       Total Pseudopotential Energy ::          -37.935781716540
                       Local Pseudopotential Energy ::          -39.218907440693
                    Nonlocal Pseudopotential Energy ::            1.283125724153
                                        Confinement ::            0.350941276976

 Orbital energies  State     L     Occupation   Energy[a.u.]          Energy[eV]

                       1     0          2.000      -0.864471          -23.523463

                       1     1          4.000      -0.317814           -8.648154


 Total Electron Density at R=0:                                         0.000068

 Calculating atomic Fock matrix for atomic kind: H

 Electronic structure
    Total number of core electrons                                          0.00
    Total number of valence electrons                                       1.00
    Total number of electrons                                               1.00
    Multiplicity                                                   not specified
    S      1.00


 *******************************************************************************
                  Iteration          Convergence                     Energy [au]
 *******************************************************************************
                          1        0.437545E-02                  -0.424159432110
                          2        0.531356E-03                  -0.424178438213
                          3        0.259176E-06                  -0.424178722480

 Energy components [Hartree]           Total Energy ::           -0.424178722480
                                        Band Energy ::           -0.199015229016
                                     Kinetic Energy ::            0.464007633961
                                   Potential Energy ::           -0.888186356441
                                      Virial (-V/T) ::            1.914163240935
                                        Core Energy ::           -0.479160803564
                                          XC Energy ::           -0.244352904054
                                     Coulomb Energy ::            0.299334985138
                       Total Pseudopotential Energy ::           -0.962295316385
                       Local Pseudopotential Energy ::           -0.962295316385
                    Nonlocal Pseudopotential Energy ::            0.000000000000
                                        Confinement ::            0.191268788606

 Orbital energies  State     L     Occupation   Energy[a.u.]          Energy[eV]

                       1     0          1.000      -0.199015           -5.415480


 Total Electron Density at R=0:                                         0.242907
 PAO| Made initial guess for matrix_X with norm:   27.712812921102035     

     Lanczos converged:  F threshold:   0.100E-02
     Est. extremal eigenvalues:    0.631E+01   0.914E-01
     Est. condition number :    0.690E+02

 Order=           3
     NS sqrt iter    1 1.00000000   0.154E+01       0.021     2686.499
     NS sqrt iter    2 1.00000000   0.836E+00       0.034     3373.932
     NS sqrt iter    3 1.00000000   0.337E+00       0.033     3384.317
     NS sqrt iter    4 1.00000000   0.958E-01       0.034     3358.859
     NS sqrt iter    5 1.00000000   0.374E-02       0.034     3373.660
     NS sqrt iter    6 1.00000000   0.418E-06       0.029     2936.141
     Symmetrizing Results
     Final NS sqrt iter    6 1.00000000   0.263E-12

 PAO| Read restart DM 64H2O_ref_LS_DM_SPIN_1_RESTART.dm with checksum:    6211.7985889379452     
 PAO| Quickstep energy from restart density:  -1103.1193259426818     
 PAO| ======================= Iteration:         1 =============================

     Lanczos converged:  F threshold:   0.100E-02
     Est. extremal eigenvalues:    0.631E+01   0.914E-01
     Est. condition number :    0.690E+02

 Order=           3
     NS sqrt iter    1 1.00000000   0.154E+01       0.021     2703.601
     NS sqrt iter    2 1.00000000   0.836E+00       0.034     3360.543
     NS sqrt iter    3 1.00000000   0.337E+00       0.034     3360.327
     NS sqrt iter    4 1.00000000   0.958E-01       0.034     3347.017
     NS sqrt iter    5 1.00000000   0.374E-02       0.033     3380.521
     NS sqrt iter    6 1.00000000   0.418E-06       0.029     2952.293
     Symmetrizing Results
     Final NS sqrt iter    6 1.00000000   0.263E-12

     Est. extremal eigenvalues     -0.82631     2.65747  converged:  T
     TRS4 it   1 1.00000000   0.274E+02       0.007     2116.497   0.100E-11
     TRS4 it   2 1.00000000   0.238E+02       0.013     2219.113   0.100E-11
     TRS4 it   3 1.00000000   0.161E+02       0.013     2218.300   0.100E-11
     TRS4 it   4 1.00000000   0.100E+02       0.013     2205.023   0.100E-11
     TRS4 it   5 1.00000000   0.484E+01       0.013     2198.830   0.100E-11
     TRS4 it   6 1.00000000   0.162E+01       0.013     2213.819   0.100E-11
     TRS4 it   7 1.00000000   0.322E+00       0.013     2200.568   0.100E-11
     TRS4 it   8 1.00000000   0.227E-01       0.013     2212.521   0.100E-11
     TRS4 it   9 1.00000000   0.195E-03       0.013     2188.806   0.100E-11
     TRS4 it  10 1.00000000   0.193E-07       0.013     2183.385   0.100E-11
     TRS4 it  11 1.00000000   0.249E-13       0.013     2196.060   0.100E-11
     Final TRS4 iteration   11 1.00000000   0.249E-13
     Chemical potential (mu):       0.01230
 
 PAO| energy:  -186.53824287235986      penalty:   1.4575437819122600E-031
 PAO|CG| warming up with steepest descent
 PAO|CG| beta:    0.0000000000000000     
 PAO| norm of gradient:   3.9763756263761696     
 PAO|LS| adapt:  T F F
 PAO|LS| adapt: scan_steps:    0.0000000000000000        0.0000000000000000        0.0000000000000000     
 PAO|LS| adapt: energies:   -186.53824287235986        0.0000000000000000        0.0000000000000000     
 PAO| ======================= Iteration:         2 =============================

     Lanczos converged:  F threshold:   0.100E-02
     Est. extremal eigenvalues:    0.608E+01   0.980E-01
     Est. condition number :    0.621E+02

 Order=           3
     NS sqrt iter    1 1.00000000   0.150E+01       0.021     2695.313
     NS sqrt iter    2 1.00000000   0.806E+00       0.033     3387.620
     NS sqrt iter    3 1.00000000   0.316E+00       0.034     3377.143
     NS sqrt iter    4 1.00000000   0.807E-01       0.033     3400.737
     NS sqrt iter    5 1.00000000   0.234E-02       0.033     3392.190
     NS sqrt iter    6 1.00000000   0.121E-06       0.029     2933.175
     Symmetrizing Results
     Final NS sqrt iter    6 1.00000000   0.382E-13

     Est. extremal eigenvalues     -0.82963     2.65369  converged:  T
     TRS4 it   1 1.00000000   0.276E+02       0.007     2139.517   0.100E-11
     TRS4 it   2 1.00000000   0.238E+02       0.013     2227.207   0.100E-11
     TRS4 it   3 1.00000000   0.160E+02       0.013     2207.159   0.100E-11
     TRS4 it   4 1.00000000   0.984E+01       0.013     2198.421   0.100E-11
     TRS4 it   5 1.00000000   0.463E+01       0.013     2214.456   0.100E-11
     TRS4 it   6 1.00000000   0.149E+01       0.013     2212.034   0.100E-11
     TRS4 it   7 1.00000000   0.275E+00       0.013     2211.909   0.100E-11
     TRS4 it   8 1.00000000   0.162E-01       0.013     2226.244   0.100E-11
     TRS4 it   9 1.00000000   0.907E-04       0.013     2197.622   0.100E-11
     TRS4 it  10 1.00000000   0.473E-08       0.013     2226.091   0.100E-11
     TRS4 it  11 1.00000000   0.355E-14       0.013     2210.950   0.100E-11
     Final TRS4 iteration   11 1.00000000   0.355E-14
     Chemical potential (mu):       0.01826
 
 PAO| energy:  -187.99026151479273      penalty:   4.7047051913940413E-007
 PAO|LS| adapt:  T T F
 PAO|LS| adapt: scan_steps:    0.0000000000000000       0.10000000000000001        0.0000000000000000     
 PAO|LS| adapt: energies:   -186.53824287235986       -187.99026151479273        0.0000000000000000     
 PAO| ======================= Iteration:         3 =============================

     Lanczos converged:  F threshold:   0.100E-02
     Est. extremal eigenvalues:    0.586E+01   0.104E+00
     Est. condition number :    0.565E+02

 Order=           3
     NS sqrt iter    1 1.00000000   0.145E+01       0.021     2702.203
     NS sqrt iter    2 1.00000000   0.776E+00       0.034     3379.072
     NS sqrt iter    3 1.00000000   0.296E+00       0.033     3387.830
     NS sqrt iter    4 1.00000000   0.678E-01       0.033     3397.652
     NS sqrt iter    5 1.00000000   0.149E-02       0.033     3380.806
     NS sqrt iter    6 1.00000000   0.375E-07       0.029     2940.567
     Symmetrizing Results
     Final NS sqrt iter    6 1.00000000   0.457E-14

     Est. extremal eigenvalues     -0.83278     2.65098  converged:  T
     TRS4 it   1 1.00000000   0.279E+02       0.007     2159.286   0.100E-11
     TRS4 it   2 1.00000000   0.238E+02       0.013     2227.730   0.100E-11
     TRS4 it   3 1.00000000   0.159E+02       0.013     2213.758   0.100E-11
     TRS4 it   4 1.00000000   0.966E+01       0.013     2214.019   0.100E-11
     TRS4 it   5 1.00000000   0.443E+01       0.013     2232.575   0.100E-11
     TRS4 it   6 1.00000000   0.136E+01       0.013     2205.749   0.100E-11
     TRS4 it   7 1.00000000   0.233E+00       0.013     2216.871   0.100E-11
     TRS4 it   8 1.00000000   0.112E-01       0.013     2209.136   0.100E-11
     TRS4 it   9 1.00000000   0.392E-04       0.013     2205.196   0.100E-11
     TRS4 it  10 1.00000000   0.102E-08       0.013     2213.700   0.100E-11
     TRS4 it  11 1.00000000   0.533E-14       0.013     2225.788   0.100E-11
     Final TRS4 iteration   11 1.00000000   0.533E-14
     Chemical potential (mu):       0.02513
 
 PAO| energy:  -189.16778572216290      penalty:   7.5275283062842680E-006
 PAO|LS| adapt:  T T F
 PAO|LS| adapt: scan_steps:    0.0000000000000000       0.20000000000000001        0.0000000000000000     
 PAO|LS| adapt: energies:   -186.53824287235986       -189.16778572216290        0.0000000000000000     
 PAO| ======================= Iteration:         4 =============================

     Lanczos converged:  F threshold:   0.100E-02
     Est. extremal eigenvalues:    0.543E+01   0.114E+00
     Est. condition number :    0.479E+02

 Order=           3
     NS sqrt iter    1 1.00000000   0.137E+01       0.021     2693.992
     NS sqrt iter    2 1.00000000   0.719E+00       0.033     3408.523
     NS sqrt iter    3 1.00000000   0.257E+00       0.034     3370.214
     NS sqrt iter    4 1.00000000   0.478E-01       0.034     3352.005
     NS sqrt iter    5 1.00000000   0.620E-03       0.033     3393.273
     NS sqrt iter    6 1.00000000   0.369E-08       0.029     2881.343
     Symmetrizing Results
     Final NS sqrt iter    6 1.00000000   0.112E-13

     Est. extremal eigenvalues     -0.83800     2.64850  converged:  T
     TRS4 it   1 1.00000000   0.283E+02       0.007     2121.907   0.100E-11
     TRS4 it   2 1.00000000   0.238E+02       0.013     2204.465   0.100E-11
     TRS4 it   3 1.00000000   0.157E+02       0.013     2205.573   0.100E-11
     TRS4 it   4 1.00000000   0.934E+01       0.013     2221.181   0.100E-11
     TRS4 it   5 1.00000000   0.408E+01       0.013     2189.887   0.100E-11
     TRS4 it   6 1.00000000   0.115E+01       0.013     2203.985   0.100E-11
     TRS4 it   7 1.00000000   0.166E+00       0.013     2220.231   0.100E-11
     TRS4 it   8 1.00000000   0.523E-02       0.013     2201.594   0.100E-11
     TRS4 it   9 1.00000000   0.697E-05       0.013     2213.127   0.100E-11
     TRS4 it  10 1.00000000   0.364E-10       0.013     2205.614   0.100E-11
     Final TRS4 iteration   10 1.00000000   0.364E-10
     Chemical potential (mu):       0.04362
 
 PAO| energy:  -190.65769348624841      penalty:   1.2044045290097762E-004
 PAO|LS| Need extra step
 PAO|LS| adapt:  T T F
 PAO|LS| adapt: scan_steps:    0.0000000000000000       0.40000000000000002        0.0000000000000000     
 PAO|LS| adapt: energies:   -186.53824287235986       -190.65769348624841        0.0000000000000000     
 PAO| ======================= Iteration:         5 =============================

     Lanczos converged:  T threshold:   0.100E-02
     Est. extremal eigenvalues:    0.477E+01   0.128E+00
     Est. condition number :    0.373E+02

 Order=           3
     NS sqrt iter    1 1.00000000   0.124E+01       0.021     2706.259
     NS sqrt iter    2 1.00000000   0.629E+00       0.033     3382.497
     NS sqrt iter    3 1.00000000   0.200E+00       0.034     3350.731
     NS sqrt iter    4 1.00000000   0.255E-01       0.034     3374.031
     NS sqrt iter    5 1.00000000   0.125E-03       0.033     3393.293
     NS sqrt iter    6 1.00000000   0.444E-10       0.021     2354.959
     Symmetrizing Results
     Final NS sqrt iter    6 1.00000000   0.214E-11

     Est. extremal eigenvalues     -0.84145     2.64607  converged:  T
     TRS4 it   1 1.00000000   0.289E+02       0.007     2165.958   0.100E-11
     TRS4 it   2 1.00000000   0.238E+02       0.013     2196.753   0.100E-11
     TRS4 it   3 1.00000000   0.155E+02       0.013     2210.450   0.100E-11
     TRS4 it   4 1.00000000   0.886E+01       0.013     2211.350   0.100E-11
     TRS4 it   5 1.00000000   0.357E+01       0.013     2214.005   0.100E-11
     TRS4 it   6 1.00000000   0.859E+00       0.013     2233.707   0.100E-11
     TRS4 it   7 1.00000000   0.914E-01       0.013     2223.086   0.100E-11
     TRS4 it   8 1.00000000   0.147E-02       0.013     2204.775   0.100E-11
     TRS4 it   9 1.00000000   0.549E-06       0.013     2208.622   0.100E-11
     TRS4 it  10 1.00000000   0.295E-12       0.013     2224.959   0.100E-11
     Final TRS4 iteration   10 1.00000000   0.295E-12
     Chemical potential (mu):       0.06642
 
 PAO| energy:  -190.30420645448783      penalty:   1.9270472464190675E-003
 PAO|LS| Need extra step
 PAO|LS| adapt:  T T T
 PAO|LS| adapt: scan_steps:    0.0000000000000000       0.40000000000000002       0.80000000000000004     
 PAO|LS| adapt: energies:   -186.53824287235986       -190.65769348624841       -190.30420645448783     
 PAO|LS| adapt: suggested step_size:   0.56838882544187319     
 PAO|LS| adapt: predicted energy  -191.05403485140553     
 PAO| ======================= Iteration:         6 =============================

     Lanczos converged:  F threshold:   0.100E-02
     Est. extremal eigenvalues:    0.512E+01   0.120E+00
     Est. condition number :    0.427E+02

 Order=           3
     NS sqrt iter    1 1.00000000   0.130E+01       0.021     2668.130
     NS sqrt iter    2 1.00000000   0.676E+00       0.033     3392.782
     NS sqrt iter    3 1.00000000   0.230E+00       0.034     3378.726
     NS sqrt iter    4 1.00000000   0.361E-01       0.034     3365.606
     NS sqrt iter    5 1.00000000   0.306E-03       0.033     3392.897
     NS sqrt iter    6 1.00000000   0.538E-09       0.028     2753.874
     Symmetrizing Results
     Final NS sqrt iter    6 1.00000000   0.157E-12

     Est. extremal eigenvalues     -0.84075     2.64768  converged:  T
     TRS4 it   1 1.00000000   0.286E+02       0.007     2140.187   0.100E-11
     TRS4 it   2 1.00000000   0.238E+02       0.013     2198.367   0.100E-11
     TRS4 it   3 1.00000000   0.156E+02       0.013     2209.253   0.100E-11
     TRS4 it   4 1.00000000   0.911E+01       0.013     2228.692   0.100E-11
     TRS4 it   5 1.00000000   0.383E+01       0.013     2186.247   0.100E-11
     TRS4 it   6 1.00000000   0.100E+01       0.013     2209.834   0.100E-11
     TRS4 it   7 1.00000000   0.126E+00       0.013     2241.622   0.100E-11
     TRS4 it   8 1.00000000   0.287E-02       0.013     2218.900   0.100E-11
     TRS4 it   9 1.00000000   0.200E-05       0.013     2216.940   0.100E-11
     TRS4 it  10 1.00000000   0.314E-11       0.013     2216.664   0.100E-11
     Final TRS4 iteration   10 1.00000000   0.314E-11
     Chemical potential (mu):       0.05455
 
 PAO| energy:  -191.02729255916930      penalty:   4.9103736318007742E-004
 PAO|CG| warming up with steepest descent
 PAO|CG| beta:    0.0000000000000000     
 PAO| norm of gradient:   2.1082282914388348     
 PAO| energy improvement:  -4.4890496868094374     
 PAO| step      6                 -191.027292559  0.412E-02  0.568E+00     2.512
 PAO|LS| adapt:  T F F
 PAO|LS| adapt: scan_steps:    0.0000000000000000        0.0000000000000000        0.0000000000000000     
 PAO|LS| adapt: energies:   -191.02729255916930        0.0000000000000000        0.0000000000000000     
 PAO| ======================= Iteration:         7 =============================

     Lanczos converged:  F threshold:   0.100E-02
     Est. extremal eigenvalues:    0.496E+01   0.128E+00
     Est. condition number :    0.388E+02

 Order=           3
     NS sqrt iter    1 1.00000000   0.127E+01       0.021     2734.250
     NS sqrt iter    2 1.00000000   0.651E+00       0.033     3388.733
     NS sqrt iter    3 1.00000000   0.213E+00       0.034     3362.746
     NS sqrt iter    4 1.00000000   0.292E-01       0.034     3357.784
     NS sqrt iter    5 1.00000000   0.171E-03       0.033     3384.972
     NS sqrt iter    6 1.00000000   0.980E-10       0.025     2497.952
     Symmetrizing Results
     Final NS sqrt iter    6 1.00000000   0.167E-11

     Est. extremal eigenvalues     -0.84130     2.63294  converged:  T
     TRS4 it   1 1.00000000   0.286E+02       0.007     2125.355   0.100E-11
     TRS4 it   2 1.00000000   0.238E+02       0.013     2183.993   0.100E-11
     TRS4 it   3 1.00000000   0.157E+02       0.013     2224.612   0.100E-11
     TRS4 it   4 1.00000000   0.923E+01       0.013     2233.177   0.100E-11
     TRS4 it   5 1.00000000   0.393E+01       0.013     2221.982   0.100E-11
     TRS4 it   6 1.00000000   0.103E+01       0.013     2204.354   0.100E-11
     TRS4 it   7 1.00000000   0.129E+00       0.013     2220.384   0.100E-11
     TRS4 it   8 1.00000000   0.295E-02       0.013     2215.114   0.100E-11
     TRS4 it   9 1.00000000   0.229E-05       0.013     2135.432   0.100E-11
     TRS4 it  10 1.00000000   0.556E-11       0.013     2210.976   0.100E-11
     Final TRS4 iteration   10 1.00000000   0.556E-11
     Chemical potential (mu):       0.05762
 
 PAO| energy:  -190.09000411375817      penalty:   6.9442862911635143E-004
 PAO|LS| adapt:  T F T
 PAO|LS| adapt: scan_steps:    0.0000000000000000        0.0000000000000000       0.56838882544187319     
 PAO|LS| adapt: energies:   -191.02729255916930        0.0000000000000000       -190.09000411375817     
 PAO| ======================= Iteration:         8 =============================

     Lanczos converged:  F threshold:   0.100E-02
     Est. extremal eigenvalues:    0.504E+01   0.124E+00
     Est. condition number :    0.407E+02

 Order=           3
     NS sqrt iter    1 1.00000000   0.129E+01       0.021     2737.350
     NS sqrt iter    2 1.00000000   0.663E+00       0.033     3392.670
     NS sqrt iter    3 1.00000000   0.221E+00       0.033     3388.032
     NS sqrt iter    4 1.00000000   0.325E-01       0.033     3395.651
     NS sqrt iter    5 1.00000000   0.230E-03       0.034     3378.500
     NS sqrt iter    6 1.00000000   0.233E-09       0.027     2637.943
     Symmetrizing Results
     Final NS sqrt iter    6 1.00000000   0.774E-12

     Est. extremal eigenvalues     -0.84214     2.64011  converged:  T
     TRS4 it   1 1.00000000   0.286E+02       0.007     2125.567   0.100E-11
     TRS4 it   2 1.00000000   0.238E+02       0.013     2197.705   0.100E-11
     TRS4 it   3 1.00000000   0.156E+02       0.013     2202.939   0.100E-11
     TRS4 it   4 1.00000000   0.914E+01       0.013     2205.467   0.100E-11
     TRS4 it   5 1.00000000   0.386E+01       0.013     2194.299   0.100E-11
     TRS4 it   6 1.00000000   0.101E+01       0.013     2210.328   0.100E-11
     TRS4 it   7 1.00000000   0.126E+00       0.013     2195.416   0.100E-11
     TRS4 it   8 1.00000000   0.287E-02       0.013     2221.637   0.100E-11
     TRS4 it   9 1.00000000   0.204E-05       0.013     2214.230   0.100E-11
     TRS4 it  10 1.00000000   0.331E-11       0.013     2215.720   0.100E-11
     Final TRS4 iteration   10 1.00000000   0.331E-11
     Chemical potential (mu):       0.05450
 
 PAO| energy:  -191.41042504053212      penalty:   5.2128370450821120E-004
 PAO|LS| adapt:  T T T
 PAO|LS| adapt: scan_steps:    0.0000000000000000       0.28419441272093660       0.56838882544187319     
 PAO|LS| adapt: energies:   -191.02729255916930       -191.41042504053212       -190.09000411375817     
 PAO|LS| adapt: suggested step_size:   0.20601308361747322     
 PAO|LS| adapt: predicted energy  -191.47488659671998     
 PAO| ======================= Iteration:         9 =============================

     Lanczos converged:  F threshold:   0.100E-02
     Est. extremal eigenvalues:    0.506E+01   0.123E+00
     Est. condition number :    0.412E+02

 Order=           3
     NS sqrt iter    1 1.00000000   0.129E+01       0.021     2714.644
     NS sqrt iter    2 1.00000000   0.667E+00       0.034     3362.680
     NS sqrt iter    3 1.00000000   0.224E+00       0.034     3370.527
     NS sqrt iter    4 1.00000000   0.335E-01       0.034     3373.418
     NS sqrt iter    5 1.00000000   0.249E-03       0.033     3381.276
     NS sqrt iter    6 1.00000000   0.295E-09       0.028     2661.589
     Symmetrizing Results
     Final NS sqrt iter    6 1.00000000   0.519E-12

     Est. extremal eigenvalues     -0.84199     2.64218  converged:  T
     TRS4 it   1 1.00000000   0.286E+02       0.007     2140.483   0.100E-11
     TRS4 it   2 1.00000000   0.238E+02       0.013     2215.215   0.100E-11
     TRS4 it   3 1.00000000   0.156E+02       0.013     2207.339   0.100E-11
     TRS4 it   4 1.00000000   0.912E+01       0.013     2212.592   0.100E-11
     TRS4 it   5 1.00000000   0.384E+01       0.013     2223.235   0.100E-11
     TRS4 it   6 1.00000000   0.101E+01       0.013     2208.601   0.100E-11
     TRS4 it   7 1.00000000   0.126E+00       0.013     2225.722   0.100E-11
     TRS4 it   8 1.00000000   0.287E-02       0.013     2220.458   0.100E-11
     TRS4 it   9 1.00000000   0.201E-05       0.013     2236.223   0.100E-11
     TRS4 it  10 1.00000000   0.314E-11       0.013     2205.517   0.100E-11
     Final TRS4 iteration   10 1.00000000   0.314E-11
     Chemical potential (mu):       0.05421
 
 PAO| energy:  -191.47940295502471      penalty:   5.0344282208508338E-004
 PAO|CG| trace_G_new   0.73585514734240476     
 PAO|CG| trace_G_prev    4.4446265288231093     
 PAO|CG| trace_G_mix   -4.3985494445549035E-002
 PAO|CG| trace_D    4.4446265288231093     
 PAO|CG| trace_D_Gnew   4.3985494445549035E-002
 PAO|CG| beta:   0.17545695610885162     
 PAO| norm of gradient:  0.85781999705206502     
 PAO| energy improvement: -0.45211039585541357     
 PAO| step      9                 -191.479402955  0.168E-02  0.206E+00     1.537
 PAO|LS| adapt:  T F F
 PAO|LS| adapt: scan_steps:    0.0000000000000000        0.0000000000000000        0.0000000000000000     
 PAO|LS| adapt: energies:   -191.47940295502471        0.0000000000000000        0.0000000000000000     
 PAO| ======================= Iteration:        10 =============================

     Lanczos converged:  F threshold:   0.100E-02
     Est. extremal eigenvalues:    0.501E+01   0.126E+00
     Est. condition number :    0.397E+02

 Order=           3
     NS sqrt iter    1 1.00000000   0.128E+01       0.021     2706.110
     NS sqrt iter    2 1.00000000   0.658E+00       0.033     3386.121
     NS sqrt iter    3 1.00000000   0.218E+00       0.034     3365.426
     NS sqrt iter    4 1.00000000   0.311E-01       0.033     3382.090
     NS sqrt iter    5 1.00000000   0.201E-03       0.033     3382.979
     NS sqrt iter    6 1.00000000   0.153E-09       0.026     2570.719
     Symmetrizing Results
     Final NS sqrt iter    6 1.00000000   0.132E-11

     Est. extremal eigenvalues     -0.84257     2.62772  converged:  T
     TRS4 it   1 1.00000000   0.286E+02       0.007     2113.765   0.100E-11
     TRS4 it   2 1.00000000   0.237E+02       0.013     2221.439   0.100E-11
     TRS4 it   3 1.00000000   0.156E+02       0.013     2197.270   0.100E-11
     TRS4 it   4 1.00000000   0.910E+01       0.013     2200.049   0.100E-11
     TRS4 it   5 1.00000000   0.382E+01       0.013     2182.088   0.100E-11
     TRS4 it   6 1.00000000   0.994E+00       0.013     2193.991   0.100E-11
     TRS4 it   7 1.00000000   0.123E+00       0.013     2210.292   0.100E-11
     TRS4 it   8 1.00000000   0.271E-02       0.013     2227.023   0.100E-11
     TRS4 it   9 1.00000000   0.181E-05       0.013     2215.908   0.100E-11
     TRS4 it  10 1.00000000   0.260E-11       0.013     2183.497   0.100E-11
     Final TRS4 iteration   10 1.00000000   0.260E-11
     Chemical potential (mu):       0.05501
 
 PAO| energy:  -191.58071423103101      penalty:   5.0600106789353114E-004
 PAO|LS| adapt:  T T F
 PAO|LS| adapt: scan_steps:    0.0000000000000000       0.20601308361747322        0.0000000000000000     
 PAO|LS| adapt: energies:   -191.47940295502471       -191.58071423103101        0.0000000000000000     
 PAO| ======================= Iteration:        11 =============================

     Lanczos converged:  F threshold:   0.100E-02
     Est. extremal eigenvalues:    0.496E+01   0.130E+00
     Est. condition number :    0.382E+02

 Order=           3
     NS sqrt iter    1 1.00000000   0.127E+01       0.021     2705.988
     NS sqrt iter    2 1.00000000   0.650E+00       0.034     3371.211
     NS sqrt iter    3 1.00000000   0.212E+00       0.034     3348.358
     NS sqrt iter    4 1.00000000   0.290E-01       0.033     3381.476
     NS sqrt iter    5 1.00000000   0.162E-03       0.034     3367.971
     NS sqrt iter    6 1.00000000   0.784E-10       0.024     2430.319
     Symmetrizing Results
     Final NS sqrt iter    6 1.00000000   0.195E-11

     Est. extremal eigenvalues     -0.84265     2.61414  converged:  T
     TRS4 it   1 1.00000000   0.285E+02       0.007     2144.179   0.100E-11
     TRS4 it   2 1.00000000   0.236E+02       0.013     2209.107   0.100E-11
     TRS4 it   3 1.00000000   0.156E+02       0.013     2210.680   0.100E-11
     TRS4 it   4 1.00000000   0.908E+01       0.013     2199.461   0.100E-11
     TRS4 it   5 1.00000000   0.380E+01       0.013     2217.014   0.100E-11
     TRS4 it   6 1.00000000   0.979E+00       0.013     2205.185   0.100E-11
     TRS4 it   7 1.00000000   0.119E+00       0.013     2215.599   0.100E-11
     TRS4 it   8 1.00000000   0.254E-02       0.013     2204.905   0.100E-11
     TRS4 it   9 1.00000000   0.161E-05       0.013     2191.590   0.100E-11
     TRS4 it  10 1.00000000   0.207E-11       0.013     2219.871   0.100E-11
     Final TRS4 iteration   10 1.00000000   0.207E-11
     Chemical potential (mu):       0.05588
 
 PAO| energy:  -191.58733819594488      penalty:   5.1875595978602429E-004
 PAO|LS| adapt:  T T F
 PAO|LS| adapt: scan_steps:    0.0000000000000000       0.41202616723494645        0.0000000000000000     
 PAO|LS| adapt: energies:   -191.47940295502471       -191.58733819594488        0.0000000000000000     
 PAO| ======================= Iteration:        12 =============================

     Lanczos converged:  F threshold:   0.100E-02
     Est. extremal eigenvalues:    0.486E+01   0.137E+00
     Est. condition number :    0.355E+02

 Order=           3
     NS sqrt iter    1 1.00000000   0.125E+01       0.021     2713.668
     NS sqrt iter    2 1.00000000   0.634E+00       0.034     3376.883
     NS sqrt iter    3 1.00000000   0.202E+00       0.033     3398.901
     NS sqrt iter    4 1.00000000   0.250E-01       0.034     3370.825
     NS sqrt iter    5 1.00000000   0.104E-03       0.033     3383.091
     NS sqrt iter    6 1.00000000   0.204E-10       0.017     2206.632
     Symmetrizing Results
     Final NS sqrt iter    6 1.00000000   0.204E-11

     Est. extremal eigenvalues     -0.84146     2.59167  converged:  T
     TRS4 it   1 1.00000000   0.285E+02       0.007     2137.072   0.100E-11
     TRS4 it   2 1.00000000   0.235E+02       0.013     2232.918   0.100E-11
     TRS4 it   3 1.00000000   0.155E+02       0.013     2206.165   0.100E-11
     TRS4 it   4 1.00000000   0.901E+01       0.013     2203.557   0.100E-11
     TRS4 it   5 1.00000000   0.373E+01       0.013     2212.569   0.100E-11
     TRS4 it   6 1.00000000   0.945E+00       0.013     2198.538   0.100E-11
     TRS4 it   7 1.00000000   0.110E+00       0.013     2220.282   0.100E-11
     TRS4 it   8 1.00000000   0.219E-02       0.013     2218.990   0.100E-11
     TRS4 it   9 1.00000000   0.123E-05       0.013     2194.138   0.100E-11
     TRS4 it  10 1.00000000   0.126E-11       0.013     2192.292   0.100E-11
     Final TRS4 iteration   10 1.00000000   0.126E-11
     Chemical potential (mu):       0.05781
 
 PAO| energy:  -191.33362896631272      penalty:   5.8224980746802892E-004
 PAO|LS| Need extra step
 PAO|LS| adapt:  T T T
 PAO|LS| adapt: scan_steps:    0.0000000000000000       0.41202616723494645       0.82405233446989290     
 PAO|LS| adapt: energies:   -191.47940295502471       -191.58733819594488       -191.33362896631272     
 PAO|LS| adapt: suggested step_size:   0.32898508304552093     
 PAO|LS| adapt: predicted energy  -191.59468313604327     
 PAO| ======================= Iteration:        13 =============================

     Lanczos converged:  F threshold:   0.100E-02
     Est. extremal eigenvalues:    0.498E+01   0.128E+00
     Est. condition number :    0.388E+02

 Order=           3
     NS sqrt iter    1 1.00000000   0.128E+01       0.021     2697.817
     NS sqrt iter    2 1.00000000   0.653E+00       0.034     3370.764
     NS sqrt iter    3 1.00000000   0.215E+00       0.034     3351.215
     NS sqrt iter    4 1.00000000   0.298E-01       0.034     3340.955
     NS sqrt iter    5 1.00000000   0.176E-03       0.034     3371.514
     NS sqrt iter    6 1.00000000   0.103E-09       0.025     2481.051
     Symmetrizing Results
     Final NS sqrt iter    6 1.00000000   0.170E-11

     Est. extremal eigenvalues     -0.84268     2.61946  converged:  T
     TRS4 it   1 1.00000000   0.285E+02       0.007     2156.501   0.100E-11
     TRS4 it   2 1.00000000   0.236E+02       0.013     2194.015   0.100E-11
     TRS4 it   3 1.00000000   0.156E+02       0.013     2185.377   0.100E-11
     TRS4 it   4 1.00000000   0.909E+01       0.013     2209.714   0.100E-11
     TRS4 it   5 1.00000000   0.381E+01       0.013     2206.129   0.100E-11
     TRS4 it   6 1.00000000   0.985E+00       0.013     2229.678   0.100E-11
     TRS4 it   7 1.00000000   0.120E+00       0.013     2219.482   0.100E-11
     TRS4 it   8 1.00000000   0.261E-02       0.013     2214.973   0.100E-11
     TRS4 it   9 1.00000000   0.169E-05       0.013     2227.410   0.100E-11
     TRS4 it  10 1.00000000   0.226E-11       0.013     2228.507   0.100E-11
     Final TRS4 iteration   10 1.00000000   0.226E-11
     Chemical potential (mu):       0.05552
 
 PAO| energy:  -191.59579287236645      penalty:   5.1230269190003625E-004
 PAO|CG| trace_G_new   0.28188142972015484     
 PAO|CG| trace_G_prev   0.73585514734240476     
 PAO|CG| trace_G_mix   -1.2395554039570662E-002
 PAO|CG| trace_D   0.85724849066377473     
 PAO|CG| trace_D_Gnew   1.2176566595664344E-002
 PAO|CG| beta:   0.39991156523471849     
 PAO| norm of gradient:  0.53092506977930021     
 PAO| energy improvement: -0.11638991734173487     
 PAO| step     13                 -191.595792872  0.104E-02  0.329E+00     1.983
 PAO|LS| adapt:  T F F
 PAO|LS| adapt: scan_steps:    0.0000000000000000        0.0000000000000000        0.0000000000000000     
 PAO|LS| adapt: energies:   -191.59579287236645        0.0000000000000000        0.0000000000000000     
 PAO| ======================= Iteration:        14 =============================

     Lanczos converged:  F threshold:   0.100E-02
     Est. extremal eigenvalues:    0.490E+01   0.131E+00
     Est. condition number :    0.375E+02

 Order=           3
     NS sqrt iter    1 1.00000000   0.126E+01       0.021     2720.837
     NS sqrt iter    2 1.00000000   0.642E+00       0.034     3370.782
     NS sqrt iter    3 1.00000000   0.208E+00       0.033     3382.003
     NS sqrt iter    4 1.00000000   0.276E-01       0.034     3362.342
     NS sqrt iter    5 1.00000000   0.142E-03       0.033     3381.670
     NS sqrt iter    6 1.00000000   0.538E-10       0.022     2349.830
     Symmetrizing Results
     Final NS sqrt iter    6 1.00000000   0.215E-11

     Est. extremal eigenvalues     -0.84326     2.61819  converged:  T
     TRS4 it   1 1.00000000   0.286E+02       0.007     2162.534   0.100E-11
     TRS4 it   2 1.00000000   0.236E+02       0.013     2167.117   0.100E-11
     TRS4 it   3 1.00000000   0.156E+02       0.013     2223.663   0.100E-11
     TRS4 it   4 1.00000000   0.904E+01       0.013     2230.622   0.100E-11
     TRS4 it   5 1.00000000   0.376E+01       0.013     2197.886   0.100E-11
     TRS4 it   6 1.00000000   0.957E+00       0.013     2227.397   0.100E-11
     TRS4 it   7 1.00000000   0.114E+00       0.013     2213.192   0.100E-11
     TRS4 it   8 1.00000000   0.232E-02       0.013     2204.377   0.100E-11
     TRS4 it   9 1.00000000   0.135E-05       0.013     2209.241   0.100E-11
     TRS4 it  10 1.00000000   0.148E-11       0.013     2197.023   0.100E-11
     Final TRS4 iteration   10 1.00000000   0.148E-11
     Chemical potential (mu):       0.05733
 
 PAO| energy:  -191.64881018655012      penalty:   5.1467745914918444E-004
 PAO|LS| adapt:  T T F
 PAO|LS| adapt: scan_steps:    0.0000000000000000       0.32898508304552093        0.0000000000000000     
 PAO|LS| adapt: energies:   -191.59579287236645       -191.64881018655012        0.0000000000000000     
 PAO| ======================= Iteration:        15 =============================

     Lanczos converged:  F threshold:   0.100E-02
     Est. extremal eigenvalues:    0.484E+01   0.133E+00
     Est. condition number :    0.364E+02

 Order=           3
     NS sqrt iter    1 1.00000000   0.125E+01       0.021     2705.652
     NS sqrt iter    2 1.00000000   0.632E+00       0.034     3367.135
     NS sqrt iter    3 1.00000000   0.202E+00       0.033     3393.410
     NS sqrt iter    4 1.00000000   0.255E-01       0.034     3376.137
     NS sqrt iter    5 1.00000000   0.114E-03       0.034     3376.184
     NS sqrt iter    6 1.00000000   0.287E-10       0.019     2230.334
     Symmetrizing Results
     Final NS sqrt iter    6 1.00000000   0.220E-11

     Est. extremal eigenvalues     -0.84340     2.61742  converged:  T
     TRS4 it   1 1.00000000   0.287E+02       0.007     2128.750   0.100E-11
     TRS4 it   2 1.00000000   0.236E+02       0.013     2168.071   0.100E-11
     TRS4 it   3 1.00000000   0.155E+02       0.013     2204.557   0.100E-11
     TRS4 it   4 1.00000000   0.899E+01       0.013     2220.385   0.100E-11
     TRS4 it   5 1.00000000   0.370E+01       0.013     2236.605   0.100E-11
     TRS4 it   6 1.00000000   0.930E+00       0.013     2203.023   0.100E-11
     TRS4 it   7 1.00000000   0.107E+00       0.013     2231.542   0.100E-11
     TRS4 it   8 1.00000000   0.207E-02       0.013     2201.402   0.100E-11
     TRS4 it   9 1.00000000   0.109E-05       0.013     2247.329   0.100E-11
     TRS4 it  10 1.00000000   0.963E-12       0.013     2216.904   0.100E-11
     Final TRS4 iteration   10 1.00000000   0.963E-12
     Chemical potential (mu):       0.05903
 
 PAO| energy:  -191.62673602097729      penalty:   5.3263581472390742E-004
 PAO|LS| adapt:  T T T
 PAO|LS| adapt: scan_steps:    0.0000000000000000       0.32898508304552093       0.65797016609104186     
 PAO|LS| adapt: energies:   -191.59579287236645       -191.64881018655012       -191.62673602097729     
 PAO|LS| adapt: suggested step_size:   0.39676796832383654     
 PAO|LS| adapt: predicted energy  -191.65040403988917     
 PAO| ======================= Iteration:        16 =============================

     Lanczos converged:  F threshold:   0.100E-02
     Est. extremal eigenvalues:    0.489E+01   0.131E+00
     Est. condition number :    0.373E+02

 Order=           3
     NS sqrt iter    1 1.00000000   0.126E+01       0.021     2706.965
     NS sqrt iter    2 1.00000000   0.640E+00       0.033     3390.897
     NS sqrt iter    3 1.00000000   0.207E+00       0.033     3381.949
     NS sqrt iter    4 1.00000000   0.271E-01       0.033     3390.670
     NS sqrt iter    5 1.00000000   0.135E-03       0.033     3387.519
     NS sqrt iter    6 1.00000000   0.472E-10       0.021     2348.321
     Symmetrizing Results
     Final NS sqrt iter    6 1.00000000   0.223E-11

     Est. extremal eigenvalues     -0.84333     2.61800  converged:  T
     TRS4 it   1 1.00000000   0.286E+02       0.007     2125.882   0.100E-11
     TRS4 it   2 1.00000000   0.236E+02       0.013     2197.313   0.100E-11
     TRS4 it   3 1.00000000   0.155E+02       0.013     2179.528   0.100E-11
     TRS4 it   4 1.00000000   0.903E+01       0.013     2232.610   0.100E-11
     TRS4 it   5 1.00000000   0.374E+01       0.013     2237.660   0.100E-11
     TRS4 it   6 1.00000000   0.952E+00       0.013     2201.096   0.100E-11
     TRS4 it   7 1.00000000   0.112E+00       0.013     2196.875   0.100E-11
     TRS4 it   8 1.00000000   0.227E-02       0.013     2234.605   0.100E-11
     TRS4 it   9 1.00000000   0.129E-05       0.013     2207.976   0.100E-11
     TRS4 it  10 1.00000000   0.131E-11       0.013     2199.828   0.100E-11
     Final TRS4 iteration   10 1.00000000   0.131E-11
     Chemical potential (mu):       0.05769
 
 PAO| energy:  -191.65034681436455      penalty:   5.1705156202903771E-004
 PAO|CG| trace_G_new   0.10929753317999630     
 PAO|CG| trace_G_prev   0.28188142972015484     
 PAO|CG| trace_G_mix    4.4635529069352205E-003
 PAO|CG| trace_D   0.40924144686248698     
 PAO|CG| trace_D_Gnew   7.7193223409321456E-004
 PAO|CG| beta:   0.37190807630406075     
 PAO| norm of gradient:  0.33060177431465232     
 PAO| energy improvement:  -5.4553941998108257E-002
 PAO| step     16                 -191.650346814  0.646E-03  0.397E+00     1.518
 PAO|LS| adapt:  T F F
 PAO|LS| adapt: scan_steps:    0.0000000000000000        0.0000000000000000        0.0000000000000000     
 PAO|LS| adapt: energies:   -191.65034681436455        0.0000000000000000        0.0000000000000000     
 PAO| ======================= Iteration:        17 =============================

     Lanczos converged:  F threshold:   0.100E-02
     Est. extremal eigenvalues:    0.485E+01   0.132E+00
     Est. condition number :    0.369E+02

 Order=           3
     NS sqrt iter    1 1.00000000   0.125E+01       0.021     2708.298
     NS sqrt iter    2 1.00000000   0.635E+00       0.034     3360.161
     NS sqrt iter    3 1.00000000   0.204E+00       0.033     3410.398
     NS sqrt iter    4 1.00000000   0.263E-01       0.034     3377.249
     NS sqrt iter    5 1.00000000   0.124E-03       0.034     3377.976
     NS sqrt iter    6 1.00000000   0.366E-10       0.020     2296.156
     Symmetrizing Results
     Final NS sqrt iter    6 1.00000000   0.220E-11

     Est. extremal eigenvalues     -0.84343     2.61856  converged:  T
     TRS4 it   1 1.00000000   0.287E+02       0.007     2133.717   0.100E-11
     TRS4 it   2 1.00000000   0.236E+02       0.013     2203.719   0.100E-11
     TRS4 it   3 1.00000000   0.155E+02       0.013     2201.887   0.100E-11
     TRS4 it   4 1.00000000   0.898E+01       0.013     2230.127   0.100E-11
     TRS4 it   5 1.00000000   0.370E+01       0.013     2204.366   0.100E-11
     TRS4 it   6 1.00000000   0.932E+00       0.013     2190.320   0.100E-11
     TRS4 it   7 1.00000000   0.108E+00       0.013     2206.006   0.100E-11
     TRS4 it   8 1.00000000   0.209E-02       0.013     2216.167   0.100E-11
     TRS4 it   9 1.00000000   0.111E-05       0.013     2218.144   0.100E-11
     TRS4 it  10 1.00000000   0.102E-11       0.013     2199.796   0.100E-11
     Final TRS4 iteration   10 1.00000000   0.102E-11
     Chemical potential (mu):       0.05882
 
 PAO| energy:  -191.65523981768723      penalty:   5.1025132936072313E-004
 PAO|LS| adapt:  T T F
 PAO|LS| adapt: scan_steps:    0.0000000000000000       0.39676796832383654        0.0000000000000000     
 PAO|LS| adapt: energies:   -191.65034681436455       -191.65523981768723        0.0000000000000000     
 PAO| ======================= Iteration:        18 =============================

     Lanczos converged:  F threshold:   0.100E-02
     Est. extremal eigenvalues:    0.481E+01   0.132E+00
     Est. condition number :    0.365E+02

 Order=           3
     NS sqrt iter    1 1.00000000   0.124E+01       0.021     2692.821
     NS sqrt iter    2 1.00000000   0.630E+00       0.034     3370.860
     NS sqrt iter    3 1.00000000   0.202E+00       0.034     3356.575
     NS sqrt iter    4 1.00000000   0.254E-01       0.034     3363.851
     NS sqrt iter    5 1.00000000   0.113E-03       0.033     3385.063
     NS sqrt iter    6 1.00000000   0.287E-10       0.018     2241.580
     Symmetrizing Results
     Final NS sqrt iter    6 1.00000000   0.218E-11

     Est. extremal eigenvalues     -0.84335     2.61920  converged:  T
     TRS4 it   1 1.00000000   0.287E+02       0.007     2124.679   0.100E-11
     TRS4 it   2 1.00000000   0.236E+02       0.013     2197.645   0.100E-11
     TRS4 it   3 1.00000000   0.155E+02       0.013     2207.496   0.100E-11
     TRS4 it   4 1.00000000   0.894E+01       0.013     2215.308   0.100E-11
     TRS4 it   5 1.00000000   0.366E+01       0.013     2215.328   0.100E-11
     TRS4 it   6 1.00000000   0.912E+00       0.013     2224.267   0.100E-11
     TRS4 it   7 1.00000000   0.104E+00       0.013     2217.792   0.100E-11
     TRS4 it   8 1.00000000   0.193E-02       0.013     2215.490   0.100E-11
     TRS4 it   9 1.00000000   0.955E-06       0.013     2212.846   0.100E-11
     TRS4 it  10 1.00000000   0.744E-12       0.013     2199.599   0.100E-11
     Final TRS4 iteration   10 1.00000000   0.744E-12
     Chemical potential (mu):       0.06002
 
 PAO| energy:  -191.58328483331937      penalty:   5.1178726405261450E-004
 PAO|LS| adapt:  T T T
 PAO|LS| adapt: scan_steps:    0.0000000000000000       0.39676796832383654       0.79353593664767308     
 PAO|LS| adapt: energies:   -191.65034681436455       -191.65523981768723       -191.58328483331937     
 PAO|LS| adapt: suggested step_size:   0.22364667542663361     
 PAO|LS| adapt: predicted energy  -191.66255508617516     
 PAO| ======================= Iteration:        19 =============================

     Lanczos converged:  F threshold:   0.100E-02
     Est. extremal eigenvalues:    0.487E+01   0.131E+00
     Est. condition number :    0.370E+02

 Order=           3
     NS sqrt iter    1 1.00000000   0.125E+01       0.021     2718.669
     NS sqrt iter    2 1.00000000   0.637E+00       0.033     3381.818
     NS sqrt iter    3 1.00000000   0.205E+00       0.033     3400.065
     NS sqrt iter    4 1.00000000   0.266E-01       0.034     3372.517
     NS sqrt iter    5 1.00000000   0.129E-03       0.033     3392.101
     NS sqrt iter    6 1.00000000   0.408E-10       0.020     2311.026
     Symmetrizing Results
     Final NS sqrt iter    6 1.00000000   0.222E-11

     Est. extremal eigenvalues     -0.84341     2.61831  converged:  T
     TRS4 it   1 1.00000000   0.286E+02       0.007     2152.668   0.100E-11
     TRS4 it   2 1.00000000   0.236E+02       0.013     2221.304   0.100E-11
     TRS4 it   3 1.00000000   0.155E+02       0.013     2210.320   0.100E-11
     TRS4 it   4 1.00000000   0.900E+01       0.013     2232.421   0.100E-11
     TRS4 it   5 1.00000000   0.372E+01       0.013     2228.303   0.100E-11
     TRS4 it   6 1.00000000   0.940E+00       0.013     2200.517   0.100E-11
     TRS4 it   7 1.00000000   0.110E+00       0.013     2214.323   0.100E-11
     TRS4 it   8 1.00000000   0.217E-02       0.013     2198.946   0.100E-11
     TRS4 it   9 1.00000000   0.118E-05       0.013     2203.797   0.100E-11
     TRS4 it  10 1.00000000   0.117E-11       0.013     2190.984   0.100E-11
     Final TRS4 iteration   10 1.00000000   0.117E-11
     Chemical potential (mu):       0.05832
 
 PAO| energy:  -191.66254536773786      penalty:   5.1221262546437447E-004
 PAO|CG| trace_G_new    2.2654582128312874E-002
 PAO|CG| trace_G_prev   0.10929753317999630     
 PAO|CG| trace_G_mix   -4.2695335666879334E-004
 PAO|CG| trace_D   0.16532784083042618     
 PAO|CG| trace_D_Gnew  -3.7748461878451493E-005
 PAO|CG| beta:   0.21118075416185206     
 PAO| norm of gradient:  0.15051439176475076     
 PAO| energy improvement:  -1.2198553373309551E-002
 PAO| step     19                 -191.662545368  0.294E-03  0.224E+00     1.517
 PAO|LS| adapt:  T F F
 PAO|LS| adapt: scan_steps:    0.0000000000000000        0.0000000000000000        0.0000000000000000     
 PAO|LS| adapt: energies:   -191.66254536773786        0.0000000000000000        0.0000000000000000     
 PAO| ======================= Iteration:        20 =============================

     Lanczos converged:  F threshold:   0.100E-02
     Est. extremal eigenvalues:    0.486E+01   0.131E+00
     Est. condition number :    0.370E+02

 Order=           3
     NS sqrt iter    1 1.00000000   0.125E+01       0.021     2719.066
     NS sqrt iter    2 1.00000000   0.637E+00       0.034     3372.570
     NS sqrt iter    3 1.00000000   0.205E+00       0.034     3376.531
     NS sqrt iter    4 1.00000000   0.266E-01       0.034     3367.031
     NS sqrt iter    5 1.00000000   0.128E-03       0.034     3374.814
     NS sqrt iter    6 1.00000000   0.404E-10       0.020     2305.468
     Symmetrizing Results
     Final NS sqrt iter    6 1.00000000   0.221E-11

     Est. extremal eigenvalues     -0.84343     2.61766  converged:  T
     TRS4 it   1 1.00000000   0.286E+02       0.007     2124.444   0.100E-11
     TRS4 it   2 1.00000000   0.236E+02       0.013     2204.354   0.100E-11
     TRS4 it   3 1.00000000   0.155E+02       0.013     2232.732   0.100E-11
     TRS4 it   4 1.00000000   0.899E+01       0.013     2214.230   0.100E-11
     TRS4 it   5 1.00000000   0.371E+01       0.013     2214.554   0.100E-11
     TRS4 it   6 1.00000000   0.936E+00       0.013     2202.467   0.100E-11
     TRS4 it   7 1.00000000   0.109E+00       0.013     2193.151   0.100E-11
     TRS4 it   8 1.00000000   0.213E-02       0.013     2205.127   0.100E-11
     TRS4 it   9 1.00000000   0.115E-05       0.013     2216.609   0.100E-11
     TRS4 it  10 1.00000000   0.108E-11       0.013     2211.220   0.100E-11
     Final TRS4 iteration   10 1.00000000   0.108E-11
     Chemical potential (mu):       0.05850
 
 PAO| energy:  -191.66662963727470      penalty:   5.0234296107649250E-004
 PAO|LS| adapt:  T T F
 PAO|LS| adapt: scan_steps:    0.0000000000000000       0.22364667542663361        0.0000000000000000     
 PAO|LS| adapt: energies:   -191.66254536773786       -191.66662963727470        0.0000000000000000     
 PAO| ======================= Iteration:        21 =============================

     Lanczos converged:  F threshold:   0.100E-02
     Est. extremal eigenvalues:    0.486E+01   0.131E+00
     Est. condition number :    0.370E+02

 Order=           3
     NS sqrt iter    1 1.00000000   0.125E+01       0.021     2705.421
     NS sqrt iter    2 1.00000000   0.636E+00       0.034     3367.746
     NS sqrt iter    3 1.00000000   0.205E+00       0.034     3369.280
     NS sqrt iter    4 1.00000000   0.266E-01       0.034     3372.335
     NS sqrt iter    5 1.00000000   0.128E-03       0.034     3373.185
     NS sqrt iter    6 1.00000000   0.401E-10       0.020     2287.487
     Symmetrizing Results
     Final NS sqrt iter    6 1.00000000   0.221E-11

     Est. extremal eigenvalues     -0.84344     2.61701  converged:  T
     TRS4 it   1 1.00000000   0.286E+02       0.007     2113.150   0.100E-11
     TRS4 it   2 1.00000000   0.236E+02       0.013     2195.484   0.100E-11
     TRS4 it   3 1.00000000   0.155E+02       0.013     2224.730   0.100E-11
     TRS4 it   4 1.00000000   0.898E+01       0.013     2170.412   0.100E-11
     TRS4 it   5 1.00000000   0.370E+01       0.013     2213.063   0.100E-11
     TRS4 it   6 1.00000000   0.932E+00       0.013     2211.751   0.100E-11
     TRS4 it   7 1.00000000   0.108E+00       0.013     2192.939   0.100E-11
     TRS4 it   8 1.00000000   0.210E-02       0.013     2209.616   0.100E-11
     TRS4 it   9 1.00000000   0.112E-05       0.013     2208.953   0.100E-11
     TRS4 it  10 1.00000000   0.106E-11       0.013     2217.610   0.100E-11
     Final TRS4 iteration   10 1.00000000   0.106E-11
     Chemical potential (mu):       0.05868
 
 PAO| energy:  -191.66873148073481      penalty:   4.9294877352718490E-004
 PAO|LS| adapt:  T T F
 PAO|LS| adapt: scan_steps:    0.0000000000000000       0.44729335085326721        0.0000000000000000     
 PAO|LS| adapt: energies:   -191.66254536773786       -191.66873148073481        0.0000000000000000     
 PAO| ======================= Iteration:        22 =============================

     Lanczos converged:  F threshold:   0.100E-02
     Est. extremal eigenvalues:    0.485E+01   0.131E+00
     Est. condition number :    0.370E+02

 Order=           3
     NS sqrt iter    1 1.00000000   0.125E+01       0.021     2686.997
     NS sqrt iter    2 1.00000000   0.635E+00       0.033     3398.005
     NS sqrt iter    3 1.00000000   0.205E+00       0.034     3370.860
     NS sqrt iter    4 1.00000000   0.266E-01       0.033     3392.705
     NS sqrt iter    5 1.00000000   0.127E-03       0.033     3385.402
     NS sqrt iter    6 1.00000000   0.395E-10       0.020     2286.065
     Symmetrizing Results
     Final NS sqrt iter    6 1.00000000   0.220E-11

     Est. extremal eigenvalues     -0.84345     2.61575  converged:  T
     TRS4 it   1 1.00000000   0.287E+02       0.007     2146.411   0.100E-11
     TRS4 it   2 1.00000000   0.236E+02       0.013     2234.926   0.100E-11
     TRS4 it   3 1.00000000   0.155E+02       0.013     2215.625   0.100E-11
     TRS4 it   4 1.00000000   0.896E+01       0.013     2205.970   0.100E-11
     TRS4 it   5 1.00000000   0.368E+01       0.013     2224.405   0.100E-11
     TRS4 it   6 1.00000000   0.924E+00       0.013     2211.129   0.100E-11
     TRS4 it   7 1.00000000   0.107E+00       0.013     2203.350   0.100E-11
     TRS4 it   8 1.00000000   0.204E-02       0.013     2220.586   0.100E-11
     TRS4 it   9 1.00000000   0.106E-05       0.013     2209.954   0.100E-11
     TRS4 it  10 1.00000000   0.913E-12       0.013     2209.085   0.100E-11
     Final TRS4 iteration   10 1.00000000   0.913E-12
     Chemical potential (mu):       0.05905
 
 PAO| energy:  -191.66690207871238      penalty:   4.7555693066637662E-004
 PAO|LS| Need extra step
 PAO|LS| adapt:  T T T
 PAO|LS| adapt: scan_steps:    0.0000000000000000       0.44729335085326721       0.89458670170653443     
 PAO|LS| adapt: energies:   -191.66254536773786       -191.66873148073481       -191.66690207871238     
 PAO|LS| adapt: suggested step_size:   0.56885309129314188     
 PAO|LS| adapt: predicted energy  -191.66902748371263     
 PAO| ======================= Iteration:        23 =============================

     Lanczos converged:  F threshold:   0.100E-02
     Est. extremal eigenvalues:    0.485E+01   0.131E+00
     Est. condition number :    0.370E+02

 Order=           3
     NS sqrt iter    1 1.00000000   0.125E+01       0.021     2722.836
     NS sqrt iter    2 1.00000000   0.636E+00       0.033     3390.218
     NS sqrt iter    3 1.00000000   0.205E+00       0.034     3369.165
     NS sqrt iter    4 1.00000000   0.266E-01       0.034     3354.255
     NS sqrt iter    5 1.00000000   0.128E-03       0.034     3359.028
     NS sqrt iter    6 1.00000000   0.399E-10       0.020     2284.821
     Symmetrizing Results
     Final NS sqrt iter    6 1.00000000   0.221E-11

     Est. extremal eigenvalues     -0.84345     2.61667  converged:  T
     TRS4 it   1 1.00000000   0.287E+02       0.007     2113.310   0.100E-11
     TRS4 it   2 1.00000000   0.236E+02       0.013     2194.900   0.100E-11
     TRS4 it   3 1.00000000   0.155E+02       0.013     2208.425   0.100E-11
     TRS4 it   4 1.00000000   0.897E+01       0.013     2213.283   0.100E-11
     TRS4 it   5 1.00000000   0.370E+01       0.013     2229.229   0.100E-11
     TRS4 it   6 1.00000000   0.930E+00       0.013     2210.418   0.100E-11
     TRS4 it   7 1.00000000   0.108E+00       0.013     2187.917   0.100E-11
     TRS4 it   8 1.00000000   0.208E-02       0.013     2217.607   0.100E-11
     TRS4 it   9 1.00000000   0.110E-05       0.013     2186.270   0.100E-11
     TRS4 it  10 1.00000000   0.104E-11       0.013     2207.719   0.100E-11
     Final TRS4 iteration   10 1.00000000   0.104E-11
     Chemical potential (mu):       0.05878
 
 PAO| energy:  -191.66903471071129      penalty:   4.8803926909025394E-004
 PAO|CG| trace_G_new    1.8738871343228523E-002
 PAO|CG| trace_G_prev    2.2654582128312874E-002
 PAO|CG| trace_G_mix    1.1243350224429316E-004
 PAO|CG| trace_D    3.0043702748239108E-002
 PAO|CG| trace_D_Gnew  -5.0048476156337740E-005
 PAO|CG| beta:   0.82219295573347095     
 PAO| norm of gradient:  0.13688999723584089     
 PAO| energy improvement:  -6.4893429734240726E-003
 PAO| step     23                 -191.669034711  0.267E-03  0.569E+00     1.970
 PAO|LS| adapt:  T F F
 PAO|LS| adapt: scan_steps:    0.0000000000000000        0.0000000000000000        0.0000000000000000     
 PAO|LS| adapt: energies:   -191.66903471071129        0.0000000000000000        0.0000000000000000     
 PAO| ======================= Iteration:        24 =============================

     Lanczos converged:  F threshold:   0.100E-02
     Est. extremal eigenvalues:    0.484E+01   0.131E+00
     Est. condition number :    0.370E+02

 Order=           3
     NS sqrt iter    1 1.00000000   0.125E+01       0.021     2720.144
     NS sqrt iter    2 1.00000000   0.634E+00       0.034     3367.540
     NS sqrt iter    3 1.00000000   0.205E+00       0.033     3384.358
     NS sqrt iter    4 1.00000000   0.266E-01       0.033     3406.347
     NS sqrt iter    5 1.00000000   0.128E-03       0.034     3378.033
     NS sqrt iter    6 1.00000000   0.398E-10       0.020     2296.274
     Symmetrizing Results
     Final NS sqrt iter    6 1.00000000   0.219E-11

     Est. extremal eigenvalues     -0.84346     2.61473  converged:  T
     TRS4 it   1 1.00000000   0.287E+02       0.007     2086.821   0.100E-11
     TRS4 it   2 1.00000000   0.236E+02       0.013     2218.511   0.100E-11
     TRS4 it   3 1.00000000   0.155E+02       0.013     2202.095   0.100E-11
     TRS4 it   4 1.00000000   0.895E+01       0.013     2226.103   0.100E-11
     TRS4 it   5 1.00000000   0.367E+01       0.013     2215.344   0.100E-11
     TRS4 it   6 1.00000000   0.921E+00       0.013     2198.358   0.100E-11
     TRS4 it   7 1.00000000   0.106E+00       0.013     2197.057   0.100E-11
     TRS4 it   8 1.00000000   0.202E-02       0.013     2202.356   0.100E-11
     TRS4 it   9 1.00000000   0.104E-05       0.013     2221.927   0.100E-11
     TRS4 it  10 1.00000000   0.878E-12       0.013     2198.786   0.100E-11
     Final TRS4 iteration   10 1.00000000   0.878E-12
     Chemical potential (mu):       0.05916
 
 PAO| energy:  -191.67237432436821      penalty:   4.4916813659782453E-004
 PAO|LS| adapt:  T T F
 PAO|LS| adapt: scan_steps:    0.0000000000000000       0.56885309129314188        0.0000000000000000     
 PAO|LS| adapt: energies:   -191.66903471071129       -191.67237432436821        0.0000000000000000     
 PAO| ======================= Iteration:        25 =============================

     Lanczos converged:  F threshold:   0.100E-02
     Est. extremal eigenvalues:    0.482E+01   0.130E+00
     Est. condition number :    0.370E+02

 Order=           3
     NS sqrt iter    1 1.00000000   0.124E+01       0.021     2703.569
     NS sqrt iter    2 1.00000000   0.633E+00       0.034     3354.392
     NS sqrt iter    3 1.00000000   0.204E+00       0.034     3380.106
     NS sqrt iter    4 1.00000000   0.265E-01       0.033     3380.513
     NS sqrt iter    5 1.00000000   0.128E-03       0.034     3360.974
     NS sqrt iter    6 1.00000000   0.402E-10       0.020     2290.893
     Symmetrizing Results
     Final NS sqrt iter    6 1.00000000   0.219E-11

     Est. extremal eigenvalues     -0.84344     2.61285  converged:  T
     TRS4 it   1 1.00000000   0.287E+02       0.007     2148.871   0.100E-11
     TRS4 it   2 1.00000000   0.236E+02       0.013     2189.587   0.100E-11
     TRS4 it   3 1.00000000   0.155E+02       0.013     2233.097   0.100E-11
     TRS4 it   4 1.00000000   0.892E+01       0.013     2205.155   0.100E-11
     TRS4 it   5 1.00000000   0.365E+01       0.013     2222.360   0.100E-11
     TRS4 it   6 1.00000000   0.911E+00       0.013     2190.532   0.100E-11
     TRS4 it   7 1.00000000   0.104E+00       0.013     2221.992   0.100E-11
     TRS4 it   8 1.00000000   0.195E-02       0.013     2213.013   0.100E-11
     TRS4 it   9 1.00000000   0.978E-06       0.013     2189.451   0.100E-11
     TRS4 it  10 1.00000000   0.821E-12       0.013     2205.623   0.100E-11
     Final TRS4 iteration   10 1.00000000   0.821E-12
     Chemical potential (mu):       0.05952
 
 PAO| energy:  -191.66076683112735      penalty:   4.1500288352734681E-004
 PAO|LS| adapt:  T T T
 PAO|LS| adapt: scan_steps:    0.0000000000000000       0.56885309129314188        1.1377061825862838     
 PAO|LS| adapt: energies:   -191.66903471071129       -191.67237432436821       -191.66076683112735     
 PAO|LS| adapt: suggested step_size:   0.41152469015410376     
 PAO|LS| adapt: predicted energy  -191.67294598878192     
 PAO| ======================= Iteration:        26 =============================

     Lanczos converged:  F threshold:   0.100E-02
     Est. extremal eigenvalues:    0.484E+01   0.131E+00
     Est. condition number :    0.370E+02

 Order=           3
     NS sqrt iter    1 1.00000000   0.125E+01       0.021     2703.855
     NS sqrt iter    2 1.00000000   0.635E+00       0.034     3378.626
     NS sqrt iter    3 1.00000000   0.205E+00       0.034     3357.122
     NS sqrt iter    4 1.00000000   0.266E-01       0.034     3374.435
     NS sqrt iter    5 1.00000000   0.128E-03       0.034     3370.947
     NS sqrt iter    6 1.00000000   0.398E-10       0.020     2285.733
     Symmetrizing Results
     Final NS sqrt iter    6 1.00000000   0.219E-11

     Est. extremal eigenvalues     -0.84346     2.61526  converged:  T
     TRS4 it   1 1.00000000   0.287E+02       0.007     2160.686   0.100E-11
     TRS4 it   2 1.00000000   0.236E+02       0.013     2222.270   0.100E-11
     TRS4 it   3 1.00000000   0.155E+02       0.013     2230.907   0.100E-11
     TRS4 it   4 1.00000000   0.896E+01       0.013     2207.774   0.100E-11
     TRS4 it   5 1.00000000   0.368E+01       0.013     2207.724   0.100E-11
     TRS4 it   6 1.00000000   0.923E+00       0.013     2209.191   0.100E-11
     TRS4 it   7 1.00000000   0.106E+00       0.013     2195.824   0.100E-11
     TRS4 it   8 1.00000000   0.203E-02       0.013     2190.760   0.100E-11
     TRS4 it   9 1.00000000   0.105E-05       0.013     2203.050   0.100E-11
     TRS4 it  10 1.00000000   0.917E-12       0.013     2206.492   0.100E-11
     Final TRS4 iteration   10 1.00000000   0.917E-12
     Chemical potential (mu):       0.05906
 
 PAO| energy:  -191.67292921922868      penalty:   4.5943921101149502E-004
 PAO|CG| trace_G_new    1.4427755287452451E-002
 PAO|CG| trace_G_prev    1.8738871343228523E-002
 PAO|CG| trace_G_mix    2.8063219502416355E-004
 PAO|CG| trace_D    3.9130751158762932E-002
 PAO|CG| trace_D_Gnew  -8.8562559038930636E-005
 PAO|CG| beta:   0.75496132255267823     
 PAO| norm of gradient:  0.12011559135870935     
 PAO| energy improvement:  -3.8945085173907046E-003
 PAO| step     26                 -191.672929219  0.235E-03  0.412E+00     1.520
 PAO|LS| adapt:  T F F
 PAO|LS| adapt: scan_steps:    0.0000000000000000        0.0000000000000000        0.0000000000000000     
 PAO|LS| adapt: energies:   -191.67292921922868        0.0000000000000000        0.0000000000000000     
 PAO| ======================= Iteration:        27 =============================

     Lanczos converged:  F threshold:   0.100E-02
     Est. extremal eigenvalues:    0.483E+01   0.130E+00
     Est. condition number :    0.370E+02

 Order=           3
     NS sqrt iter    1 1.00000000   0.124E+01       0.021     2703.844
     NS sqrt iter    2 1.00000000   0.633E+00       0.034     3373.850
     NS sqrt iter    3 1.00000000   0.204E+00       0.034     3365.436
     NS sqrt iter    4 1.00000000   0.265E-01       0.034     3342.960
     NS sqrt iter    5 1.00000000   0.127E-03       0.034     3377.539
     NS sqrt iter    6 1.00000000   0.399E-10       0.020     2296.701
     Symmetrizing Results
     Final NS sqrt iter    6 1.00000000   0.218E-11

     Est. extremal eigenvalues     -0.84347     2.61383  converged:  T
     TRS4 it   1 1.00000000   0.287E+02       0.007     2148.624   0.100E-11
     TRS4 it   2 1.00000000   0.236E+02       0.013     2233.549   0.100E-11
     TRS4 it   3 1.00000000   0.155E+02       0.013     2207.609   0.100E-11
     TRS4 it   4 1.00000000   0.894E+01       0.013     2197.540   0.100E-11
     TRS4 it   5 1.00000000   0.366E+01       0.013     2191.840   0.100E-11
     TRS4 it   6 1.00000000   0.916E+00       0.013     2220.602   0.100E-11
     TRS4 it   7 1.00000000   0.105E+00       0.013     2227.439   0.100E-11
     TRS4 it   8 1.00000000   0.198E-02       0.013     2207.649   0.100E-11
     TRS4 it   9 1.00000000   0.100E-05       0.013     2219.854   0.100E-11
     TRS4 it  10 1.00000000   0.860E-12       0.013     2229.336   0.100E-11
     Final TRS4 iteration   10 1.00000000   0.860E-12
     Chemical potential (mu):       0.05939
 
 PAO| energy:  -191.67593706222218      penalty:   4.2493426853731339E-004
 PAO|LS| adapt:  T T F
 PAO|LS| adapt: scan_steps:    0.0000000000000000       0.41152469015410376        0.0000000000000000     
 PAO|LS| adapt: energies:   -191.67292921922868       -191.67593706222218        0.0000000000000000     
 PAO| ======================= Iteration:        28 =============================

     Lanczos converged:  F threshold:   0.100E-02
     Est. extremal eigenvalues:    0.481E+01   0.130E+00
     Est. condition number :    0.370E+02

 Order=           3
     NS sqrt iter    1 1.00000000   0.124E+01       0.021     2698.153
     NS sqrt iter    2 1.00000000   0.631E+00       0.033     3400.472
     NS sqrt iter    3 1.00000000   0.204E+00       0.034     3355.053
     NS sqrt iter    4 1.00000000   0.264E-01       0.034     3370.914
     NS sqrt iter    5 1.00000000   0.128E-03       0.034     3359.338
     NS sqrt iter    6 1.00000000   0.403E-10       0.020     2302.362
     Symmetrizing Results
     Final NS sqrt iter    6 1.00000000   0.219E-11

     Est. extremal eigenvalues     -0.84346     2.61243  converged:  T
     TRS4 it   1 1.00000000   0.287E+02       0.007     2153.534   0.100E-11
     TRS4 it   2 1.00000000   0.236E+02       0.013     2234.370   0.100E-11
     TRS4 it   3 1.00000000   0.155E+02       0.013     2229.245   0.100E-11
     TRS4 it   4 1.00000000   0.892E+01       0.013     2219.703   0.100E-11
     TRS4 it   5 1.00000000   0.365E+01       0.013     2225.807   0.100E-11
     TRS4 it   6 1.00000000   0.909E+00       0.013     2203.616   0.100E-11
     TRS4 it   7 1.00000000   0.103E+00       0.013     2228.215   0.100E-11
     TRS4 it   8 1.00000000   0.192E-02       0.013     2196.607   0.100E-11
     TRS4 it   9 1.00000000   0.955E-06       0.013     2197.053   0.100E-11
     TRS4 it  10 1.00000000   0.780E-12       0.013     2208.570   0.100E-11
     Final TRS4 iteration   10 1.00000000   0.780E-12
     Chemical potential (mu):       0.05971
 
 PAO| energy:  -191.67297628925749      penalty:   3.9346275717380360E-004
 PAO|LS| adapt:  T T T
 PAO|LS| adapt: scan_steps:    0.0000000000000000       0.41152469015410376       0.82304938030820751     
 PAO|LS| adapt: energies:   -191.67292921922868       -191.67593706222218       -191.67297628925749     
 PAO|LS| adapt: suggested step_size:   0.41314738452401001     
 PAO|LS| adapt: predicted energy  -191.67593710862295     
 PAO| ======================= Iteration:        29 =============================

     Lanczos converged:  F threshold:   0.100E-02
     Est. extremal eigenvalues:    0.483E+01   0.130E+00
     Est. condition number :    0.370E+02

 Order=           3
     NS sqrt iter    1 1.00000000   0.124E+01       0.021     2713.487
     NS sqrt iter    2 1.00000000   0.633E+00       0.034     3376.197
     NS sqrt iter    3 1.00000000   0.204E+00       0.034     3373.498
     NS sqrt iter    4 1.00000000   0.265E-01       0.034     3377.337
     NS sqrt iter    5 1.00000000   0.127E-03       0.033     3383.510
     NS sqrt iter    6 1.00000000   0.399E-10       0.020     2308.697
     Symmetrizing Results
     Final NS sqrt iter    6 1.00000000   0.218E-11

     Est. extremal eigenvalues     -0.84347     2.61383  converged:  T
     TRS4 it   1 1.00000000   0.287E+02       0.007     2150.238   0.100E-11
     TRS4 it   2 1.00000000   0.236E+02       0.013     2229.917   0.100E-11
     TRS4 it   3 1.00000000   0.155E+02       0.013     2212.191   0.100E-11
     TRS4 it   4 1.00000000   0.894E+01       0.013     2192.602   0.100E-11
     TRS4 it   5 1.00000000   0.366E+01       0.013     2233.793   0.100E-11
     TRS4 it   6 1.00000000   0.916E+00       0.013     2226.747   0.100E-11
     TRS4 it   7 1.00000000   0.105E+00       0.013     2226.819   0.100E-11
     TRS4 it   8 1.00000000   0.198E-02       0.013     2200.228   0.100E-11
     TRS4 it   9 1.00000000   0.100E-05       0.013     2238.211   0.100E-11
[...]
     TRS4 it   3 1.00000000   0.157E+02       0.013     2225.238   0.100E-11
     TRS4 it   4 1.00000000   0.927E+01       0.013     2187.349   0.100E-11
     TRS4 it   5 1.00000000   0.416E+01       0.013     2222.251   0.100E-11
     TRS4 it   6 1.00000000   0.130E+01       0.013     2211.954   0.100E-11
     TRS4 it   7 1.00000000   0.237E+00       0.013     2224.231   0.100E-11
     TRS4 it   8 1.00000000   0.125E-01       0.013     2220.514   0.100E-11
     TRS4 it   9 1.00000000   0.542E-04       0.013     2214.198   0.100E-11
     TRS4 it  10 1.00000000   0.149E-08       0.013     2206.074   0.100E-11
     TRS4 it  11 1.00000000   0.711E-14       0.013     2206.507   0.100E-11
     Final TRS4 iteration   11 1.00000000   0.711E-14
     Chemical potential (mu):       0.02288
 
 PAO| energy:  -191.28446889588363      penalty:   2.8139117726052279E-008
 PAO| Writing restart file.
     Est. extremal eigenvalues     -0.84360     2.62953  converged:  T
     TRS4 it   1 1.00000000   0.290E+02       0.007     2123.800   0.100E-11
     TRS4 it   2 1.00000000   0.239E+02       0.013     2215.290   0.100E-11
     TRS4 it   3 1.00000000   0.157E+02       0.013     2205.083   0.100E-11
     TRS4 it   4 1.00000000   0.927E+01       0.013     2215.511   0.100E-11
     TRS4 it   5 1.00000000   0.416E+01       0.013     2202.279   0.100E-11
     TRS4 it   6 1.00000000   0.130E+01       0.013     2182.493   0.100E-11
     TRS4 it   7 1.00000000   0.237E+00       0.013     2171.731   0.100E-11
     TRS4 it   8 1.00000000   0.125E-01       0.013     2211.649   0.100E-11
     TRS4 it   9 1.00000000   0.542E-04       0.013     2201.642   0.100E-11
     TRS4 it  10 1.00000000   0.149E-08       0.013     2204.979   0.100E-11
     TRS4 it  11 1.00000000   0.711E-14       0.013     2165.526   0.100E-11
     Final TRS4 iteration   11 1.00000000   0.711E-14
     Chemical potential (mu):       0.02288

 SCF     1     -1103.024532325     -1103.024532325    1.767625

*********************************************************
 Using MIXING_FRACTION=0.450 to mix KS matrix:  iscf=  2
 KS_nw=0.450*KS + 0.550*KS_old
*********************************************************
     Est. extremal eigenvalues     -0.84360     2.62953  converged:  T
     TRS4 it   1 1.00000000   0.290E+02       0.007     2163.623   0.100E-11
     TRS4 it   2 1.00000000   0.239E+02       0.013     2166.630   0.100E-11
     TRS4 it   3 1.00000000   0.157E+02       0.013     2188.589   0.100E-11
     TRS4 it   4 1.00000000   0.927E+01       0.013     2183.633   0.100E-11
     TRS4 it   5 1.00000000   0.416E+01       0.013     2207.327   0.100E-11
     TRS4 it   6 1.00000000   0.130E+01       0.013     2212.984   0.100E-11
     TRS4 it   7 1.00000000   0.237E+00       0.013     2187.036   0.100E-11
     TRS4 it   8 1.00000000   0.125E-01       0.013     2186.500   0.100E-11
     TRS4 it   9 1.00000000   0.541E-04       0.013     2179.429   0.100E-11
     TRS4 it  10 1.00000000   0.149E-08       0.013     2168.793   0.100E-11
     TRS4 it  11 1.00000000   0.107E-13       0.013     2213.900   0.100E-11
     Final TRS4 iteration   11 1.00000000   0.107E-13
     Chemical potential (mu):       0.02288

 SCF     2     -1103.024532325        -0.000000000    1.767259


 SCF run converged in     2 steps.

 PAO| Storing density matrix for ASPC guess in slot:           1

 ENERGY| Total FORCE_EVAL ( QS ) energy [a.u.]:            -1103.024532325380960

 -------------------------------------------------------------------------------
 -                                                                             -
 -                                DBCSR STATISTICS                             -
 -                                                                             -
 -------------------------------------------------------------------------------
 COUNTER                                    TOTAL       BLAS       SMM       ACC
 flops     5 x     5 x     4             23116800       0.0%    100.0%      0.0%     
 flops    13 x     5 x     4             29818880       0.0%    100.0%      0.0%     
 flops     5 x    13 x     4             29818880       0.0%    100.0%      0.0%     
 flops    13 x    13 x     4             39370240       0.0%    100.0%      0.0%     
 flops     4 x     4 x     5           6374031360       0.0%    100.0%      0.0%     
 flops     5 x     4 x     5           7877427200       0.0%    100.0%      0.0%     
 flops     4 x     4 x    13           8286240768       0.0%    100.0%      0.0%     
 flops    13 x     4 x     5          10240655360       0.0%    100.0%      0.0%     
 flops     5 x     4 x    13          10240655360       0.0%    100.0%      0.0%     
 flops    13 x     4 x    13          13312851968       0.0%    100.0%      0.0%     
 flops     5 x     4 x     4         396347537760       0.0%    100.0%      0.0%     
 flops    13 x     4 x     4         519489328800       0.0%    100.0%      0.0%     
 flops     4 x     4 x     4       29571580798080       0.0%    100.0%      0.0%     
 flops inhomo. stacks                           0       0.0%      0.0%      0.0%
 flops total                        30.543872E+12       0.0%    100.0%      0.0%
 flops max/rank                    963.581635E+09       0.0%    100.0%      0.0%
 matmuls inhomo. stacks                         0       0.0%      0.0%      0.0%
 matmuls total                       234902556513       0.0%    100.0%      0.0%
 number of processed stacks             239942477       0.0%    100.0%      0.0%
 average stack size                                     0.0     979.0       0.0
 marketing flops                    52.450308E+12
 -------------------------------------------------------------------------------
 # multiplications                          49211
 max memory usage/rank             618.389504E+06
 # max total images/rank                        2
 # max 3D layers                                1
 # MPI messages exchanged                20471776
 MPI messages size (bytes):
  total size                         2.441093E+12
  min size                           0.000000E+00
  max size                         541.696000E+03
  average size                     119.241891E+03
 MPI breakdown and total messages size (bytes):
             size <=      128              875601                    75648
       128 < size <=     8192              331758               1147353600
      8192 < size <=    32768               10794                222698112
     32768 < size <=   131072             8552459             629881995776
    131072 < size <=  4194304            10701164            1810234394368
   4194304 < size <= 16777216                   0                        0
  16777216 < size                               0                        0
 -------------------------------------------------------------------------------

 *** WARNING in dbcsr_mm.F:301 :: Using a non-square number of MPI ranks ***
 *** might lead to poor performance. Used ranks: 32 Suggested: 36 64     ***

 -------------------------------------------------------------------------------
 -                                                                             -
 -                      DBCSR MESSAGE PASSING PERFORMANCE                      -
 -                                                                             -
 -------------------------------------------------------------------------------
 ROUTINE             CALLS      AVE VOLUME [Bytes]
 MP_Bcast               14                     12.
 MP_Allreduce       296186                     37.
 MP_Alltoall        127059                  14575.
 MP_ISend          1646946                  55508.
 MP_IRecv          1610848                  56823.
 -------------------------------------------------------------------------------

 -------------------------------------------------------------------------------
 -                                                                             -
 -                                DBM STATISTICS                               -
 -                                                                             -
 -------------------------------------------------------------------------------
    M  x    N  x    K                                          COUNT     PERCENT
 -------------------------------------------------------------------------------

 -------------------------------------------------------------------------------
 -                                                                             -
 -                                GRID STATISTICS                              -
 -                                                                             -
 -------------------------------------------------------------------------------
 LP    KERNEL             BACKEND                              COUNT     PERCENT
 2     collocate ortho    CPU                               11476360      28.82%
 2     integrate ortho    CPU                               11476360      28.82%
 3     collocate ortho    CPU                                7378364      18.53%
 3     integrate ortho    CPU                                7378364      18.53%
 4     collocate ortho    CPU                                1049636       2.64%
 4     integrate ortho    CPU                                1049636       2.64%
 0     collocate general  CPU                                   6144       0.02%
 -------------------------------------------------------------------------------

 MEMORY| Estimated peak process memory [MiB]                                 590

 -------------------------------------------------------------------------------
 -                                                                             -
 -                         MESSAGE PASSING PERFORMANCE                         -
 -                                                                             -
 -------------------------------------------------------------------------------

 ROUTINE             CALLS      AVE VOLUME [Bytes]
 MP_Group                5
 MP_Bcast           354285                   1986.
 MP_Allreduce       880540                    514.
 MP_Sync                 5
 MP_Alltoall           369                7619842.
 MP_SendRecv          1302                  18832.
 MP_ISendRecv         1302                  18832.
 MP_Wait              3696
 MP_ISend             2166                 108220.
 MP_IRecv             2166                 108236.
 -------------------------------------------------------------------------------


 -------------------------------------------------------------------------------
 -                                                                             -
 -                           R E F E R E N C E S                               -
 -                                                                             -
 -------------------------------------------------------------------------------
 
 CP2K version 2024.3 (Development Version), the CP2K developers group (2024).
 CP2K is freely available from https://www.cp2k.org/ .
 
 T. D. Kuehne, M. Iannuzzi, M. Del Ben, V. V. Rybkin, P. Seewald, F. Stein, T. 
 Laino, R. Z. Khaliullin, O. Schuett, F. Schiffmann, D. Golze, J. Wilhelm, S. 
 Chulkov, M. H. Bani-Hashemian, V. Weber, U. Borstnik, M. Taillefumier, A. S. 
 Jakobovits, A. Lazzaro, H. Pabst, T. Mueller, R. Schade, M. Guidon, S. 
 Andermatt, N. Holmberg, G. K. Schenter, A. Hehn, A. Bussy, F. Belleflamme, G. 
 Tabacchi, A. Gloess, M. Lass, I. Bethune, C. J. Mundy, C. Plessl, M. Watkins, 
 J. VandeVondele, M. Krack, J. Hutter.
 J. Chem. Phys. 152, 194103 (2020).
 CP2K: An electronic structure and molecular dynamics software package - 
 Quickstep: Efficient and accurate electronic structure calculations.
 https://doi.org/10.1063/5.0007045

 O. Schuett, J. VandeVondele.
 J. Chem. Theory Comput. 14, 4168-4175 (2018).
 Machine Learning Adaptive Basis Sets for Efficient Large Scale Density 
 Functional Theory Simulation.
 https://doi.org/10.1021/acs.jctc.8b00378

 O. Schuett, P. Messmer, J. Hutter, J. VandeVondele.
 Electronic Structure Calculations on Graphics Processing Units, 173-190 (2016).
 GPU-Accelerated Sparse Matrix-Matrix Multiplication for Linear Scaling Density 
 Functional Theory.
 https://doi.org/10.1002/9781118670712.ch8

 A. Heinecke, G. Henry, M. Hutchinson, H. Pabst.
 Proceedings of Intl. Supercomputing Conference, 981-991 (2016).
 LIBXSMM: Accelerating Small Matrix Multiplications by Runtime Code Generation.
 https://doi.org/10.1109/SC.2016.83

 J. Hutter, M. Iannuzzi, F. Schiffmann, J. VandeVondele.
 WIREs Comput Mol Sci. 4, 15-25 (2014).
 CP2K: atomistic simulations of condensed matter systems.
 https://doi.org/10.1002/wcms.1159

 U. Borstnik, J. VandeVondele, V. Weber, J. Hutter.
 Parallel Comput. 40, 47-58 (2014).
 Sparse matrix multiplication: The distributed block-compressed sparse row 
 library.
 https://doi.org/10.1016/j.parco.2014.03.012

 A. Marek, V. Blum, R. Johanni, V. Havu, B. Lang, T. Auckenthaler, A. Heinecke, 
 H. Bungartz, H. Lederer.
 J. Phys. Condens. Matter 26, 213201 (2014).
 The ELPA library: scalable parallel eigenvalue solutions for electronic 
 structure theory and computational science.
 https://doi.org/10.1088/0953-8984/26/21/213201

 J. VandeVondele, U. Borstnik, J. Hutter.
 J. Chem. Theory Comput. 8, 3565-3573 (2012).
 Linear Scaling Self-Consistent Field Calculations with Millions of Atoms in the 
 Condensed Phase.
 https://doi.org/10.1021/ct200897x

 J. VandeVondele, J. Hutter.
 J. Chem. Phys. 127, 114105 (2007).
 Gaussian basis sets for accurate calculations on molecular systems in gas and 
 condensed phases.
 https://doi.org/10.1063/1.2770708

 J. VandeVondele, M. Krack, F. Mohamed, M. Parrinello, T. Chassaing, J. Hutter.
 Comput. Phys. Commun. 167, 103-128 (2005).
 QUICKSTEP: Fast and accurate density functional calculations using a mixed 
 Gaussian and plane waves approach.
 https://doi.org/10.1016/j.cpc.2004.12.014

 M. Krack.
 Theor. Chem. Acc. 114, 145-152 (2005).
 Pseudopotentials for H to Kr optimized for gradient-corrected 
 exchange-correlation functionals.
 https://doi.org/10.1007/s00214-005-0655-y

 M. Frigo, S. G. Johnson.
 Proc. IEEE 93, 216-231 (2005).
 The design and implementation of FFTW3.
 https://doi.org/10.1109/JPROC.2004.840301

 A. M. N. Niklasson, C. J. Tymczak, M. Challacombe.
 J. Chem. Phys. 118, 8611-8620 (2003).
 Trace resetting density matrix purification in O(N) self-consistent-field 
 theory.
 https://doi.org/10.1063/1.1559913

 C. Hartwigsen, S. Goedecker, J. Hutter.
 Phys. Rev. B 58, 3641-3662 (1998).
 Relativistic separable dual-space Gaussian pseudopotentials from H to Rn.
 https://doi.org/10.1103/PhysRevB.58.3641

 G. Lippert, J. Hutter, M. Parrinello.
 Mol. Phys. 92, 477-487 (1997).
 A hybrid Gaussian and plane wave density functional scheme.
 https://doi.org/10.1080/002689797170220

 S. Goedecker, M. Teter, J. Hutter.
 Phys. Rev. B 54, 1703-1710 (1996).
 Separable dual-space Gaussian pseudopotentials.
 https://doi.org/10.1103/PhysRevB.54.1703

 J. P. Perdew, K. Burke, M. Ernzerhof.
 Phys. Rev. Lett. 77, 3865-3868 (1996).
 Generalized gradient approximation made simple.
 https://doi.org/10.1103/PhysRevLett.77.3865


 -------------------------------------------------------------------------------
 -                                                                             -
 -                                T I M I N G                                  -
 -                                                                             -
 -------------------------------------------------------------------------------
 SUBROUTINE                       CALLS  ASD         SELF TIME        TOTAL TIME
                                MAXIMUM       AVERAGE  MAXIMUM  AVERAGE  MAXIMUM
 CP2K                                 1  1.0    0.013    0.016  437.027  437.028
 qs_energies                          1  2.0    0.000    0.000  436.875  436.875
 ls_scf                               1  3.0    0.000    0.000  435.612  435.613
 pao_update                           6  4.0    0.006    0.023  409.389  409.390
 pao_calc_energy                    801  5.0    0.003    0.018  367.116  367.119
 dbcsr_multiply_generic           49211  8.4    1.386    1.528  343.229  343.649
 multiply_cannon                  49211  9.4    2.562    3.113  276.075  280.908
 multiply_cannon_loop             49211 10.4    1.851    2.249  265.346  271.242
 ls_scf_init_matrix_S               807  7.0    0.008    0.010  203.341  203.420
 pao_rebuild_S                      801  6.0    0.002    0.003  201.812  201.891
 matrix_sqrt_Newton_Schulz          807  8.0    0.170    0.279  188.362  188.453
 multiply_cannon_multrec         393688 11.4  175.965  177.756  176.771  178.546
 pao_dm_trs4                        801  6.0    0.006    0.007  164.907  164.957
 density_matrix_trs4                814  7.0    0.211    0.351  158.989  159.101
 mp_waitall_1                   3151034 12.6   85.250   96.792   85.250   96.792
 multiply_cannon_metrocomm3      393688 11.4    0.690    0.771   67.823   75.096
 arnoldi_extremal                  1621  8.5    0.013    0.015   58.358   58.454
 arnoldi_normal_ev                 1621  9.5    0.036    0.061   58.343   58.435
 make_m2s                         98422  9.4    0.539    0.734   50.343   51.640
 build_subspace                    5714 10.5    0.350    0.378   51.294   51.330
 make_images                      98422 10.4    7.284    7.456   48.993   50.324
 dbcsr_matrix_vector_mult        174662 11.5    0.749    1.122   48.199   48.689
 pao_calc_AB                       1063  5.8    0.002    0.002   41.821   41.824
 pao_calc_AB_equi                  1063  6.8    0.039    0.099   41.820   41.822
 dbcsr_matrix_vector_mult_local  174662 12.5   41.082   41.498   41.278   41.695
 pao_calc_grad_lnv_wrt_AB           261  7.0    0.019    0.024   41.398   41.459
 make_images_data                 98422 11.4    0.852    1.012   21.385   24.073
 ls_scf_main                          6  4.0    0.000    0.001   22.990   22.992
 hybrid_alltoall_any             100032 12.3    0.895    1.739   16.732   20.430
 ls_scf_dm_to_ks                     13  5.0    0.000    0.000   20.274   20.278
 mp_sum_l                        201082  9.5    9.359   19.218    9.359   19.218
 matrix_qs_to_ls                   1621  7.5    0.016    0.023   16.878   16.998
 dbcsr_multiply_generic_mpsum_f   36112  9.5    0.026    0.036    6.047   13.633
 calculate_norms                 735056 11.4   11.553   12.934   11.553   12.934
 qs_ks_update_qs_env                 14  6.0    0.000    0.000   12.177   12.180
 rebuild_ks_matrix                   14  7.0    0.000    0.000   12.167   12.170
 qs_ks_build_kohn_sham_matrix        14  8.0    0.002    0.003   12.167   12.170
 make_images_pack                 98422 11.4   10.934   11.264   11.067   11.407
 qs_rho_update_rho_low               14  6.0    0.000    0.000    9.571    9.575
 calculate_rho_elec                  14  7.0    0.005    0.005    9.571    9.575
 sum_up_and_integrate                14  9.0    0.000    0.001    9.206    9.210
 integrate_v_rspace                  14 10.0    0.000    0.001    9.193    9.197
 -------------------------------------------------------------------------------

 The number of warnings for this run is : 1
 
 -------------------------------------------------------------------------------
  **** **** ******  **  PROGRAM ENDED AT                 2024-09-24 02:22:11.070
 ***** ** ***  *** **   PROGRAM RAN ON                                    moritz
 **    ****   ******    PROGRAM RAN BY                                       ole
 ***** **    ** ** **   PROGRAM PROCESS ID                                166763
  **** **  *******  **  PROGRAM STOPPED IN /home/ole/git/pao_ml_equivar/64H2O_MD
                                           /Frame3200
