 DBCSR| CPU Multiplication driver                                           XSMM
 DBCSR| Multrec recursion limit                                              512
 DBCSR| Multiplication stack size                                           1000
 DBCSR| Maximum elements for images                                    UNLIMITED
 DBCSR| Multiplicative factor virtual images                                   1
 DBCSR| Use multiplication densification                                       T
 DBCSR| Multiplication size stacks                                             3


  **** **** ******  **  PROGRAM STARTED AT               2019-02-14 01:17:29.925
 ***** ** ***  *** **   PROGRAM STARTED ON                                  otto
 **    ****   ******    PROGRAM STARTED BY                                   ole
 ***** **    ** ** **   PROGRAM PROCESS ID                                  6082
  **** **  *******  **  PROGRAM STARTED IN /home/ole/git/pao_ml_equivar/2H2O_MD/
                                           frame_0375

 CP2K| version string:                    CP2K version 7.0 (Development Version)
 CP2K| source code revision number:                                git:8bf305913
 CP2K| cp2kflags: libint fftw3 libxc xsmm libderiv_max_am1=5 libint_max_am=6    
 CP2K| is freely available from                            https://www.cp2k.org/
 CP2K| Program compiled at                           So Jan 13 00:02:37 CET 2019
 CP2K| Program compiled on                                                  otto
 CP2K| Program compiled for                                                local
 CP2K| Data directory path                               /home/ole/git/cp2k/data
 CP2K| Input file name                                            2H2O_pao44.inp

 GLOBAL| Force Environment number                                              1
 GLOBAL| Basis set file name                                        BASIS_MOLOPT
 GLOBAL| Potential file name                                      GTH_POTENTIALS
 GLOBAL| MM Potential file name                                     MM_POTENTIAL
 GLOBAL| Coordinate file name                                         coords.xyz
 GLOBAL| Method name                                                        CP2K
 GLOBAL| Project name                                                 2H2O_pao44
 GLOBAL| Preferred FFT library                                             FFTW3
 GLOBAL| Preferred diagonalization lib.                                       SL
 GLOBAL| Run type                                                         ENERGY
 GLOBAL| All-to-all communication in single precision                          F
 GLOBAL| FFTs using library dependent lengths                                  F
 GLOBAL| Global print level                                                  LOW
 GLOBAL| MPI I/O enabled                                                       T
 GLOBAL| Total number of message passing processes                             1
 GLOBAL| Number of threads for this process                                    1
 GLOBAL| This output is from process                                           0
 GLOBAL| CPU model name :  Intel(R) Core(TM) i5-3320M CPU @ 2.60GHz

 MEMORY| system memory details [Kb]
 MEMORY|                        rank 0           min           max       average
 MEMORY| MemTotal              7860772       7860772       7860772       7860772
 MEMORY| MemFree               2070684       2070684       2070684       2070684
 MEMORY| Buffers                281764        281764        281764        281764
 MEMORY| Cached                1970716       1970716       1970716       1970716
 MEMORY| Slab                   256500        256500        256500        256500
 MEMORY| SReclaimable           134124        134124        134124        134124
 MEMORY| MemLikelyFree         4457288       4457288       4457288       4457288


 GENERATE|  Preliminary Number of Bonds generated:                             0
 GENERATE|  Achieved consistency in connectivity generation.

 *******************************************************************************
 *******************************************************************************
 **                                                                           **
 **     #####                         ##              ##                      **
 **    ##   ##            ##          ##              ##                      **
 **   ##     ##                       ##            ######                    **
 **   ##     ##  ##   ##  ##   #####  ##  ##   ####   ##    #####    #####    **
 **   ##     ##  ##   ##  ##  ##      ## ##   ##      ##   ##   ##  ##   ##   **
 **   ##  ## ##  ##   ##  ##  ##      ####     ###    ##   ######   ######    **
 **    ##  ###   ##   ##  ##  ##      ## ##      ##   ##   ##       ##        **
 **     #######   #####   ##   #####  ##  ##  ####    ##    #####   ##        **
 **           ##                                                    ##        **
 **                                                                           **
 **                                                ... make the atoms dance   **
 **                                                                           **
 **            Copyright (C) by CP2K developers group (2000 - 2018)           **
 **                                                                           **
 *******************************************************************************


 TOTAL NUMBERS AND MAXIMUM NUMBERS

  Total number of            - Atomic kinds:                                   2
                             - Atoms:                                          6
                             - Shell sets:                                     6
                             - Shells:                                        22
                             - Primitive Cartesian functions:                 42
                             - Cartesian basis functions:                     48
                             - Spherical basis functions:                     46

  Maximum angular momentum of- Orbital basis functions:                        2
                             - Local part of the GTH pseudopotential:          2
                             - Non-local part of the GTH pseudopotential:      0

 ------------------------------ Linear scaling SCF -----------------------------
 eps_scf:                                       0.100E-07
 eps_filter:                                    0.100E-07
 mixing_fraction:                               0.450E+00
 max_scf:                                              25
 fixed chemical potential (mu)                          F
 has unit metric:                                       F
 Computing inv(S):                                      T
 Computing sqrt(S):                                     T
 Computing s preconditioner                             F
 sign sqrt order:                                       3
 Extrapolation order:                                   1
 Use single precision matrices                          F
 S preconditioner type                               NONE
 Polarized Atomic Orbitals (PAO)                        T
 Purification method                      Trace resetting 4th order
 Cluster type                                      ATOMIC
 Computing Chebyshev                                FALSE
 Using PAO                                              T
 -------------------------------------------------------------------------------

 
 PAO|                                  EPS_PAO                           0.5E-06
 PAO|                                  MIXING                            0.5E+00
 PAO|                                  MAX_PAO                              1000
 PAO|                                  MAX_CYCLES                           1000
 PAO|                                  PARAMETERIZATION                   DIRECT
 PAO|                                  PRECONDITION                            F
 PAO|                                  REGULARIZATION                    0.0E+00
 PAO|                                  EPS_PGF                           0.1E-09
 PAO|                                  PENALTY_DISTANCE                  0.1E+00
 PAO|                                  PENALTY_STRENGTH                  0.5E-02
 PAO|                                  LINPOT_PRECONDITION_DELTA         0.0E+00
 PAO|                                  LINPOT_INITGUESS_DELT             0.0E+00
 PAO|                                  LINPOT_REGULARIZATION_DELTA       0.0E+00
 PAO|                                  LINPOT_REGULARIZATION_STRENGTH    0.0E+00
 PAO|                                  OPTIMIZER                              CG
 PAO|                                  CG_INIT_STEPS                           2
 PAO|                                  CG_RESET_LIMIT                    0.1E+00
 PAO|                                  CHECK_UNITARY_TOL                -0.1E+01
 PAO|                                  CHECK_GRADIENT_TOL               -0.1E+01
 PAO|                                  NUM_GRADIENT_ORDER                      2
 PAO|                                  NUM_GRADIENT_EPS                  0.1E-07
 PAO|                                  PRINT%RESTART%WRITE_CYCLES            100
 PAO|                                  RESTART_FILE 
 PAO|                                  PREOPT_DM_FILE 2H2O_ref_LS_DM_SPIN_1_RESTART.dm
 PAO|                                  MACHINE_LEARNING%METHOD        GAUSSIAN_P
 PAO|                                  MACHINE_LEARNING%PRIOR               ZERO
 PAO|                                  MACHINE_LEARNING%DESCRIPTOR     POTENTIAL
 PAO|                                  MACHINE_LEARNING%TOLERANCE        0.1E-01
 PAO|                                  MACHINE_LEARNING%GP_NOISE_VAR     0.1E+00
 PAO|                                  MACHINE_LEARNING%GP_SCALE         0.5E-01
 

 Calculating atomic Fock matrix for atomic kind: O

 Electronic structure
    Total number of core electrons                                          2.00
    Total number of valence electrons                                       6.00
    Total number of electrons                                               8.00
    Multiplicity                                                   not specified
    S   [  2.00] 2.00
    P      4.00


 *******************************************************************************
                  Iteration          Convergence                     Energy [au]
 *******************************************************************************
                          1        0.708315                     -15.576645311500
                          2        0.608879                     -15.587933561584
                          3        0.102828E-01                 -15.656849565404
                          4        0.113889E-02                 -15.656866888140
                          5        0.434197E-03                 -15.656867072159
                          6        0.263771E-03                 -15.656867091904
                          7        0.478536E-06                 -15.656867103452

 Energy components [Hartree]           Total Energy ::          -15.656867103452
                                        Band Energy ::           -3.000198112285
                                     Kinetic Energy ::           11.759971203220
                                   Potential Energy ::          -27.416838306672
                                      Virial (-V/T) ::            2.331369510426
                                        Core Energy ::          -26.140716385623
                                          XC Energy ::           -3.154051012914
                                     Coulomb Energy ::           13.637900295084
                       Total Pseudopotential Energy ::          -37.935781716540
                       Local Pseudopotential Energy ::          -39.218907440693
                    Nonlocal Pseudopotential Energy ::            1.283125724153
                                        Confinement ::            0.350941276976

 Orbital energies  State     L     Occupation   Energy[a.u.]          Energy[eV]

                       1     0          2.000      -0.864471          -23.523463

                       1     1          4.000      -0.317814           -8.648154


 Total Electron Density at R=0:                                         0.000068

 Calculating atomic Fock matrix for atomic kind: H

 Electronic structure
    Total number of core electrons                                          0.00
    Total number of valence electrons                                       1.00
    Total number of electrons                                               1.00
    Multiplicity                                                   not specified
    S      1.00


 *******************************************************************************
                  Iteration          Convergence                     Energy [au]
 *******************************************************************************
                          1        0.437545E-02                  -0.424159432110
                          2        0.531356E-03                  -0.424178438213
                          3        0.259176E-06                  -0.424178722480

 Energy components [Hartree]           Total Energy ::           -0.424178722480
                                        Band Energy ::           -0.199015229016
                                     Kinetic Energy ::            0.464007633961
                                   Potential Energy ::           -0.888186356441
                                      Virial (-V/T) ::            1.914163240935
                                        Core Energy ::           -0.479160803564
                                          XC Energy ::           -0.244352904054
                                     Coulomb Energy ::            0.299334985138
                       Total Pseudopotential Energy ::           -0.962295316385
                       Local Pseudopotential Energy ::           -0.962295316385
                    Nonlocal Pseudopotential Energy ::            0.000000000000
                                        Confinement ::            0.191268788606

 Orbital energies  State     L     Occupation   Energy[a.u.]          Energy[eV]

                       1     0          1.000      -0.199015           -5.415480


 Total Electron Density at R=0:                                         0.242907
 PAO| Made initial guess for matrix_X with norm:   4.8989794855663558     

     Lanczos converged:  T threshold:   0.100E-02
     Est. extremal eigenvalues:    0.337E+01   0.121E+00
     Est. condition number :    0.278E+02
     NS sqrt iter    1 1.00000000   0.824E+00       0.001       45.664
     NS sqrt iter    2 1.00000000   0.435E+00       0.001       83.886
     NS sqrt iter    3 1.00000000   0.163E+00       0.001       76.856
     NS sqrt iter    4 1.00000000   0.179E-01       0.002       51.783
     NS sqrt iter    5 1.00000000   0.352E-04       0.002       48.274
     Final NS sqrt iter    5 1.00000000   0.192E-08

 PAO| Read restart DM 2H2O_ref_LS_DM_SPIN_1_RESTART.dm with checksum:    54.558584241344498     
 PAO| Quickstep energy from restart density:  -34.448485796406899     
 PAO| ======================= Iteration:         1 =============================

     Lanczos converged:  T threshold:   0.100E-02
     Est. extremal eigenvalues:    0.337E+01   0.121E+00
     Est. condition number :    0.278E+02
     NS sqrt iter    1 1.00000000   0.824E+00       0.001       55.694
     NS sqrt iter    2 1.00000000   0.435E+00       0.001      102.959
     NS sqrt iter    3 1.00000000   0.163E+00       0.001      110.592
     NS sqrt iter    4 1.00000000   0.179E-01       0.001      110.592
     NS sqrt iter    5 1.00000000   0.352E-04       0.001       85.760
     Final NS sqrt iter    5 1.00000000   0.192E-08

     Est. extremal eigenvalues     -0.90320     1.73286  converged:  T
     TRS4 it   1 1.00000000   0.845E+00       0.000       16.128   0.100E-07
     TRS4 it   2 1.00000000   0.659E+00       0.001       32.256   0.100E-07
     TRS4 it   3 1.00000000   0.484E+00       0.001       22.982   0.100E-07
     TRS4 it   4 1.00000000   0.305E+00       0.001       32.256   0.100E-07
     TRS4 it   5 1.00000000   0.151E+00       0.001       32.256   0.100E-07
     TRS4 it   6 1.00000000   0.452E-01       0.001       32.256   0.100E-07
     TRS4 it   7 1.00000000   0.563E-02       0.001       32.256   0.100E-07
     TRS4 it   8 1.00000000   0.120E-03       0.001       32.256   0.100E-07
     TRS4 it   9 1.00000000   0.610E-07       0.001       32.256   0.100E-07
     Final TRS4 iteration    9 1.00000000   0.610E-07
     Chemical potential (mu):      -0.07253
 
 PAO| energy:  -7.5390301022953494      penalty:   3.5128962185623179E-033
 PAO|CG| warming up with steepest descent
 PAO|CG| beta:    0.0000000000000000     
 PAO| norm of gradient:  0.77313738810609078     
 PAO|LS| adapt:  T F F
 PAO|LS| adapt: scan_steps:    0.0000000000000000        0.0000000000000000        0.0000000000000000     
 PAO|LS| adapt: energies:   -7.5390301022953494        0.0000000000000000        0.0000000000000000     
 PAO| ======================= Iteration:         2 =============================

     Lanczos converged:  T threshold:   0.100E-02
     Est. extremal eigenvalues:    0.329E+01   0.136E+00
     Est. condition number :    0.241E+02
     NS sqrt iter    1 1.00000000   0.808E+00       0.001       64.512
     NS sqrt iter    2 1.00000000   0.420E+00       0.001      110.592
     NS sqrt iter    3 1.00000000   0.146E+00       0.001      110.592
     NS sqrt iter    4 1.00000000   0.122E-01       0.001      110.592
     NS sqrt iter    5 1.00000000   0.101E-04       0.002       50.858
     Final NS sqrt iter    5 1.00000000   0.157E-09

     Est. extremal eigenvalues     -0.90657     1.67852  converged:  T
     TRS4 it   1 1.00000000   0.838E+00       0.000       16.128   0.100E-07
     TRS4 it   2 1.00000000   0.640E+00       0.001       32.256   0.100E-07
     TRS4 it   3 1.00000000   0.465E+00       0.001       32.256   0.100E-07
     TRS4 it   4 1.00000000   0.282E+00       0.001       32.256   0.100E-07
     TRS4 it   5 1.00000000   0.129E+00       0.001       32.256   0.100E-07
     TRS4 it   6 1.00000000   0.335E-01       0.001       32.256   0.100E-07
     TRS4 it   7 1.00000000   0.317E-02       0.001       32.256   0.100E-07
     TRS4 it   8 1.00000000   0.382E-04       0.001       32.256   0.100E-07
     TRS4 it   9 1.00000000   0.624E-08       0.001       32.256   0.100E-07
     Final TRS4 iteration    9 1.00000000   0.624E-08
     Chemical potential (mu):      -0.06154
 
 PAO| energy:  -7.5930544518466165      penalty:   2.1553228773933949E-008
 PAO|LS| adapt:  T T F
 PAO|LS| adapt: scan_steps:    0.0000000000000000       0.10000000000000001        0.0000000000000000     
 PAO|LS| adapt: energies:   -7.5390301022953494       -7.5930544518466165        0.0000000000000000     
 PAO| ======================= Iteration:         3 =============================

     Lanczos converged:  T threshold:   0.100E-02
     Est. extremal eigenvalues:    0.319E+01   0.151E+00
     Est. condition number :    0.212E+02
     NS sqrt iter    1 1.00000000   0.791E+00       0.001       52.782
     NS sqrt iter    2 1.00000000   0.403E+00       0.001       76.999
     NS sqrt iter    3 1.00000000   0.129E+00       0.001      110.592
     NS sqrt iter    4 1.00000000   0.823E-02       0.001      110.592
     NS sqrt iter    5 1.00000000   0.285E-05       0.001       82.944
     Final NS sqrt iter    5 1.00000000   0.120E-10

     Est. extremal eigenvalues     -0.90977     1.63834  converged:  T
     TRS4 it   1 1.00000000   0.833E+00       0.000       16.128   0.100E-07
     TRS4 it   2 1.00000000   0.624E+00       0.001       32.256   0.100E-07
     TRS4 it   3 1.00000000   0.447E+00       0.001       32.256   0.100E-07
     TRS4 it   4 1.00000000   0.259E+00       0.001       32.256   0.100E-07
     TRS4 it   5 1.00000000   0.109E+00       0.001       32.256   0.100E-07
     TRS4 it   6 1.00000000   0.241E-01       0.001       32.256   0.100E-07
     TRS4 it   7 1.00000000   0.164E-02       0.001       32.256   0.100E-07
     TRS4 it   8 1.00000000   0.103E-04       0.001       32.256   0.100E-07
     TRS4 it   9 1.00000000   0.459E-09       0.001       32.256   0.100E-07
     Final TRS4 iteration    9 1.00000000   0.459E-09
     Chemical potential (mu):      -0.04935
 
 PAO| energy:  -7.6349385179922180      penalty:   3.4485022168700315E-007
 PAO|LS| adapt:  T T F
 PAO|LS| adapt: scan_steps:    0.0000000000000000       0.20000000000000001        0.0000000000000000     
 PAO|LS| adapt: energies:   -7.5390301022953494       -7.6349385179922180        0.0000000000000000     
 PAO| ======================= Iteration:         4 =============================

     Lanczos converged:  T threshold:   0.100E-02
     Est. extremal eigenvalues:    0.300E+01   0.173E+00
     Est. condition number :    0.173E+02
     NS sqrt iter    1 1.00000000   0.753E+00       0.001       64.512
     NS sqrt iter    2 1.00000000   0.369E+00       0.001       94.318
     NS sqrt iter    3 1.00000000   0.100E+00       0.002       71.079
     NS sqrt iter    4 1.00000000   0.383E-02       0.001       77.855
     NS sqrt iter    5 1.00000000   0.297E-06       0.001       81.536
     Final NS sqrt iter    5 1.00000000   0.533E-09

     Est. extremal eigenvalues     -0.91486     1.59057  converged:  T
     TRS4 it   1 1.00000000   0.830E+00       0.000       16.128   0.100E-07
     TRS4 it   2 1.00000000   0.600E+00       0.001       32.256   0.100E-07
     TRS4 it   3 1.00000000   0.415E+00       0.001       32.256   0.100E-07
     TRS4 it   4 1.00000000   0.221E+00       0.001       32.256   0.100E-07
     TRS4 it   5 1.00000000   0.776E-01       0.001       32.256   0.100E-07
     TRS4 it   6 1.00000000   0.117E-01       0.001       32.256   0.100E-07
     TRS4 it   7 1.00000000   0.369E-03       0.001       32.256   0.100E-07
     TRS4 it   8 1.00000000   0.520E-06       0.001       32.256   0.100E-07
     TRS4 it   9 1.00000000   0.118E-11       0.001       32.256   0.100E-07
     Final TRS4 iteration    9 1.00000000   0.118E-11
     Chemical potential (mu):      -0.02228
 
 PAO| energy:  -7.6807351871324441      penalty:   5.5175920449172874E-006
 PAO|LS| Need extra step
 PAO|LS| adapt:  T T F
 PAO|LS| adapt: scan_steps:    0.0000000000000000       0.40000000000000002        0.0000000000000000     
 PAO|LS| adapt: energies:   -7.5390301022953494       -7.6807351871324441        0.0000000000000000     
 PAO| ======================= Iteration:         5 =============================

     Lanczos converged:  T threshold:   0.100E-02
     Est. extremal eigenvalues:    0.263E+01   0.197E+00
     Est. condition number :    0.134E+02
     NS sqrt iter    1 1.00000000   0.685E+00       0.001       64.512
     NS sqrt iter    2 1.00000000   0.306E+00       0.001       90.759
     NS sqrt iter    3 1.00000000   0.602E-01       0.001       94.178
     NS sqrt iter    4 1.00000000   0.976E-03       0.001       90.533
     NS sqrt iter    5 1.00000000   0.432E-08       0.001       33.637
     Final NS sqrt iter    5 1.00000000   0.315E-08

     Est. extremal eigenvalues     -0.91680     1.55966  converged:  T
     TRS4 it   1 1.00000000   0.838E+00       0.000       16.128   0.100E-07
     TRS4 it   2 1.00000000   0.573E+00       0.001       32.256   0.100E-07
     TRS4 it   3 1.00000000   0.371E+00       0.001       32.256   0.100E-07
     TRS4 it   4 1.00000000   0.167E+00       0.001       32.256   0.100E-07
     TRS4 it   5 1.00000000   0.411E-01       0.001       32.256   0.100E-07
     TRS4 it   6 1.00000000   0.289E-02       0.001       32.256   0.100E-07
     TRS4 it   7 1.00000000   0.180E-04       0.001       32.256   0.100E-07
     TRS4 it   8 1.00000000   0.916E-09       0.001       32.256   0.100E-07
     Final TRS4 iteration    8 1.00000000   0.916E-09
     Chemical potential (mu):       0.02898
 
 PAO| energy:  -7.6267715241122200      penalty:   8.8281380732049014E-005
 PAO|LS| Need extra step
 PAO|LS| adapt:  T T T
 PAO|LS| adapt: scan_steps:    0.0000000000000000       0.40000000000000002       0.80000000000000004     
 PAO|LS| adapt: energies:   -7.5390301022953494       -7.6807351871324441       -7.6267715241122200     
 PAO|LS| adapt: suggested step_size:   0.48968363397598014     
 PAO|LS| adapt: predicted energy  -7.6856532931066663     
 PAO| ======================= Iteration:         6 =============================

     Lanczos converged:  T threshold:   0.100E-02
     Est. extremal eigenvalues:    0.291E+01   0.179E+00
     Est. condition number :    0.162E+02
     NS sqrt iter    1 1.00000000   0.736E+00       0.001       64.512
     NS sqrt iter    2 1.00000000   0.354E+00       0.002       60.363
     NS sqrt iter    3 1.00000000   0.893E-01       0.001      110.592
     NS sqrt iter    4 1.00000000   0.277E-02       0.001      110.592
     NS sqrt iter    5 1.00000000   0.127E-06       0.001       77.696
     Final NS sqrt iter    5 1.00000000   0.546E-09

     Est. extremal eigenvalues     -0.91635     1.57874  converged:  T
     TRS4 it   1 1.00000000   0.831E+00       0.000       16.128   0.100E-07
     TRS4 it   2 1.00000000   0.592E+00       0.001       32.256   0.100E-07
     TRS4 it   3 1.00000000   0.403E+00       0.001       32.256   0.100E-07
     TRS4 it   4 1.00000000   0.206E+00       0.001       32.256   0.100E-07
     TRS4 it   5 1.00000000   0.666E-01       0.001       32.256   0.100E-07
     TRS4 it   6 1.00000000   0.839E-02       0.001       32.256   0.100E-07
     TRS4 it   7 1.00000000   0.181E-03       0.001       32.256   0.100E-07
     TRS4 it   8 1.00000000   0.121E-06       0.001       32.256   0.100E-07
     TRS4 it   9 1.00000000   0.648E-13       0.001       32.256   0.100E-07
     Final TRS4 iteration    9 1.00000000   0.648E-13
     Chemical potential (mu):      -0.00930
 
 PAO| energy:  -7.6849471134802982      penalty:   1.2392867701954521E-005
 PAO|CG| warming up with steepest descent
 PAO|CG| beta:    0.0000000000000000     
 PAO| norm of gradient:  0.40598676852110394     
 PAO| energy improvement: -0.14591701118494882     
 PAO| step      6                   -7.684947113  0.254E-01  0.490E+00     0.091
 PAO|LS| adapt:  T F F
 PAO|LS| adapt: scan_steps:    0.0000000000000000        0.0000000000000000        0.0000000000000000     
 PAO|LS| adapt: energies:   -7.6849471134802982        0.0000000000000000        0.0000000000000000     
 PAO| ======================= Iteration:         7 =============================

     Lanczos converged:  T threshold:   0.100E-02
     Est. extremal eigenvalues:    0.282E+01   0.194E+00
     Est. condition number :    0.146E+02
     NS sqrt iter    1 1.00000000   0.718E+00       0.001       55.665
     NS sqrt iter    2 1.00000000   0.333E+00       0.001      109.408
     NS sqrt iter    3 1.00000000   0.742E-01       0.001      108.115
     NS sqrt iter    4 1.00000000   0.163E-02       0.001      105.955
     NS sqrt iter    5 1.00000000   0.289E-07       0.001       63.488
     Final NS sqrt iter    5 1.00000000   0.567E-09

     Est. extremal eigenvalues     -0.91770     1.57408  converged:  T
     TRS4 it   1 1.00000000   0.833E+00       0.000       16.128   0.100E-07
     TRS4 it   2 1.00000000   0.592E+00       0.001       32.256   0.100E-07
     TRS4 it   3 1.00000000   0.405E+00       0.001       32.256   0.100E-07
     TRS4 it   4 1.00000000   0.208E+00       0.001       23.833   0.100E-07
     TRS4 it   5 1.00000000   0.676E-01       0.001       32.256   0.100E-07
     TRS4 it   6 1.00000000   0.838E-02       0.001       32.256   0.100E-07
     TRS4 it   7 1.00000000   0.169E-03       0.001       32.256   0.100E-07
     TRS4 it   8 1.00000000   0.995E-07       0.001       32.256   0.100E-07
     TRS4 it   9 1.00000000   0.440E-13       0.001       32.256   0.100E-07
     Final TRS4 iteration    9 1.00000000   0.440E-13
     Chemical potential (mu):      -0.00664
 
 PAO| energy:  -7.6779675185563576      penalty:   1.8523254128989474E-005
 PAO|LS| adapt:  T F T
 PAO|LS| adapt: scan_steps:    0.0000000000000000        0.0000000000000000       0.48968363397598014     
 PAO|LS| adapt: energies:   -7.6849471134802982        0.0000000000000000       -7.6779675185563576     
 PAO| ======================= Iteration:         8 =============================

     Lanczos converged:  T threshold:   0.100E-02
     Est. extremal eigenvalues:    0.286E+01   0.186E+00
     Est. condition number :    0.154E+02
     NS sqrt iter    1 1.00000000   0.727E+00       0.001       64.512
     NS sqrt iter    2 1.00000000   0.343E+00       0.001      110.592
     NS sqrt iter    3 1.00000000   0.816E-01       0.001      110.592
     NS sqrt iter    4 1.00000000   0.213E-02       0.001       94.788
     NS sqrt iter    5 1.00000000   0.614E-07       0.001       55.457
     Final NS sqrt iter    5 1.00000000   0.463E-09

     Est. extremal eigenvalues     -0.91765     1.57593  converged:  T
     TRS4 it   1 1.00000000   0.832E+00       0.000       16.128   0.100E-07
     TRS4 it   2 1.00000000   0.592E+00       0.001       32.256   0.100E-07
     TRS4 it   3 1.00000000   0.403E+00       0.001       32.256   0.100E-07
     TRS4 it   4 1.00000000   0.206E+00       0.001       32.256   0.100E-07
     TRS4 it   5 1.00000000   0.669E-01       0.001       32.256   0.100E-07
     TRS4 it   6 1.00000000   0.845E-02       0.001       30.965   0.100E-07
     TRS4 it   7 1.00000000   0.179E-03       0.001       32.256   0.100E-07
     TRS4 it   8 1.00000000   0.116E-06       0.001       32.256   0.100E-07
     TRS4 it   9 1.00000000   0.596E-13       0.001       32.256   0.100E-07
     Final TRS4 iteration    9 1.00000000   0.596E-13
     Chemical potential (mu):      -0.00819
 
 PAO| energy:  -7.7031886406237815      penalty:   1.3393670212040468E-005
 PAO|LS| adapt:  T T T
 PAO|LS| adapt: scan_steps:    0.0000000000000000       0.24484181698799007       0.48968363397598014     
 PAO|LS| adapt: energies:   -7.6849471134802982       -7.7031886406237815       -7.6779675185563576     
 PAO|LS| adapt: suggested step_size:   0.22518244584927771     
 PAO|LS| adapt: predicted energy  -7.7033287458238400     
 PAO| ======================= Iteration:         9 =============================

     Lanczos converged:  T threshold:   0.100E-02
     Est. extremal eigenvalues:    0.287E+01   0.186E+00
     Est. condition number :    0.154E+02
     NS sqrt iter    1 1.00000000   0.728E+00       0.001       64.512
     NS sqrt iter    2 1.00000000   0.344E+00       0.001      110.592
     NS sqrt iter    3 1.00000000   0.822E-01       0.001      110.592
     NS sqrt iter    4 1.00000000   0.218E-02       0.001      110.592
     NS sqrt iter    5 1.00000000   0.651E-07       0.001       72.192
     Final NS sqrt iter    5 1.00000000   0.488E-09

     Est. extremal eigenvalues     -0.91759     1.57612  converged:  T
     TRS4 it   1 1.00000000   0.832E+00       0.000       16.128   0.100E-07
     TRS4 it   2 1.00000000   0.592E+00       0.001       32.256   0.100E-07
     TRS4 it   3 1.00000000   0.403E+00       0.001       32.256   0.100E-07
     TRS4 it   4 1.00000000   0.206E+00       0.001       32.256   0.100E-07
     TRS4 it   5 1.00000000   0.669E-01       0.001       32.256   0.100E-07
     TRS4 it   6 1.00000000   0.845E-02       0.001       32.256   0.100E-07
     TRS4 it   7 1.00000000   0.180E-03       0.001       32.256   0.100E-07
     TRS4 it   8 1.00000000   0.117E-06       0.001       32.256   0.100E-07
     TRS4 it   9 1.00000000   0.607E-13       0.001       32.256   0.100E-07
     Final TRS4 iteration    9 1.00000000   0.607E-13
     Chemical potential (mu):      -0.00830
 
 PAO| energy:  -7.7033536221616643      penalty:   1.3203660278243262E-005
 PAO|CG| trace_G_new    3.6019864098930494E-002
 PAO|CG| trace_G_prev   0.16482525621420840     
 PAO|CG| trace_G_mix   -1.2081514313668721E-003
 PAO|CG| trace_D   0.16482525621420840     
 PAO|CG| trace_D_Gnew   1.2081514313668721E-003
 PAO|CG| beta:   0.22586353806066892     
 PAO| norm of gradient:  0.18978899888805595     
 PAO| energy improvement:  -1.8406508681366063E-002
 PAO| step      9                   -7.703353622  0.119E-01  0.225E+00     0.057
 PAO|LS| adapt:  T F F
 PAO|LS| adapt: scan_steps:    0.0000000000000000        0.0000000000000000        0.0000000000000000     
 PAO|LS| adapt: energies:   -7.7033536221616643        0.0000000000000000        0.0000000000000000     
 PAO| ======================= Iteration:        10 =============================

     Lanczos converged:  T threshold:   0.100E-02
     Est. extremal eigenvalues:    0.283E+01   0.191E+00
     Est. condition number :    0.148E+02
     NS sqrt iter    1 1.00000000   0.720E+00       0.001       64.512
     NS sqrt iter    2 1.00000000   0.336E+00       0.001      110.592
     NS sqrt iter    3 1.00000000   0.766E-01       0.001      107.300
     NS sqrt iter    4 1.00000000   0.178E-02       0.001      110.592
     NS sqrt iter    5 1.00000000   0.363E-07       0.002       40.627
     Final NS sqrt iter    5 1.00000000   0.348E-09

     Est. extremal eigenvalues     -0.91846     1.57977  converged:  T
     TRS4 it   1 1.00000000   0.833E+00       0.000       16.128   0.100E-07
     TRS4 it   2 1.00000000   0.593E+00       0.001       32.256   0.100E-07
     TRS4 it   3 1.00000000   0.403E+00       0.001       32.256   0.100E-07
     TRS4 it   4 1.00000000   0.206E+00       0.001       32.256   0.100E-07
     TRS4 it   5 1.00000000   0.659E-01       0.001       32.256   0.100E-07
     TRS4 it   6 1.00000000   0.815E-02       0.001       32.256   0.100E-07
     TRS4 it   7 1.00000000   0.164E-03       0.001       32.256   0.100E-07
     TRS4 it   8 1.00000000   0.958E-07       0.001       32.256   0.100E-07
     TRS4 it   9 1.00000000   0.401E-13       0.001       32.256   0.100E-07
     Final TRS4 iteration    9 1.00000000   0.401E-13
     Chemical potential (mu):      -0.00557
 
 PAO| energy:  -7.7080999683756781      penalty:   1.3676681415863674E-005
 PAO|LS| adapt:  T T F
 PAO|LS| adapt: scan_steps:    0.0000000000000000       0.22518244584927771        0.0000000000000000     
 PAO|LS| adapt: energies:   -7.7033536221616643       -7.7080999683756781        0.0000000000000000     
 PAO| ======================= Iteration:        11 =============================

     Lanczos converged:  T threshold:   0.100E-02
     Est. extremal eigenvalues:    0.279E+01   0.197E+00
     Est. condition number :    0.142E+02
     NS sqrt iter    1 1.00000000   0.711E+00       0.001       64.512
     NS sqrt iter    2 1.00000000   0.327E+00       0.001      110.592
     NS sqrt iter    3 1.00000000   0.713E-01       0.001      110.592
     NS sqrt iter    4 1.00000000   0.144E-02       0.001      110.592
     NS sqrt iter    5 1.00000000   0.195E-07       0.001       54.400
     Final NS sqrt iter    5 1.00000000   0.232E-08

     Est. extremal eigenvalues     -0.91820     1.58494  converged:  T
     TRS4 it   1 1.00000000   0.835E+00       0.001       16.128   0.100E-07
     TRS4 it   2 1.00000000   0.594E+00       0.001       32.256   0.100E-07
     TRS4 it   3 1.00000000   0.404E+00       0.001       32.256   0.100E-07
     TRS4 it   4 1.00000000   0.205E+00       0.001       32.256   0.100E-07
     TRS4 it   5 1.00000000   0.651E-01       0.001       32.256   0.100E-07
     TRS4 it   6 1.00000000   0.788E-02       0.001       32.256   0.100E-07
     TRS4 it   7 1.00000000   0.150E-03       0.001       32.256   0.100E-07
     TRS4 it   8 1.00000000   0.784E-07       0.001       32.256   0.100E-07
     Final TRS4 iteration    8 1.00000000   0.784E-07
     Chemical potential (mu):      -0.00318
 
 PAO| energy:  -7.7064894508134847      penalty:   1.4741255456199185E-005
 PAO|LS| adapt:  T T T
 PAO|LS| adapt: scan_steps:    0.0000000000000000       0.22518244584927771       0.45036489169855543     
 PAO|LS| adapt: energies:   -7.7033536221616643       -7.7080999683756781       -7.7064894508134847     
 PAO|LS| adapt: suggested step_size:   0.28072347916700457     
 PAO|LS| adapt: predicted energy  -7.7082933306546204     
 PAO| ======================= Iteration:        12 =============================

     Lanczos converged:  T threshold:   0.100E-02
     Est. extremal eigenvalues:    0.282E+01   0.193E+00
     Est. condition number :    0.146E+02
     NS sqrt iter    1 1.00000000   0.717E+00       0.001       64.512
     NS sqrt iter    2 1.00000000   0.333E+00       0.001      110.592
     NS sqrt iter    3 1.00000000   0.753E-01       0.001      110.592
     NS sqrt iter    4 1.00000000   0.169E-02       0.001       80.092
     NS sqrt iter    5 1.00000000   0.311E-07       0.001       51.605
     Final NS sqrt iter    5 1.00000000   0.408E-08

     Est. extremal eigenvalues     -0.91850     1.58091  converged:  T
     TRS4 it   1 1.00000000   0.834E+00       0.000       16.128   0.100E-07
     TRS4 it   2 1.00000000   0.593E+00       0.001       32.256   0.100E-07
     TRS4 it   3 1.00000000   0.403E+00       0.001       32.256   0.100E-07
     TRS4 it   4 1.00000000   0.205E+00       0.001       32.256   0.100E-07
     TRS4 it   5 1.00000000   0.657E-01       0.001       32.256   0.100E-07
     TRS4 it   6 1.00000000   0.808E-02       0.001       32.256   0.100E-07
     TRS4 it   7 1.00000000   0.160E-03       0.001       32.256   0.100E-07
     TRS4 it   8 1.00000000   0.911E-07       0.001       32.256   0.100E-07
     TRS4 it   9 1.00000000   0.360E-13       0.001       32.256   0.100E-07
     Final TRS4 iteration    9 1.00000000   0.360E-13
     Chemical potential (mu):      -0.00488
 
 PAO| energy:  -7.7082785469001518      penalty:   1.3878205902372206E-005
 PAO|CG| trace_G_new    1.0876959802630135E-002
 PAO|CG| trace_G_prev    3.6019864098930494E-002
 PAO|CG| trace_G_mix   -3.8765187033204312E-004
 PAO|CG| trace_D    4.3882560687977822E-002
 PAO|CG| trace_D_Gnew   2.3271339861613257E-004
 PAO|CG| beta:   0.31273331964893913     
 PAO| norm of gradient:  0.10429266418416079     
 PAO| energy improvement:  -4.9249247384874906E-003
 PAO| step     12                   -7.708278547  0.652E-02  0.281E+00     0.056
 PAO|LS| adapt:  T F F
 PAO|LS| adapt: scan_steps:    0.0000000000000000        0.0000000000000000        0.0000000000000000     
 PAO|LS| adapt: energies:   -7.7082785469001518        0.0000000000000000        0.0000000000000000     
 PAO| ======================= Iteration:        13 =============================

     Lanczos converged:  T threshold:   0.100E-02
     Est. extremal eigenvalues:    0.278E+01   0.196E+00
     Est. condition number :    0.142E+02
     NS sqrt iter    1 1.00000000   0.710E+00       0.003       25.466
     NS sqrt iter    2 1.00000000   0.327E+00       0.002       49.762
     NS sqrt iter    3 1.00000000   0.712E-01       0.001      104.772
     NS sqrt iter    4 1.00000000   0.144E-02       0.001      107.766
     NS sqrt iter    5 1.00000000   0.196E-07       0.001       54.272
     Final NS sqrt iter    5 1.00000000   0.377E-08

     Est. extremal eigenvalues     -0.91897     1.58047  converged:  T
     TRS4 it   1 1.00000000   0.835E+00       0.000       16.128   0.100E-07
     TRS4 it   2 1.00000000   0.591E+00       0.001       32.256   0.100E-07
     TRS4 it   3 1.00000000   0.401E+00       0.001       32.256   0.100E-07
     TRS4 it   4 1.00000000   0.202E+00       0.001       32.256   0.100E-07
     TRS4 it   5 1.00000000   0.630E-01       0.001       32.256   0.100E-07
     TRS4 it   6 1.00000000   0.737E-02       0.001       32.256   0.100E-07
     TRS4 it   7 1.00000000   0.132E-03       0.001       32.256   0.100E-07
     TRS4 it   8 1.00000000   0.602E-07       0.001       25.519   0.100E-07
     Final TRS4 iteration    8 1.00000000   0.602E-07
     Chemical potential (mu):      -0.00137
 
 PAO| energy:  -7.7101650722519528      penalty:   1.4079596159025464E-005
 PAO|LS| adapt:  T T F
 PAO|LS| adapt: scan_steps:    0.0000000000000000       0.28072347916700457        0.0000000000000000     
 PAO|LS| adapt: energies:   -7.7082785469001518       -7.7101650722519528        0.0000000000000000     
 PAO| ======================= Iteration:        14 =============================

     Lanczos converged:  T threshold:   0.100E-02
     Est. extremal eigenvalues:    0.275E+01   0.200E+00
     Est. condition number :    0.137E+02
     NS sqrt iter    1 1.00000000   0.702E+00       0.001       64.512
     NS sqrt iter    2 1.00000000   0.320E+00       0.001      110.592
     NS sqrt iter    3 1.00000000   0.673E-01       0.001      110.592
     NS sqrt iter    4 1.00000000   0.123E-02       0.001      110.592
     NS sqrt iter    5 1.00000000   0.118E-07       0.001       47.744
     Final NS sqrt iter    5 1.00000000   0.322E-08

     Est. extremal eigenvalues     -0.91898     1.58020  converged:  T
     TRS4 it   1 1.00000000   0.836E+00       0.001       16.128   0.100E-07
     TRS4 it   2 1.00000000   0.590E+00       0.001       32.256   0.100E-07
     TRS4 it   3 1.00000000   0.398E+00       0.001       32.256   0.100E-07
     TRS4 it   4 1.00000000   0.198E+00       0.001       32.256   0.100E-07
     TRS4 it   5 1.00000000   0.604E-01       0.001       32.256   0.100E-07
     TRS4 it   6 1.00000000   0.673E-02       0.001       32.256   0.100E-07
     TRS4 it   7 1.00000000   0.108E-03       0.001       32.256   0.100E-07
     TRS4 it   8 1.00000000   0.399E-07       0.001       32.256   0.100E-07
     Final TRS4 iteration    8 1.00000000   0.399E-07
     Chemical potential (mu):       0.00222
 
 PAO| energy:  -7.7097983276899518      penalty:   1.4651543516535532E-005
 PAO|LS| adapt:  T T T
 PAO|LS| adapt: scan_steps:    0.0000000000000000       0.28072347916700457       0.56144695833400915     
 PAO|LS| adapt: energies:   -7.7082785469001518       -7.7101650722519528       -7.7097983276899518     
 PAO|LS| adapt: suggested step_size:   0.37539437240321316     
 PAO|LS| adapt: predicted energy  -7.7102932045739445     
 PAO| ======================= Iteration:        15 =============================

     Lanczos converged:  T threshold:   0.100E-02
     Est. extremal eigenvalues:    0.277E+01   0.197E+00
     Est. condition number :    0.140E+02
     NS sqrt iter    1 1.00000000   0.707E+00       0.001       54.659
     NS sqrt iter    2 1.00000000   0.324E+00       0.001      110.592
     NS sqrt iter    3 1.00000000   0.699E-01       0.001      110.592
     NS sqrt iter    4 1.00000000   0.137E-02       0.001      110.592
     NS sqrt iter    5 1.00000000   0.163E-07       0.001       50.048
     Final NS sqrt iter    5 1.00000000   0.392E-08

     Est. extremal eigenvalues     -0.91902     1.58037  converged:  T
     TRS4 it   1 1.00000000   0.835E+00       0.000       16.128   0.100E-07
     TRS4 it   2 1.00000000   0.591E+00       0.001       32.256   0.100E-07
     TRS4 it   3 1.00000000   0.400E+00       0.001       32.256   0.100E-07
     TRS4 it   4 1.00000000   0.200E+00       0.001       32.256   0.100E-07
     TRS4 it   5 1.00000000   0.621E-01       0.001       32.256   0.100E-07
     TRS4 it   6 1.00000000   0.715E-02       0.001       32.256   0.100E-07
     TRS4 it   7 1.00000000   0.123E-03       0.001       32.256   0.100E-07
     TRS4 it   8 1.00000000   0.524E-07       0.001       32.256   0.100E-07
     Final TRS4 iteration    8 1.00000000   0.524E-07
     Chemical potential (mu):      -0.00015
 
 PAO| energy:  -7.7102902742613892      penalty:   1.4228541558832933E-005
 PAO|CG| trace_G_new    2.2584197584337162E-003
 PAO|CG| trace_G_prev    1.0876959802630135E-002
 PAO|CG| trace_G_mix    7.8371064419340886E-005
 PAO|CG| trace_D    1.5023213206128776E-002
 PAO|CG| trace_D_Gnew   2.3325895531537460E-005
 PAO|CG| beta:   0.20042812822450834     
 PAO| norm of gradient:   4.7522834074092378E-002
 PAO| energy improvement:  -2.0117273612374476E-003
 PAO| step     15                   -7.710290274  0.297E-02  0.375E+00     0.056
 PAO|LS| adapt:  T F F
 PAO|LS| adapt: scan_steps:    0.0000000000000000        0.0000000000000000        0.0000000000000000     
 PAO|LS| adapt: energies:   -7.7102902742613892        0.0000000000000000        0.0000000000000000     
 PAO| ======================= Iteration:        16 =============================

     Lanczos converged:  T threshold:   0.100E-02
     Est. extremal eigenvalues:    0.276E+01   0.198E+00
     Est. condition number :    0.139E+02
     NS sqrt iter    1 1.00000000   0.705E+00       0.001       64.512
     NS sqrt iter    2 1.00000000   0.323E+00       0.001      110.592
     NS sqrt iter    3 1.00000000   0.691E-01       0.001      110.592
     NS sqrt iter    4 1.00000000   0.132E-02       0.001      110.592
     NS sqrt iter    5 1.00000000   0.142E-07       0.001       48.128
     Final NS sqrt iter    5 1.00000000   0.440E-08

     Est. extremal eigenvalues     -0.91905     1.58007  converged:  T
     TRS4 it   1 1.00000000   0.836E+00       0.000       16.128   0.100E-07
     TRS4 it   2 1.00000000   0.590E+00       0.001       32.256   0.100E-07
     TRS4 it   3 1.00000000   0.398E+00       0.001       32.256   0.100E-07
     TRS4 it   4 1.00000000   0.199E+00       0.002       20.689   0.100E-07
     TRS4 it   5 1.00000000   0.610E-01       0.001       32.256   0.100E-07
     TRS4 it   6 1.00000000   0.691E-02       0.001       32.256   0.100E-07
     TRS4 it   7 1.00000000   0.116E-03       0.001       32.256   0.100E-07
     TRS4 it   8 1.00000000   0.465E-07       0.001       32.256   0.100E-07
     Final TRS4 iteration    8 1.00000000   0.465E-07
     Chemical potential (mu):       0.00077
 
 PAO| energy:  -7.7103833983206638      penalty:   1.3977785791058697E-005
 PAO|LS| adapt:  T T F
 PAO|LS| adapt: scan_steps:    0.0000000000000000       0.37539437240321316        0.0000000000000000     
 PAO|LS| adapt: energies:   -7.7102902742613892       -7.7103833983206638        0.0000000000000000     
 PAO| ======================= Iteration:        17 =============================

     Lanczos converged:  T threshold:   0.100E-02
     Est. extremal eigenvalues:    0.275E+01   0.199E+00
     Est. condition number :    0.138E+02
     NS sqrt iter    1 1.00000000   0.703E+00       0.001       64.512
     NS sqrt iter    2 1.00000000   0.322E+00       0.001      110.592
     NS sqrt iter    3 1.00000000   0.684E-01       0.001      110.592
     NS sqrt iter    4 1.00000000   0.128E-02       0.001      105.391
     NS sqrt iter    5 1.00000000   0.127E-07       0.001       39.197
     Final NS sqrt iter    5 1.00000000   0.346E-08

     Est. extremal eigenvalues     -0.91893     1.57986  converged:  T
     TRS4 it   1 1.00000000   0.836E+00       0.000       16.128   0.100E-07
     TRS4 it   2 1.00000000   0.589E+00       0.001       32.256   0.100E-07
     TRS4 it   3 1.00000000   0.397E+00       0.001       32.256   0.100E-07
     TRS4 it   4 1.00000000   0.197E+00       0.001       32.256   0.100E-07
     TRS4 it   5 1.00000000   0.599E-01       0.001       32.256   0.100E-07
     TRS4 it   6 1.00000000   0.667E-02       0.001       32.256   0.100E-07
     TRS4 it   7 1.00000000   0.108E-03       0.001       28.160   0.100E-07
     TRS4 it   8 1.00000000   0.414E-07       0.001       24.493   0.100E-07
     Final TRS4 iteration    8 1.00000000   0.414E-07
     Chemical potential (mu):       0.00167
 
 PAO| energy:  -7.7089653824563031      penalty:   1.3827683655257507E-005
 PAO|LS| adapt:  T T T
 PAO|LS| adapt: scan_steps:    0.0000000000000000       0.37539437240321316       0.75078874480642632     
 PAO|LS| adapt: energies:   -7.7102902742613892       -7.7103833983206638       -7.7089653824563031     
 PAO|LS| adapt: suggested step_size:   0.21083087967382119     
 PAO|LS| adapt: predicted energy  -7.7105285981684517     
 PAO| ======================= Iteration:        18 =============================

     Lanczos converged:  T threshold:   0.100E-02
     Est. extremal eigenvalues:    0.276E+01   0.198E+00
     Est. condition number :    0.140E+02
     NS sqrt iter    1 1.00000000   0.706E+00       0.001       58.674
     NS sqrt iter    2 1.00000000   0.324E+00       0.001      110.592
     NS sqrt iter    3 1.00000000   0.694E-01       0.001      110.592
     NS sqrt iter    4 1.00000000   0.134E-02       0.001      110.592
     NS sqrt iter    5 1.00000000   0.153E-07       0.001       49.792
     Final NS sqrt iter    5 1.00000000   0.306E-08

     Est. extremal eigenvalues     -0.91906     1.58019  converged:  T
     TRS4 it   1 1.00000000   0.835E+00       0.000       16.128   0.100E-07
     TRS4 it   2 1.00000000   0.590E+00       0.001       27.058   0.100E-07
     TRS4 it   3 1.00000000   0.399E+00       0.001       32.256   0.100E-07
     TRS4 it   4 1.00000000   0.199E+00       0.001       32.256   0.100E-07
     TRS4 it   5 1.00000000   0.615E-01       0.001       32.256   0.100E-07
     TRS4 it   6 1.00000000   0.701E-02       0.001       32.256   0.100E-07
     TRS4 it   7 1.00000000   0.119E-03       0.001       32.256   0.100E-07
     TRS4 it   8 1.00000000   0.490E-07       0.001       32.256   0.100E-07
     Final TRS4 iteration    8 1.00000000   0.490E-07
     Chemical potential (mu):       0.00037
 
 PAO| energy:  -7.7105281506040226      penalty:   1.4075502909355893E-005
 PAO|CG| trace_G_new    6.2307795522752478E-004
 PAO|CG| trace_G_prev    2.2584197584337162E-003
 PAO|CG| trace_G_mix    8.7727329560813287E-007
 PAO|CG| trace_D    2.8525734538177995E-003
 PAO|CG| trace_D_Gnew  -1.5009139801798382E-006
 PAO|CG| beta:   0.27550267376487714     
 PAO| norm of gradient:   2.4961529504970738E-002
 PAO| energy improvement:  -2.3787634263339186E-004
 PAO| step     18                   -7.710528151  0.156E-02  0.211E+00     0.055
 PAO|LS| adapt:  T F F
 PAO|LS| adapt: scan_steps:    0.0000000000000000        0.0000000000000000        0.0000000000000000     
 PAO|LS| adapt: energies:   -7.7105281506040226        0.0000000000000000        0.0000000000000000     
 PAO| ======================= Iteration:        19 =============================

     Lanczos converged:  T threshold:   0.100E-02
     Est. extremal eigenvalues:    0.276E+01   0.198E+00
     Est. condition number :    0.140E+02
     NS sqrt iter    1 1.00000000   0.706E+00       0.001       64.512
     NS sqrt iter    2 1.00000000   0.324E+00       0.001      110.592
     NS sqrt iter    3 1.00000000   0.696E-01       0.001      103.182
     NS sqrt iter    4 1.00000000   0.134E-02       0.001      110.592
     NS sqrt iter    5 1.00000000   0.153E-07       0.001       42.508
     Final NS sqrt iter    5 1.00000000   0.307E-08

     Est. extremal eigenvalues     -0.91906     1.58053  converged:  T
     TRS4 it   1 1.00000000   0.836E+00       0.000       16.128   0.100E-07
     TRS4 it   2 1.00000000   0.590E+00       0.001       32.256   0.100E-07
     TRS4 it   3 1.00000000   0.399E+00       0.001       32.256   0.100E-07
     TRS4 it   4 1.00000000   0.199E+00       0.001       32.256   0.100E-07
     TRS4 it   5 1.00000000   0.614E-01       0.001       32.256   0.100E-07
     TRS4 it   6 1.00000000   0.700E-02       0.001       32.256   0.100E-07
     TRS4 it   7 1.00000000   0.119E-03       0.001       32.256   0.100E-07
     TRS4 it   8 1.00000000   0.495E-07       0.001       32.256   0.100E-07
     Final TRS4 iteration    8 1.00000000   0.495E-07
     Chemical potential (mu):       0.00029
 
 PAO| energy:  -7.7106290579530699      penalty:   1.3800784558391964E-005
 PAO|LS| adapt:  T T F
 PAO|LS| adapt: scan_steps:    0.0000000000000000       0.21083087967382119        0.0000000000000000     
 PAO|LS| adapt: energies:   -7.7105281506040226       -7.7106290579530699        0.0000000000000000     
 PAO| ======================= Iteration:        20 =============================

     Lanczos converged:  T threshold:   0.100E-02
     Est. extremal eigenvalues:    0.276E+01   0.198E+00
     Est. condition number :    0.140E+02
     NS sqrt iter    1 1.00000000   0.706E+00       0.001       64.512
     NS sqrt iter    2 1.00000000   0.324E+00       0.001      110.592
     NS sqrt iter    3 1.00000000   0.697E-01       0.001      110.592
     NS sqrt iter    4 1.00000000   0.135E-02       0.001      110.592
     NS sqrt iter    5 1.00000000   0.153E-07       0.001       48.647
     Final NS sqrt iter    5 1.00000000   0.308E-08

     Est. extremal eigenvalues     -0.91906     1.58087  converged:  T
     TRS4 it   1 1.00000000   0.836E+00       0.001       16.128   0.100E-07
     TRS4 it   2 1.00000000   0.590E+00       0.001       32.256   0.100E-07
     TRS4 it   3 1.00000000   0.399E+00       0.001       32.256   0.100E-07
     TRS4 it   4 1.00000000   0.199E+00       0.001       32.256   0.100E-07
     TRS4 it   5 1.00000000   0.613E-01       0.001       32.256   0.100E-07
     TRS4 it   6 1.00000000   0.699E-02       0.001       32.256   0.100E-07
     TRS4 it   7 1.00000000   0.119E-03       0.001       32.256   0.100E-07
     TRS4 it   8 1.00000000   0.499E-07       0.001       32.256   0.100E-07
     Final TRS4 iteration    8 1.00000000   0.499E-07
     Chemical potential (mu):       0.00021
 
 PAO| energy:  -7.7106685343636023      penalty:   1.3536369717671321E-005
 PAO|LS| adapt:  T T F
 PAO|LS| adapt: scan_steps:    0.0000000000000000       0.42166175934764238        0.0000000000000000     
 PAO|LS| adapt: energies:   -7.7105281506040226       -7.7106685343636023        0.0000000000000000     
 PAO| ======================= Iteration:        21 =============================

     Lanczos converged:  T threshold:   0.100E-02
     Est. extremal eigenvalues:    0.276E+01   0.198E+00
     Est. condition number :    0.140E+02
     NS sqrt iter    1 1.00000000   0.705E+00       0.001       56.228
     NS sqrt iter    2 1.00000000   0.324E+00       0.001      110.592
     NS sqrt iter    3 1.00000000   0.700E-01       0.001      110.592
     NS sqrt iter    4 1.00000000   0.136E-02       0.001      110.592
     NS sqrt iter    5 1.00000000   0.154E-07       0.002       32.225
     Final NS sqrt iter    5 1.00000000   0.313E-08

     Est. extremal eigenvalues     -0.91906     1.58155  converged:  T
     TRS4 it   1 1.00000000   0.836E+00       0.000       16.128   0.100E-07
     TRS4 it   2 1.00000000   0.590E+00       0.001       32.256   0.100E-07
     TRS4 it   3 1.00000000   0.398E+00       0.001       32.256   0.100E-07
     TRS4 it   4 1.00000000   0.199E+00       0.001       32.256   0.100E-07
     TRS4 it   5 1.00000000   0.611E-01       0.001       32.256   0.100E-07
     TRS4 it   6 1.00000000   0.697E-02       0.001       32.256   0.100E-07
     TRS4 it   7 1.00000000   0.120E-03       0.001       32.256   0.100E-07
     TRS4 it   8 1.00000000   0.508E-07       0.001       32.256   0.100E-07
     Final TRS4 iteration    8 1.00000000   0.508E-07
     Chemical potential (mu):       0.00003
 
 PAO| energy:  -7.7105611349144390      penalty:   1.3037946936162558E-005
 PAO|LS| Need extra step
 PAO|LS| adapt:  T T T
 PAO|LS| adapt: scan_steps:    0.0000000000000000       0.42166175934764238       0.84332351869528477     
 PAO|LS| adapt: energies:   -7.7105281506040226       -7.7106685343636023       -7.7105611349144390     
 PAO|LS| adapt: suggested step_size:   0.44972706375540455     
 PAO|LS| adapt: predicted energy  -7.7106690832127036     
 PAO| ======================= Iteration:        22 =============================

     Lanczos converged:  T threshold:   0.100E-02
     Est. extremal eigenvalues:    0.276E+01   0.198E+00
     Est. condition number :    0.140E+02
     NS sqrt iter    1 1.00000000   0.706E+00       0.001       46.385
     NS sqrt iter    2 1.00000000   0.324E+00       0.001      107.346
     NS sqrt iter    3 1.00000000   0.697E-01       0.001      110.592
     NS sqrt iter    4 1.00000000   0.135E-02       0.001      110.592
     NS sqrt iter    5 1.00000000   0.153E-07       0.001       49.792
     Final NS sqrt iter    5 1.00000000   0.308E-08

     Est. extremal eigenvalues     -0.91906     1.58091  converged:  T
     TRS4 it   1 1.00000000   0.836E+00       0.001       15.026   0.100E-07
     TRS4 it   2 1.00000000   0.590E+00       0.002       21.488   0.100E-07
     TRS4 it   3 1.00000000   0.399E+00       0.001       32.256   0.100E-07
     TRS4 it   4 1.00000000   0.199E+00       0.001       32.256   0.100E-07
     TRS4 it   5 1.00000000   0.613E-01       0.001       32.256   0.100E-07
     TRS4 it   6 1.00000000   0.699E-02       0.001       32.256   0.100E-07
     TRS4 it   7 1.00000000   0.119E-03       0.001       32.256   0.100E-07
     TRS4 it   8 1.00000000   0.500E-07       0.001       32.256   0.100E-07
     Final TRS4 iteration    8 1.00000000   0.500E-07
     Chemical potential (mu):       0.00019
 
 PAO| energy:  -7.7106691287145965      penalty:   1.3501940515505705E-005
 PAO|CG| trace_G_new    2.0194406933697631E-004
 PAO|CG| trace_G_prev    6.2307795522752478E-004
 PAO|CG| trace_G_mix    2.9604763174695978E-006
 PAO|CG| trace_D    8.4042020770331487E-004
 PAO|CG| trace_D_Gnew  -1.6046360222014650E-006
 PAO|CG| beta:   0.31935585483335760     
 PAO| norm of gradient:   1.4210702633472289E-002
 PAO| energy improvement:  -1.4097811057389720E-004
 PAO| step     22                   -7.710669129  0.888E-03  0.450E+00     0.072
 PAO|LS| adapt:  T F F
 PAO|LS| adapt: scan_steps:    0.0000000000000000        0.0000000000000000        0.0000000000000000     
 PAO|LS| adapt: energies:   -7.7106691287145965        0.0000000000000000        0.0000000000000000     
 PAO| ======================= Iteration:        23 =============================

     Lanczos converged:  T threshold:   0.100E-02
     Est. extremal eigenvalues:    0.276E+01   0.198E+00
     Est. condition number :    0.140E+02
     NS sqrt iter    1 1.00000000   0.706E+00       0.001       63.546
     NS sqrt iter    2 1.00000000   0.324E+00       0.001      110.592
     NS sqrt iter    3 1.00000000   0.698E-01       0.001      110.592
     NS sqrt iter    4 1.00000000   0.135E-02       0.001      110.592
     NS sqrt iter    5 1.00000000   0.153E-07       0.001       49.792
     Final NS sqrt iter    5 1.00000000   0.308E-08

     Est. extremal eigenvalues     -0.91906     1.58110  converged:  T
     TRS4 it   1 1.00000000   0.836E+00       0.000       16.128   0.100E-07
     TRS4 it   2 1.00000000   0.591E+00       0.001       32.256   0.100E-07
     TRS4 it   3 1.00000000   0.399E+00       0.001       32.256   0.100E-07
     TRS4 it   4 1.00000000   0.199E+00       0.001       32.256   0.100E-07
     TRS4 it   5 1.00000000   0.613E-01       0.001       32.256   0.100E-07
     TRS4 it   6 1.00000000   0.701E-02       0.001       32.256   0.100E-07
     TRS4 it   7 1.00000000   0.120E-03       0.001       32.256   0.100E-07
     TRS4 it   8 1.00000000   0.508E-07       0.001       32.256   0.100E-07
     Final TRS4 iteration    8 1.00000000   0.508E-07
     Chemical potential (mu):       0.00005
 
 PAO| energy:  -7.7107166428676930      penalty:   1.2844597458715122E-005
 PAO|LS| adapt:  T T F
 PAO|LS| adapt: scan_steps:    0.0000000000000000       0.44972706375540455        0.0000000000000000     
 PAO|LS| adapt: energies:   -7.7106691287145965       -7.7107166428676930        0.0000000000000000     
 PAO| ======================= Iteration:        24 =============================

     Lanczos converged:  T threshold:   0.100E-02
     Est. extremal eigenvalues:    0.276E+01   0.198E+00
     Est. condition number :    0.140E+02
     NS sqrt iter    1 1.00000000   0.705E+00       0.002       38.463
     NS sqrt iter    2 1.00000000   0.324E+00       0.002       73.394
     NS sqrt iter    3 1.00000000   0.698E-01       0.001      104.802
     NS sqrt iter    4 1.00000000   0.135E-02       0.001      110.592
     NS sqrt iter    5 1.00000000   0.153E-07       0.001       49.792
     Final NS sqrt iter    5 1.00000000   0.307E-08

     Est. extremal eigenvalues     -0.91906     1.58128  converged:  T
     TRS4 it   1 1.00000000   0.836E+00       0.000       16.128   0.100E-07
     TRS4 it   2 1.00000000   0.591E+00       0.001       32.256   0.100E-07
     TRS4 it   3 1.00000000   0.399E+00       0.001       32.256   0.100E-07
     TRS4 it   4 1.00000000   0.199E+00       0.001       32.256   0.100E-07
     TRS4 it   5 1.00000000   0.614E-01       0.001       32.256   0.100E-07
     TRS4 it   6 1.00000000   0.703E-02       0.001       32.256   0.100E-07
     TRS4 it   7 1.00000000   0.121E-03       0.001       32.256   0.100E-07
     TRS4 it   8 1.00000000   0.517E-07       0.001       32.256   0.100E-07
     Final TRS4 iteration    8 1.00000000   0.517E-07
     Chemical potential (mu):      -0.00009
 
 PAO| energy:  -7.7106764261417489      penalty:   1.2213892998976407E-005
 PAO|LS| adapt:  T T T
 PAO|LS| adapt: scan_steps:    0.0000000000000000       0.44972706375540455       0.89945412751080911     
 PAO|LS| adapt: energies:   -7.7106691287145965       -7.7107166428676930       -7.7106764261417489     
 PAO|LS| adapt: suggested step_size:   0.46843114219435983     
 PAO|LS| adapt: predicted energy  -7.7107167187424075     
 PAO| ======================= Iteration:        25 =============================

     Lanczos converged:  T threshold:   0.100E-02
     Est. extremal eigenvalues:    0.276E+01   0.198E+00
     Est. condition number :    0.140E+02
     NS sqrt iter    1 1.00000000   0.706E+00       0.001       57.957
     NS sqrt iter    2 1.00000000   0.324E+00       0.002       50.869
     NS sqrt iter    3 1.00000000   0.698E-01       0.001       92.755
     NS sqrt iter    4 1.00000000   0.135E-02       0.001      110.592
     NS sqrt iter    5 1.00000000   0.153E-07       0.001       49.792
     Final NS sqrt iter    5 1.00000000   0.308E-08

     Est. extremal eigenvalues     -0.91906     1.58111  converged:  T
     TRS4 it   1 1.00000000   0.836E+00       0.000       16.128   0.100E-07
     TRS4 it   2 1.00000000   0.591E+00       0.001       32.256   0.100E-07
     TRS4 it   3 1.00000000   0.399E+00       0.001       32.256   0.100E-07
     TRS4 it   4 1.00000000   0.199E+00       0.001       32.256   0.100E-07
     TRS4 it   5 1.00000000   0.613E-01       0.001       32.256   0.100E-07
     TRS4 it   6 1.00000000   0.701E-02       0.001       32.256   0.100E-07
     TRS4 it   7 1.00000000   0.120E-03       0.001       32.256   0.100E-07
     TRS4 it   8 1.00000000   0.509E-07       0.001       32.256   0.100E-07
     Final TRS4 iteration    8 1.00000000   0.509E-07
     Chemical potential (mu):       0.00005
 
 PAO| energy:  -7.7107167255877220      penalty:   1.2817839253728063E-005
 PAO|CG| trace_G_new    5.7827518207290230E-005
 PAO|CG| trace_G_prev    2.0194406933697631E-004
 PAO|CG| trace_G_mix    8.3166001477230984E-007
 PAO|CG| trace_D    2.8868188145916509E-004
 PAO|CG| trace_D_Gnew  -3.6630142330457014E-007
 PAO|CG| beta:   0.28223586055112676     
 PAO| norm of gradient:   7.6044406899712378E-003
 PAO| energy improvement:  -4.7596873125499428E-005
 PAO| step     25                   -7.710716726  0.475E-03  0.468E+00     0.056
 PAO|LS| adapt:  T F F
 PAO|LS| adapt: scan_steps:    0.0000000000000000        0.0000000000000000        0.0000000000000000     
 PAO|LS| adapt: energies:   -7.7107167255877220        0.0000000000000000        0.0000000000000000     
 PAO| ======================= Iteration:        26 =============================

     Lanczos converged:  T threshold:   0.100E-02
     Est. extremal eigenvalues:    0.276E+01   0.198E+00
     Est. condition number :    0.140E+02
     NS sqrt iter    1 1.00000000   0.705E+00       0.001       64.512
     NS sqrt iter    2 1.00000000   0.324E+00       0.001      110.592
     NS sqrt iter    3 1.00000000   0.696E-01       0.001      110.592
     NS sqrt iter    4 1.00000000   0.134E-02       0.001       73.809
     NS sqrt iter    5 1.00000000   0.153E-07       0.001       49.792
     Final NS sqrt iter    5 1.00000000   0.368E-08

     Est. extremal eigenvalues     -0.91907     1.58095  converged:  T
     TRS4 it   1 1.00000000   0.836E+00       0.000       16.128   0.100E-07
     TRS4 it   2 1.00000000   0.590E+00       0.001       32.256   0.100E-07
     TRS4 it   3 1.00000000   0.399E+00       0.001       32.256   0.100E-07
     TRS4 it   4 1.00000000   0.199E+00       0.001       32.256   0.100E-07
     TRS4 it   5 1.00000000   0.612E-01       0.001       32.256   0.100E-07
     TRS4 it   6 1.00000000   0.697E-02       0.001       32.256   0.100E-07
     TRS4 it   7 1.00000000   0.119E-03       0.001       32.256   0.100E-07
     TRS4 it   8 1.00000000   0.496E-07       0.001       32.256   0.100E-07
     Final TRS4 iteration    8 1.00000000   0.496E-07
     Chemical potential (mu):       0.00027
 
 PAO| energy:  -7.7107194041497156      penalty:   1.2150047348584233E-005
 PAO|LS| adapt:  T T F
 PAO|LS| adapt: scan_steps:    0.0000000000000000       0.46843114219435983        0.0000000000000000     
 PAO|LS| adapt: energies:   -7.7107167255877220       -7.7107194041497156        0.0000000000000000     
 PAO| ======================= Iteration:        27 =============================

     Lanczos converged:  T threshold:   0.100E-02
     Est. extremal eigenvalues:    0.276E+01   0.198E+00
     Est. condition number :    0.140E+02
     NS sqrt iter    1 1.00000000   0.705E+00       0.001       64.512
     NS sqrt iter    2 1.00000000   0.323E+00       0.001      110.592
     NS sqrt iter    3 1.00000000   0.695E-01       0.001      109.171
     NS sqrt iter    4 1.00000000   0.134E-02       0.001      110.592
     NS sqrt iter    5 1.00000000   0.153E-07       0.001       49.792
     Final NS sqrt iter    5 1.00000000   0.368E-08

     Est. extremal eigenvalues     -0.91907     1.58080  converged:  T
     TRS4 it   1 1.00000000   0.836E+00       0.000       16.128   0.100E-07
     TRS4 it   2 1.00000000   0.590E+00       0.001       32.256   0.100E-07
     TRS4 it   3 1.00000000   0.398E+00       0.001       32.256   0.100E-07
     TRS4 it   4 1.00000000   0.199E+00       0.001       32.256   0.100E-07
     TRS4 it   5 1.00000000   0.611E-01       0.001       30.750   0.100E-07
     TRS4 it   6 1.00000000   0.694E-02       0.001       32.256   0.100E-07
     TRS4 it   7 1.00000000   0.117E-03       0.001       32.256   0.100E-07
     TRS4 it   8 1.00000000   0.483E-07       0.001       32.256   0.100E-07
     Final TRS4 iteration    8 1.00000000   0.483E-07
     Chemical potential (mu):       0.00050
 
 PAO| energy:  -7.7106731049053359      penalty:   1.1503079750790415E-005
 PAO|LS| adapt:  T T T
 PAO|LS| adapt: scan_steps:    0.0000000000000000       0.46843114219435983       0.93686228438871966     
 PAO|LS| adapt: energies:   -7.7107167255877220       -7.7107194041497156       -7.7106731049053359     
 PAO|LS| adapt: suggested step_size:   0.25983374281583116     
 PAO|LS| adapt: predicted energy  -7.7107242603388571     
 PAO| ======================= Iteration:        28 =============================

     Lanczos converged:  T threshold:   0.100E-02
     Est. extremal eigenvalues:    0.276E+01   0.198E+00
     Est. condition number :    0.140E+02
     NS sqrt iter    1 1.00000000   0.705E+00       0.001       64.512
     NS sqrt iter    2 1.00000000   0.324E+00       0.001      110.592
     NS sqrt iter    3 1.00000000   0.697E-01       0.001      110.592
     NS sqrt iter    4 1.00000000   0.135E-02       0.001      110.592
     NS sqrt iter    5 1.00000000   0.153E-07       0.001       42.575
     Final NS sqrt iter    5 1.00000000   0.307E-08

     Est. extremal eigenvalues     -0.91907     1.58102  converged:  T
     TRS4 it   1 1.00000000   0.836E+00       0.000       16.128   0.100E-07
     TRS4 it   2 1.00000000   0.591E+00       0.001       32.256   0.100E-07
     TRS4 it   3 1.00000000   0.399E+00       0.001       32.256   0.100E-07
     TRS4 it   4 1.00000000   0.199E+00       0.001       32.256   0.100E-07
     TRS4 it   5 1.00000000   0.613E-01       0.001       32.256   0.100E-07
     TRS4 it   6 1.00000000   0.699E-02       0.001       32.256   0.100E-07
     TRS4 it   7 1.00000000   0.119E-03       0.001       31.614   0.100E-07
     TRS4 it   8 1.00000000   0.501E-07       0.001       31.462   0.100E-07
     Final TRS4 iteration    8 1.00000000   0.501E-07
     Chemical potential (mu):       0.00017
 
 PAO| energy:  -7.7107242551141075      penalty:   1.2444836733721140E-005
 PAO|CG| trace_G_new    3.2855359730001107E-005
 PAO|CG| trace_G_prev    5.7827518207290230E-005
 PAO|CG| trace_G_mix    6.0379733687913943E-010
 PAO|CG| trace_D    8.1029841011295435E-005
 PAO|CG| trace_D_Gnew  -9.6247140794986511E-009
 PAO|CG| beta:   0.56815088994295249     
 PAO| norm of gradient:   5.7319595017760816E-003
 PAO| energy improvement:  -7.5295263854968653E-006
 PAO| step     28                   -7.710724255  0.358E-03  0.260E+00     0.055
 PAO|LS| adapt:  T F F
 PAO|LS| adapt: scan_steps:    0.0000000000000000        0.0000000000000000        0.0000000000000000     
 PAO|LS| adapt: energies:   -7.7107242551141075        0.0000000000000000        0.0000000000000000     
 PAO| ======================= Iteration:        29 =============================

     Lanczos converged:  T threshold:   0.100E-02
     Est. extremal eigenvalues:    0.276E+01   0.198E+00
     Est. condition number :    0.140E+02
     NS sqrt iter    1 1.00000000   0.705E+00       0.001       64.512
     NS sqrt iter    2 1.00000000   0.323E+00       0.001      110.592
     NS sqrt iter    3 1.00000000   0.696E-01       0.001      108.271
     NS sqrt iter    4 1.00000000   0.134E-02       0.001      104.784
     NS sqrt iter    5 1.00000000   0.153E-07       0.001       35.004
     Final NS sqrt iter    5 1.00000000   0.369E-08

     Est. extremal eigenvalues     -0.91907     1.58110  converged:  T
     TRS4 it   1 1.00000000   0.836E+00       0.000       16.128   0.100E-07
     TRS4 it   2 1.00000000   0.590E+00       0.001       32.256   0.100E-07
     TRS4 it   3 1.00000000   0.399E+00       0.001       32.256   0.100E-07
     TRS4 it   4 1.00000000   0.199E+00       0.001       32.256   0.100E-07
     TRS4 it   5 1.00000000   0.612E-01       0.001       32.256   0.100E-07
     TRS4 it   6 1.00000000   0.696E-02       0.001       32.256   0.100E-07
     TRS4 it   7 1.00000000   0.118E-03       0.001       32.256   0.100E-07
     TRS4 it   8 1.00000000   0.492E-07       0.001       32.256   0.100E-07
     Final TRS4 iteration    8 1.00000000   0.492E-07
     Chemical potential (mu):       0.00036
 
 PAO| energy:  -7.7107317123056376      penalty:   1.1976275210199280E-005
 PAO|LS| adapt:  T T F
 PAO|LS| adapt: scan_steps:    0.0000000000000000       0.25983374281583116        0.0000000000000000     
 PAO|LS| adapt: energies:   -7.7107242551141075       -7.7107317123056376        0.0000000000000000     
 PAO| ======================= Iteration:        30 =============================

     Lanczos converged:  T threshold:   0.100E-02
     Est. extremal eigenvalues:    0.276E+01   0.198E+00
     Est. condition number :    0.140E+02
     NS sqrt iter    1 1.00000000   0.705E+00       0.002       41.403
     NS sqrt iter    2 1.00000000   0.323E+00       0.001      110.592
     NS sqrt iter    3 1.00000000   0.695E-01       0.001      110.592
     NS sqrt iter    4 1.00000000   0.134E-02       0.001      110.592
     NS sqrt iter    5 1.00000000   0.154E-07       0.001       49.792
     Final NS sqrt iter    5 1.00000000   0.370E-08

     Est. extremal eigenvalues     -0.91907     1.58118  converged:  T
     TRS4 it   1 1.00000000   0.836E+00       0.001       16.128   0.100E-07
     TRS4 it   2 1.00000000   0.590E+00       0.001       30.901   0.100E-07
     TRS4 it   3 1.00000000   0.398E+00       0.001       32.256   0.100E-07
     TRS4 it   4 1.00000000   0.199E+00       0.001       32.256   0.100E-07
     TRS4 it   5 1.00000000   0.611E-01       0.001       32.256   0.100E-07
     TRS4 it   6 1.00000000   0.694E-02       0.001       32.256   0.100E-07
     TRS4 it   7 1.00000000   0.117E-03       0.001       32.256   0.100E-07
     TRS4 it   8 1.00000000   0.483E-07       0.001       32.256   0.100E-07
     Final TRS4 iteration    8 1.00000000   0.483E-07
     Chemical potential (mu):       0.00054
 
 PAO| energy:  -7.7107370062891958      penalty:   1.1517611492178353E-005
 PAO|LS| adapt:  T T F
 PAO|LS| adapt: scan_steps:    0.0000000000000000       0.51966748563166232        0.0000000000000000     
 PAO|LS| adapt: energies:   -7.7107242551141075       -7.7107370062891958        0.0000000000000000     
 PAO| ======================= Iteration:        31 =============================

     Lanczos converged:  T threshold:   0.100E-02
     Est. extremal eigenvalues:    0.276E+01   0.197E+00
     Est. condition number :    0.140E+02
     NS sqrt iter    1 1.00000000   0.704E+00       0.001       63.023
     NS sqrt iter    2 1.00000000   0.323E+00       0.001      110.592
     NS sqrt iter    3 1.00000000   0.693E-01       0.001      110.592
     NS sqrt iter    4 1.00000000   0.133E-02       0.001      110.592
     NS sqrt iter    5 1.00000000   0.154E-07       0.001       49.792
     Final NS sqrt iter    5 1.00000000   0.371E-08

     Est. extremal eigenvalues     -0.91908     1.58133  converged:  T
     TRS4 it   1 1.00000000   0.836E+00       0.001       14.464   0.100E-07
     TRS4 it   2 1.00000000   0.590E+00       0.001       32.256   0.100E-07
     TRS4 it   3 1.00000000   0.398E+00       0.001       32.256   0.100E-07
     TRS4 it   4 1.00000000   0.199E+00       0.001       32.256   0.100E-07
     TRS4 it   5 1.00000000   0.609E-01       0.001       32.256   0.100E-07
     TRS4 it   6 1.00000000   0.688E-02       0.001       32.256   0.100E-07
     TRS4 it   7 1.00000000   0.115E-03       0.001       32.256   0.100E-07
     TRS4 it   8 1.00000000   0.464E-07       0.001       32.256   0.100E-07
     Final TRS4 iteration    8 1.00000000   0.464E-07
     Chemical potential (mu):       0.00091
 
 PAO| energy:  -7.7107411113994377      penalty:   1.0629766391392793E-005
 PAO|LS| Need extra step
 PAO|LS| adapt:  T T F
 PAO|LS| adapt: scan_steps:    0.0000000000000000        1.0393349712633246        0.0000000000000000     
 PAO|LS| adapt: energies:   -7.7107242551141075       -7.7107411113994377        0.0000000000000000     
 PAO| ======================= Iteration:        32 =============================

     Lanczos converged:  T threshold:   0.100E-02
     Est. extremal eigenvalues:    0.275E+01   0.197E+00
     Est. condition number :    0.140E+02
     NS sqrt iter    1 1.00000000   0.703E+00       0.001       64.512
     NS sqrt iter    2 1.00000000   0.322E+00       0.001      110.592
     NS sqrt iter    3 1.00000000   0.689E-01       0.001      107.431
     NS sqrt iter    4 1.00000000   0.132E-02       0.001      108.873
     NS sqrt iter    5 1.00000000   0.155E-07       0.001       49.920
     Final NS sqrt iter    5 1.00000000   0.376E-08

     Est. extremal eigenvalues     -0.91910     1.58161  converged:  T
     TRS4 it   1 1.00000000   0.837E+00       0.000       16.128   0.100E-07
     TRS4 it   2 1.00000000   0.590E+00       0.001       32.256   0.100E-07
     TRS4 it   3 1.00000000   0.398E+00       0.001       32.256   0.100E-07
     TRS4 it   4 1.00000000   0.198E+00       0.001       32.256   0.100E-07
     TRS4 it   5 1.00000000   0.605E-01       0.001       32.256   0.100E-07
     TRS4 it   6 1.00000000   0.678E-02       0.001       32.256   0.100E-07
     TRS4 it   7 1.00000000   0.111E-03       0.001       32.256   0.100E-07
     TRS4 it   8 1.00000000   0.429E-07       0.001       32.256   0.100E-07
     Final TRS4 iteration    8 1.00000000   0.429E-07
     Chemical potential (mu):       0.00164
 
 PAO| energy:  -7.7107234325387974      penalty:   8.9705381797476968E-006
 PAO|LS| Need extra step
 PAO|LS| adapt:  T T T
 PAO|LS| adapt: scan_steps:    0.0000000000000000        1.0393349712633246        2.0786699425266493     
 PAO|LS| adapt: energies:   -7.7107242551141075       -7.7107411113994377       -7.7107234325387974     
 PAO|LS| adapt: suggested step_size:    1.0269572722230058     
 PAO|LS| adapt: predicted energy  -7.7107411138485018     
 PAO| ======================= Iteration:        33 =============================

     Lanczos converged:  T threshold:   0.100E-02
     Est. extremal eigenvalues:    0.276E+01   0.197E+00
     Est. condition number :    0.140E+02
     NS sqrt iter    1 1.00000000   0.704E+00       0.002       42.603
     NS sqrt iter    2 1.00000000   0.323E+00       0.001      110.592
     NS sqrt iter    3 1.00000000   0.693E-01       0.001      110.592
     NS sqrt iter    4 1.00000000   0.133E-02       0.001      110.592
     NS sqrt iter    5 1.00000000   0.154E-07       0.001       49.792
     Final NS sqrt iter    5 1.00000000   0.371E-08

     Est. extremal eigenvalues     -0.91908     1.58133  converged:  T
     TRS4 it   1 1.00000000   0.836E+00       0.001       16.128   0.100E-07
     TRS4 it   2 1.00000000   0.590E+00       0.002       20.458   0.100E-07
     TRS4 it   3 1.00000000   0.398E+00       0.001       32.256   0.100E-07
     TRS4 it   4 1.00000000   0.199E+00       0.001       32.256   0.100E-07
     TRS4 it   5 1.00000000   0.609E-01       0.001       32.256   0.100E-07
     TRS4 it   6 1.00000000   0.689E-02       0.001       32.256   0.100E-07
     TRS4 it   7 1.00000000   0.115E-03       0.001       32.256   0.100E-07
     TRS4 it   8 1.00000000   0.465E-07       0.001       32.256   0.100E-07
     Final TRS4 iteration    8 1.00000000   0.465E-07
     Chemical potential (mu):       0.00090
 
 PAO| energy:  -7.7107411140378730      penalty:   1.0650458935666198E-005
 PAO|CG| trace_G_new    8.5182628992228065E-005
 PAO|CG| trace_G_prev    3.2855359730001107E-005
 PAO|CG| trace_G_mix    8.4892357179094888E-008
 PAO|CG| trace_D    5.9022358985105468E-005
 PAO|CG| trace_D_Gnew   1.9331684370865034E-008
 PAO|CG| beta:    2.5900716758046620     
 PAO| norm of gradient:   9.2294435906087012E-003
 PAO| energy improvement:  -1.6858923765461498E-005
 PAO| step     33                   -7.710741114  0.577E-03  0.103E+01     0.088
 PAO|LS| adapt:  T F F
 PAO|LS| adapt: scan_steps:    0.0000000000000000        0.0000000000000000        0.0000000000000000     
 PAO|LS| adapt: energies:   -7.7107411140378730        0.0000000000000000        0.0000000000000000     
 PAO| ======================= Iteration:        34 =============================

     Lanczos converged:  T threshold:   0.100E-02
     Est. extremal eigenvalues:    0.275E+01   0.196E+00
     Est. condition number :    0.140E+02
     NS sqrt iter    1 1.00000000   0.700E+00       0.001       48.603
     NS sqrt iter    2 1.00000000   0.321E+00       0.001      102.993
     NS sqrt iter    3 1.00000000   0.683E-01       0.001      110.592
     NS sqrt iter    4 1.00000000   0.131E-02       0.001      108.323
     NS sqrt iter    5 1.00000000   0.158E-07       0.001       50.048
     Final NS sqrt iter    5 1.00000000   0.382E-08

     Est. extremal eigenvalues     -0.91912     1.58135  converged:  T
     TRS4 it   1 1.00000000   0.838E+00       0.000       16.128   0.100E-07
     TRS4 it   2 1.00000000   0.590E+00       0.001       32.256   0.100E-07
     TRS4 it   3 1.00000000   0.397E+00       0.001       32.256   0.100E-07
     TRS4 it   4 1.00000000   0.197E+00       0.001       32.256   0.100E-07
     TRS4 it   5 1.00000000   0.598E-01       0.001       32.256   0.100E-07
[...]
 PAO| ======================= Iteration:       960 =============================

     Lanczos converged:  T threshold:   0.100E-02
     Est. extremal eigenvalues:    0.249E+01   0.219E+00
     Est. condition number :    0.113E+02
     NS sqrt iter    1 1.00000000   0.632E+00       0.001       64.512
     NS sqrt iter    2 1.00000000   0.265E+00       0.001      110.592
     NS sqrt iter    3 1.00000000   0.405E-01       0.001      110.592
     NS sqrt iter    4 1.00000000   0.357E-03       0.001      102.729
     NS sqrt iter    5 1.00000000   0.618E-09       0.001       36.864
     Final NS sqrt iter    5 1.00000000   0.928E-10

     Est. extremal eigenvalues     -0.91892     1.46552  converged:  T
     TRS4 it   1 1.00000000   0.824E+00       0.000       16.128   0.100E-07
     TRS4 it   2 1.00000000   0.594E+00       0.001       32.256   0.100E-07
     TRS4 it   3 1.00000000   0.425E+00       0.001       32.256   0.100E-07
     TRS4 it   4 1.00000000   0.257E+00       0.001       32.256   0.100E-07
     TRS4 it   5 1.00000000   0.119E+00       0.001       32.256   0.100E-07
     TRS4 it   6 1.00000000   0.329E-01       0.001       32.256   0.100E-07
     TRS4 it   7 1.00000000   0.355E-02       0.001       32.256   0.100E-07
     TRS4 it   8 1.00000000   0.509E-04       0.001       32.256   0.100E-07
     TRS4 it   9 1.00000000   0.112E-07       0.001       30.735   0.100E-07
     Final TRS4 iteration    9 1.00000000   0.112E-07
     Chemical potential (mu):      -0.08166
 
 PAO| energy:  -7.7106276893839398      penalty:   8.4441073369350180E-012
 PAO|LS| Need extra step
 PAO|LS| adapt:  T T T
 PAO|LS| adapt: scan_steps:    0.0000000000000000       0.20000000000000001       0.40000000000000002     
 PAO|LS| adapt: energies:   -7.7106276893669863       -7.7106276893853325       -7.7106276893839398     
 PAO|LS| adapt: suggested step_size:   0.28588912886969053     
 PAO|LS| adapt: predicted energy  -7.7106276893871524     
 PAO| ======================= Iteration:       961 =============================

     Lanczos converged:  T threshold:   0.100E-02
     Est. extremal eigenvalues:    0.249E+01   0.219E+00
     Est. condition number :    0.113E+02
     NS sqrt iter    1 1.00000000   0.632E+00       0.001       55.688
     NS sqrt iter    2 1.00000000   0.265E+00       0.001      110.124
     NS sqrt iter    3 1.00000000   0.405E-01       0.001      110.592
     NS sqrt iter    4 1.00000000   0.357E-03       0.001      103.721
     NS sqrt iter    5 1.00000000   0.618E-09       0.001       36.864
     Final NS sqrt iter    5 1.00000000   0.928E-10

     Est. extremal eigenvalues     -0.91892     1.46552  converged:  T
     TRS4 it   1 1.00000000   0.824E+00       0.000       16.128   0.100E-07
     TRS4 it   2 1.00000000   0.594E+00       0.001       32.256   0.100E-07
     TRS4 it   3 1.00000000   0.425E+00       0.001       32.256   0.100E-07
     TRS4 it   4 1.00000000   0.257E+00       0.001       24.684   0.100E-07
     TRS4 it   5 1.00000000   0.119E+00       0.001       32.256   0.100E-07
     TRS4 it   6 1.00000000   0.329E-01       0.001       32.256   0.100E-07
     TRS4 it   7 1.00000000   0.355E-02       0.001       32.256   0.100E-07
     TRS4 it   8 1.00000000   0.509E-04       0.001       32.256   0.100E-07
     TRS4 it   9 1.00000000   0.112E-07       0.001       32.256   0.100E-07
     Final TRS4 iteration    9 1.00000000   0.112E-07
     Chemical potential (mu):      -0.08166
 
 PAO| energy:  -7.7106276893871524      penalty:   8.4767952451674486E-012
 PAO|CG| warming up with steepest descent
 PAO|CG| beta:    0.0000000000000000     
 PAO| norm of gradient:   7.0815471618922715E-006
 PAO| energy improvement:  -2.0166091019291343E-011
 PAO| step    961                   -7.710627689  0.443E-06  0.286E+00     0.076
 PAO| converged after          961  steps :-)
 PAO| Recalculating energy after mixing.

     Lanczos converged:  T threshold:   0.100E-02
     Est. extremal eigenvalues:    0.249E+01   0.219E+00
     Est. condition number :    0.113E+02
     NS sqrt iter    1 1.00000000   0.632E+00       0.001       49.575
     NS sqrt iter    2 1.00000000   0.265E+00       0.001      110.592
     NS sqrt iter    3 1.00000000   0.405E-01       0.001      110.592
     NS sqrt iter    4 1.00000000   0.357E-03       0.001      109.568
     NS sqrt iter    5 1.00000000   0.618E-09       0.001       36.864
     Final NS sqrt iter    5 1.00000000   0.928E-10

     Est. extremal eigenvalues     -0.91892     1.46552  converged:  T
     TRS4 it   1 1.00000000   0.824E+00       0.001       16.128   0.100E-07
     TRS4 it   2 1.00000000   0.594E+00       0.001       32.256   0.100E-07
     TRS4 it   3 1.00000000   0.425E+00       0.001       32.256   0.100E-07
     TRS4 it   4 1.00000000   0.257E+00       0.001       32.256   0.100E-07
     TRS4 it   5 1.00000000   0.119E+00       0.001       32.256   0.100E-07
     TRS4 it   6 1.00000000   0.329E-01       0.001       32.256   0.100E-07
     TRS4 it   7 1.00000000   0.355E-02       0.001       32.256   0.100E-07
     TRS4 it   8 1.00000000   0.509E-04       0.001       32.256   0.100E-07
     TRS4 it   9 1.00000000   0.112E-07       0.001       32.256   0.100E-07
     Final TRS4 iteration    9 1.00000000   0.112E-07
     Chemical potential (mu):      -0.08166
 
 PAO| energy:  -7.7106276893821093      penalty:   8.5179731213885655E-012
 PAO| Writing restart file.
     Est. extremal eigenvalues     -0.91892     1.46552  converged:  T
     TRS4 it   1 1.00000000   0.824E+00       0.000       16.128   0.100E-07
     TRS4 it   2 1.00000000   0.594E+00       0.001       32.256   0.100E-07
     TRS4 it   3 1.00000000   0.425E+00       0.001       32.256   0.100E-07
     TRS4 it   4 1.00000000   0.257E+00       0.001       32.256   0.100E-07
     TRS4 it   5 1.00000000   0.119E+00       0.001       32.256   0.100E-07
     TRS4 it   6 1.00000000   0.329E-01       0.001       32.256   0.100E-07
     TRS4 it   7 1.00000000   0.355E-02       0.001       32.256   0.100E-07
     TRS4 it   8 1.00000000   0.509E-04       0.001       32.256   0.100E-07
     TRS4 it   9 1.00000000   0.112E-07       0.001       32.256   0.100E-07
     Final TRS4 iteration    9 1.00000000   0.112E-07
     Chemical potential (mu):      -0.08166

 SCF     1       -34.447977735       -34.447977735    2.312486

*********************************************************
 Using MIXING_FRACTION=0.450 to mix KS matrix:  iscf=  2
 KS_nw=0.450*KS + 0.550*KS_old
*********************************************************
     Est. extremal eigenvalues     -0.91892     1.46552  converged:  T
     TRS4 it   1 1.00000000   0.824E+00       0.000       16.128   0.100E-07
     TRS4 it   2 1.00000000   0.594E+00       0.001       32.256   0.100E-07
     TRS4 it   3 1.00000000   0.425E+00       0.001       32.256   0.100E-07
     TRS4 it   4 1.00000000   0.257E+00       0.001       32.256   0.100E-07
     TRS4 it   5 1.00000000   0.119E+00       0.001       32.256   0.100E-07
     TRS4 it   6 1.00000000   0.329E-01       0.001       26.273   0.100E-07
     TRS4 it   7 1.00000000   0.355E-02       0.001       29.518   0.100E-07
     TRS4 it   8 1.00000000   0.509E-04       0.001       26.819   0.100E-07
     TRS4 it   9 1.00000000   0.112E-07       0.001       32.256   0.100E-07
     Final TRS4 iteration    9 1.00000000   0.112E-07
     Chemical potential (mu):      -0.08166

 SCF     2       -34.447977735         0.000000000    2.285573

 PAO| Storing density matrix for ASPC guess in slot:           1

 ENERGY| Total FORCE_EVAL ( QS ) energy (a.u.):              -34.447977735096046


 -------------------------------------------------------------------------------
 -                                                                             -
 -                                DBCSR STATISTICS                             -
 -                                                                             -
 -------------------------------------------------------------------------------
 COUNTER                                    TOTAL       BLAS       SMM       ACC
 flops     5 x     5 x     4                32000       0.0%    100.0%      0.0%
 flops    13 x     5 x     4                33280       0.0%    100.0%      0.0%
 flops     5 x    13 x     4                33280       0.0%    100.0%      0.0%
 flops    13 x    13 x     4                64896       0.0%    100.0%      0.0%
 flops     4 x     4 x     5              7511040       0.0%    100.0%      0.0%
 flops     5 x     4 x     5              9187200       0.0%    100.0%      0.0%
 flops     4 x     4 x    13              9764352       0.0%    100.0%      0.0%
 flops    13 x     4 x     5             11943360       0.0%    100.0%      0.0%
 flops     5 x     4 x    13             11943360       0.0%    100.0%      0.0%
 flops     5 x     4 x     4             14581280       0.0%    100.0%      0.0%
 flops    13 x     4 x    13             15526368       0.0%    100.0%      0.0%
 flops    13 x     4 x     4             19431360       0.0%    100.0%      0.0%
 flops     4 x     4 x     4            950706432       0.0%    100.0%      0.0%
 flops inhomo. stacks                           0       0.0%      0.0%      0.0%
 flops total                         1.050758E+09       0.0%    100.0%      0.0%
 flops max/rank                      1.050758E+09       0.0%    100.0%      0.0%
 matmuls inhomo. stacks                         0       0.0%      0.0%      0.0%
 matmuls total                            7739345       0.0%    100.0%      0.0%
 number of processed stacks                 62197       0.0%    100.0%      0.0%
 average stack size                                     0.0     124.4       0.0
 marketing flops                     1.716295E+09
 -------------------------------------------------------------------------------
 # multiplications                          51709
 max memory usage/rank             321.335296E+06
 # max total images/rank                        1
 # max 3D layers                                1
 # MPI messages exchanged                       0
 MPI messages size (bytes):
  total size                         0.000000E+00
  min size                           0.000000E+00
  max size                           0.000000E+00
  average size                       0.000000E+00
 MPI breakdown and total messages size (bytes):
             size <=      128                   0                        0
       128 < size <=     8192                   0                        0
      8192 < size <=    32768                   0                        0
     32768 < size <=   131072                   0                        0
    131072 < size <=  4194304                   0                        0
   4194304 < size <= 16777216                   0                        0
  16777216 < size                               0                        0
 -------------------------------------------------------------------------------

 MEMORY| Estimated peak process memory [MiB]                                 307

 -------------------------------------------------------------------------------
 -                                                                             -
 -                           R E F E R E N C E S                               -
 -                                                                             -
 -------------------------------------------------------------------------------
 
 CP2K version 7.0 (Development Version), the CP2K developers group (2018).
 CP2K is freely available from https://www.cp2k.org/ .

 Schuett, O; VandeVondele, J. 
 Journal of Chemical Theory and Computation, 14, (2018). 
 Machine Learning Adaptive Basis Sets for Efficient Large Scale Density Functional Theory Simulation.
 https://dx.doi.org/10.1021/acs.jctc.8b00378


 Schuett, Ole; Messmer, Peter; Hutter, Juerg; VandeVondele, Joost. 
 Electronic Structure Calculations on Graphics Processing Units, John Wiley & Sons, Ltd, 173-190 (2016). 
 GPU-Accelerated Sparse Matrix-Matrix Multiplication for Linear Scaling Density Functional Theory.
 https://dx.doi.org/10.1002/9781118670712.ch8


 Borstnik, U; VandeVondele, J; Weber, V; Hutter, J. 
 PARALLEL COMPUTING, 40 (5-6), 47-58 (2014). 
 Sparse matrix multiplication: The distributed block-compressed sparse
 row library.
 https://dx.doi.org/10.1016/j.parco.2014.03.012


 Hutter, J; Iannuzzi, M; Schiffmann, F; VandeVondele, J. 
 WILEY INTERDISCIPLINARY REVIEWS-COMPUTATIONAL MOLECULAR SCIENCE, 4 (1), 15-25 (2014). 
 CP2K: atomistic simulations of condensed matter systems.
 https://dx.doi.org/10.1002/wcms.1159


 VandeVondele, J; Borstnik, U; Hutter, J. 
 JOURNAL OF CHEMICAL THEORY AND COMPUTATION, 8 (10), 3565-3573 (2012). 
 Linear Scaling Self-Consistent Field Calculations with Millions of Atoms
 in the Condensed Phase.
 https://dx.doi.org/10.1021/ct200897x


 VandeVondele, J; Hutter, J. 
 JOURNAL OF CHEMICAL PHYSICS, 127 (11), 114105 (2007). 
 Gaussian basis sets for accurate calculations on molecular systems in
 gas and condensed phases.
 https://dx.doi.org/10.1063/1.2770708


 Krack, M. 
 THEORETICAL CHEMISTRY ACCOUNTS, 114 (1-3), 145-152 (2005). 
 Pseudopotentials for H to Kr optimized for gradient-corrected
 exchange-correlation functionals.
 https://dx.doi.org/10.1007/s00214-005-0655-y


 VandeVondele, J; Krack, M; Mohamed, F; Parrinello, M; Chassaing, T;
 Hutter, J. COMPUTER PHYSICS COMMUNICATIONS, 167 (2), 103-128 (2005). 
 QUICKSTEP: Fast and accurate density functional calculations using a
 mixed Gaussian and plane waves approach.
 https://dx.doi.org/10.1016/j.cpc.2004.12.014


 Frigo, M; Johnson, SG. 
 PROCEEDINGS OF THE IEEE, 93 (2), 216-231 (2005). 
 The design and implementation of FFTW3.
 https://dx.doi.org/10.1109/JPROC.2004.840301


 Niklasson, AMN; Tymczak, CJ; Challacombe, M. 
 JOURNAL OF CHEMICAL PHYSICS, 118 (19), 8611-8620 (2003). 
 Trace resetting density matrix purification in O(N)
 self-consistent-field theory.
 https://dx.doi.org/10.1063/1.1559913


 Hartwigsen, C; Goedecker, S; Hutter, J. 
 PHYSICAL REVIEW B, 58 (7), 3641-3662 (1998). 
 Relativistic separable dual-space Gaussian pseudopotentials from H to Rn.
 https://dx.doi.org/10.1103/PhysRevB.58.3641


 Lippert, G; Hutter, J; Parrinello, M. 
 MOLECULAR PHYSICS, 92 (3), 477-487 (1997). 
 A hybrid Gaussian and plane wave density functional scheme.
 https://dx.doi.org/10.1080/002689797170220


 Perdew, JP; Burke, K; Ernzerhof, M. 
 PHYSICAL REVIEW LETTERS, 77 (18), 3865-3868 (1996). 
 Generalized gradient approximation made simple.
 https://dx.doi.org/10.1103/PhysRevLett.77.3865


 Goedecker, S; Teter, M; Hutter, J. 
 PHYSICAL REVIEW B, 54 (3), 1703-1710 (1996). 
 Separable dual-space Gaussian pseudopotentials.
 https://dx.doi.org/10.1103/PhysRevB.54.1703


 -------------------------------------------------------------------------------
 -                                                                             -
 -                                T I M I N G                                  -
 -                                                                             -
 -------------------------------------------------------------------------------
 SUBROUTINE                       CALLS  ASD         SELF TIME        TOTAL TIME
                                MAXIMUM       AVERAGE  MAXIMUM  AVERAGE  MAXIMUM
 CP2K                                 1  1.0    0.026    0.026   56.172   56.172
 qs_energies                          1  2.0    0.000    0.000   55.742   55.742
 ls_scf                               1  3.0    0.000    0.000   55.606   55.606
 ls_scf_main                          7  4.0    0.002    0.002   34.582   34.582
 ls_scf_dm_to_ks                     15  5.0    0.000    0.000   34.440   34.440
 qs_ks_update_qs_env                 16  6.0    0.000    0.000   26.392   26.392
 rebuild_ks_matrix                   16  7.0    0.000    0.000   26.391   26.391
 qs_ks_build_kohn_sham_matrix        16  8.0    0.003    0.003   26.391   26.391
 pao_update                           7  4.0    0.027    0.027   18.558   18.558
 pao_calc_energy                    967  5.0    0.011    0.011   16.767   16.767
 qs_vxc_create                       16  9.0    0.000    0.000   15.194   15.194
 xc_vxc_pw_create                    16 10.0    0.293    0.293   15.193   15.193
 dbcsr_multiply_generic           51709  8.4    1.049    1.049   13.465   13.465
 xc_rho_set_and_dset_create          16 11.0    0.109    0.109   10.579   10.579
 qs_rho_update_rho                   16  6.0    0.000    0.000   10.415   10.415
 calculate_rho_elec                  16  7.0    8.120    8.120   10.414   10.414
 pw_transfer                        305 10.6    0.028    0.028   10.248   10.248
 fft_wrap_pw1pw2                    273 11.7    0.004    0.004    9.975    9.975
 fft_wrap_pw1pw2_200                177 12.8    1.019    1.019    9.540    9.540
 sum_up_and_integrate                16  9.0    0.063    0.063    9.258    9.258
 integrate_v_rspace                  16 10.0    7.961    7.961    9.195    9.195
 pao_dm_trs4                        967  6.0    0.011    0.011    8.663    8.663
 density_matrix_trs4                982  7.0    0.539    0.539    8.255    8.255
 ls_scf_init_matrix_S               974  7.0    0.011    0.011    8.050    8.050
 pao_rebuild_S                      967  6.0    0.008    0.008    7.996    7.996
 matrix_sqrt_Newton_Schulz          974  8.0    0.383    0.383    7.212    7.212
 xc_functional_eval                  16 12.0    0.000    0.000    6.691    6.691
 pbe_lda_eval                        16 13.0    6.691    6.691    6.691    6.691
 multiply_cannon                  51709  9.4    2.473    2.473    5.310    5.310
 fft3d_s                            274 13.6    5.175    5.175    5.191    5.191
 make_m2s                        103418  9.4    0.349    0.349    4.847    4.847
 make_images                     103418 10.4    1.250    1.250    4.295    4.295
 pao_guess_initial_P                  1  4.0    0.000    0.000    2.377    2.377
 pao_read_preopt_dm                   1  5.0    0.000    0.000    2.377    2.377
 density_rs2pw                       16  8.0    0.001    0.001    2.246    2.246
 arnoldi_extremal                  1956  8.5    0.015    0.015    2.200    2.200
 arnoldi_normal_ev                 1956  9.5    0.034    0.034    2.185    2.185
 pw_scatter_s                       144 14.2    1.976    1.976    1.976    1.976
 pao_calc_AB                       1273  5.8    0.002    0.002    1.749    1.749
 pao_calc_AB_direct                1273  6.8    0.063    0.063    1.747    1.747
 pw_gather_s                        129 13.1    1.743    1.743    1.743    1.743
 pao_calc_grad_lnv_wrt_AB           305  7.0    0.019    0.019    1.610    1.610
 build_subspace                    1956 10.5    0.130    0.130    1.557    1.557
 dbcsr_finalize                  122043  9.7    0.258    0.258    1.385    1.385
 dbcsr_matrix_vector_mult         46933 11.5    0.250    0.250    1.380    1.380
 dbcsr_create_new                395508 10.7    0.779    0.779    1.379    1.379
 pw_derive                           96 11.5    1.316    1.316    1.316    1.316
 potential_pw2rs                     16 11.0    0.007    0.007    1.232    1.232
 -------------------------------------------------------------------------------

 The number of warnings for this run is : 0
 
 -------------------------------------------------------------------------------
  **** **** ******  **  PROGRAM ENDED AT                 2019-02-14 01:18:26.160
 ***** ** ***  *** **   PROGRAM RAN ON                                      otto
 **    ****   ******    PROGRAM RAN BY                                       ole
 ***** **    ** ** **   PROGRAM PROCESS ID                                  6082
  **** **  *******  **  PROGRAM STOPPED IN /home/ole/git/pao_ml_equivar/2H2O_MD/
                                           frame_0375
