 DBCSR| CPU Multiplication driver                                           XSMM (U)
 DBCSR| Multrec recursion limit                                              512 (U)
 DBCSR| Multiplication stack size                                           1000 (D)
 DBCSR| Maximum elements for images                                    UNLIMITED (U)
 DBCSR| Multiplicative factor virtual images                                   1 (U)
 DBCSR| Use multiplication densification                                       T (D)
 DBCSR| Multiplication size stacks                                             3 (U)
 DBCSR| Use memory pool for CPU allocation                                     F (U)
 DBCSR| Number of 3D layers                                               SINGLE (U)
 DBCSR| Use MPI memory allocation                                              F (U)
 DBCSR| Use RMA algorithm                                                      F (U)
 DBCSR| Use Communication thread                                               T (U)
 DBCSR| Communication thread load                                             87 (D)
 DBCSR| MPI: My process id                                                     0
 DBCSR| MPI: Number of processes                                              32
 DBCSR| OMP: Current number of threads                                         1
 DBCSR| OMP: Max number of threads                                             1
 DBCSR| Split modifier for TAS multiplication algorithm                  1.0E+00 (U)


  **** **** ******  **  PROGRAM STARTED AT               2024-09-24 02:52:45.974
 ***** ** ***  *** **   PROGRAM STARTED ON                                moritz
 **    ****   ******    PROGRAM STARTED BY                                   ole
 ***** **    ** ** **   PROGRAM PROCESS ID                                167294
  **** **  *******  **  PROGRAM STARTED IN /home/ole/git/pao_ml_equivar/64H2O_MD
                                           /Frame3700

 CP2K| version string:                 CP2K version 2024.3 (Development Version)
 CP2K| source code revision number:                                  git:3f890bb
 CP2K| cp2kflags: omp libint fftw3 libxc libgrpp pexsi elpa parallel scalapack c
 CP2K|            osma quip deepmd xsmm plumed2 spglib libdftd4 sirius libvori l
 CP2K|            libbqb libvdwxc hdf5
 CP2K| is freely available from                            https://www.cp2k.org/
 CP2K| Program compiled at                          Mo 23 Sep 2024 17:17:04 CEST
 CP2K| Program compiled on                                                moritz
 CP2K| Program compiled for                                                local
 CP2K| Data directory path                               /home/ole/git/cp2k/data
 CP2K| Input file name                                           64H2O_pao44.inp

 GLOBAL| Force Environment number                                              1
 GLOBAL| Basis set file name                                        BASIS_MOLOPT
 GLOBAL| Potential file name                                      GTH_POTENTIALS
 GLOBAL| MM Potential file name                                     MM_POTENTIAL
 GLOBAL| Coordinate file name                                         coords.xyz
 GLOBAL| Method name                                                        CP2K
 GLOBAL| Project name                                                64H2O_pao44
 GLOBAL| Run type                                                         ENERGY
 GLOBAL| FFT library                                                       FFTW3
 GLOBAL| Diagonalization library                                            ELPA
 GLOBAL| DGEMM library                                                      BLAS
 GLOBAL| Minimum number of eigenvectors for ELPA usage                        16
 GLOBAL| Orthonormality check for eigenvectors                          DISABLED
 GLOBAL| Matrix multiplication library                                     COSMA
 GLOBAL| All-to-all communication in single precision                          F
 GLOBAL| FFTs using library dependent lengths                                  F
 GLOBAL| Grid backend                                                       AUTO
 GLOBAL| Global print level                                                  LOW
 GLOBAL| MPI I/O enabled                                                       T
 GLOBAL| Total number of message passing processes                            32
 GLOBAL| Number of threads for this process                                    1
 GLOBAL| This output is from process                                           0
 GLOBAL| Stack size for threads created by OpenMP (OMP_STACKSIZE)        default
 GLOBAL| CPU model name           AMD Ryzen Threadripper 3970X 32-Core Processor
 GLOBAL| CPUID                                                              1002

 MEMORY| system memory details [Kb]
 MEMORY|                        rank 0           min           max       average
 MEMORY| MemTotal            131752136     131752136     131752136     131752136
 MEMORY| MemFree             114343664     114343664     114343664     114343664
 MEMORY| Buffers               2009152       2009152       2009152       2009152
 MEMORY| Cached                8669880       8669880       8669884       8669880
 MEMORY| Slab                  1643492       1643492       1643492       1643492
 MEMORY| SReclaimable          1144584       1144584       1144584       1144584
 MEMORY| MemLikelyFree       126167280     126167280     126167284     126167280


 GENERATE|  Preliminary Number of Bonds generated:                             0
 GENERATE|  Achieved consistency in connectivity generation.

 *******************************************************************************
 *******************************************************************************
 **                                                                           **
 **     #####                         ##              ##                      **
 **    ##   ##            ##          ##              ##                      **
 **   ##     ##                       ##            ######                    **
 **   ##     ##  ##   ##  ##   #####  ##  ##   ####   ##    #####    #####    **
 **   ##     ##  ##   ##  ##  ##      ## ##   ##      ##   ##   ##  ##   ##   **
 **   ##  ## ##  ##   ##  ##  ##      ####     ###    ##   ######   ######    **
 **    ##  ###   ##   ##  ##  ##      ## ##      ##   ##   ##       ##        **
 **     #######   #####   ##   #####  ##  ##  ####    ##    #####   ##        **
 **           ##                                                    ##        **
 **                                                                           **
 **                                                ... make the atoms dance   **
 **                                                                           **
 **            Copyright (C) by CP2K developers group (2000-2024)             **
 **                      J. Chem. Phys. 152, 194103 (2020)                    **
 **                                                                           **
 *******************************************************************************


 TOTAL NUMBERS AND MAXIMUM NUMBERS

  Total number of            - Atomic kinds:                                   2
                             - Atoms:                                        192
                             - Shell sets:                                   192
                             - Shells:                                       704
                             - Primitive Cartesian functions:               1344
                             - Cartesian basis functions:                   1536
                             - Spherical basis functions:                   1472

  Maximum angular momentum of- Orbital basis functions:                        2
                             - Local part of the GTH pseudopotential:          2
                             - Non-local part of the GTH pseudopotential:      0

 ------------------------------ Linear scaling SCF -----------------------------
 eps_scf:                                                              0.100E-07
 eps_filter:                                                           0.100E-11
 mixing_fraction:                                                      0.450E+00
 max_scf:                                                                     25
 fixed chemical potential (mu)                                                 F
 has unit metric:                                                              F
 Computing inv(S):                                                             T
 Computing sqrt(S):                                                            T
 Computing S preconditioner                                                    F
 S sqrt method:                                                     NEWTONSCHULZ
 S sqrt order:                                                                 3
 Extrapolation order:                                                          1
 S preconditioner type                                                      NONE
 Polarized Atomic Orbitals (PAO)                                               T
 Purification method                                   Trace resetting 4th order
 Cluster type                                                             ATOMIC
 Computing Chebyshev                                                       FALSE
 Using PAO                                                                     T
 -------------------------------------------------------------------------------

 
 PAO|                                  EPS_PAO                           0.5E-06
 PAO|                                  MIXING                            0.5E+00
 PAO|                                  MAX_PAO                              1500
 PAO|                                  MAX_CYCLES                           1000
 PAO|                                  PARAMETERIZATION              EQUIVARIANT
 PAO|                                  PRECONDITION                            F
 PAO|                                  REGULARIZATION                    0.0E+00
 PAO|                                  EPS_PGF                           0.1E-09
 PAO|                                  PENALTY_DISTANCE                  0.1E+00
 PAO|                                  PENALTY_STRENGTH                  0.5E-02
 PAO|                                  LINPOT_PRECONDITION_DELTA         0.0E+00
 PAO|                                  LINPOT_INITGUESS_DELT             0.0E+00
 PAO|                                  LINPOT_REGULARIZATION_DELTA       0.0E+00
 PAO|                                  LINPOT_REGULARIZATION_STRENGTH    0.0E+00
 PAO|                                  OPTIMIZER                              CG
 PAO|                                  CG_INIT_STEPS                           2
 PAO|                                  CG_RESET_LIMIT                    0.1E+00
 PAO|                                  CHECK_UNITARY_TOL                -0.1E+01
 PAO|                                  CHECK_GRADIENT_TOL               -0.1E+01
 PAO|                                  NUM_GRADIENT_ORDER                      2
 PAO|                                  NUM_GRADIENT_EPS                  0.1E-07
 PAO|                                  PRINT%RESTART%WRITE_CYCLES            100
 PAO|                                  RESTART_FILE 
 PAO|                                  PREOPT_DM_FILE 64H2O_ref_LS_DM_SPIN_1_RESTART.dm
 PAO|                                  MACHINE_LEARNING%METHOD       GAUSSIAN_PR
 PAO|                                  MACHINE_LEARNING%PRIOR               ZERO
 PAO|                                  MACHINE_LEARNING%DESCRIPTOR     POTENTIAL
 PAO|                                  MACHINE_LEARNING%TOLERANCE        0.1E-01
 PAO|                                  MACHINE_LEARNING%GP_NOISE_VAR     0.1E+00
 PAO|                                  MACHINE_LEARNING%GP_SCALE         0.5E-01
 

 Calculating atomic Fock matrix for atomic kind: O

 Electronic structure
    Total number of core electrons                                          2.00
    Total number of valence electrons                                       6.00
    Total number of electrons                                               8.00
    Multiplicity                                                   not specified
    S   [  2.00] 2.00
    P      4.00


 *******************************************************************************
                  Iteration          Convergence                     Energy [au]
 *******************************************************************************
                          1        0.708315                     -15.576645311500
                          2        0.608879                     -15.587933561584
                          3        0.102828E-01                 -15.656849565404
                          4        0.113889E-02                 -15.656866888140
                          5        0.434197E-03                 -15.656867072159
                          6        0.263771E-03                 -15.656867091904
                          7        0.478536E-06                 -15.656867103452

 Energy components [Hartree]           Total Energy ::          -15.656867103452
                                        Band Energy ::           -3.000198112285
                                     Kinetic Energy ::           11.759971203220
                                   Potential Energy ::          -27.416838306672
                                      Virial (-V/T) ::            2.331369510426
                                        Core Energy ::          -26.140716385623
                                          XC Energy ::           -3.154051012914
                                     Coulomb Energy ::           13.637900295084
                       Total Pseudopotential Energy ::          -37.935781716540
                       Local Pseudopotential Energy ::          -39.218907440693
                    Nonlocal Pseudopotential Energy ::            1.283125724153
                                        Confinement ::            0.350941276976

 Orbital energies  State     L     Occupation   Energy[a.u.]          Energy[eV]

                       1     0          2.000      -0.864471          -23.523463

                       1     1          4.000      -0.317814           -8.648154


 Total Electron Density at R=0:                                         0.000068

 Calculating atomic Fock matrix for atomic kind: H

 Electronic structure
    Total number of core electrons                                          0.00
    Total number of valence electrons                                       1.00
    Total number of electrons                                               1.00
    Multiplicity                                                   not specified
    S      1.00


 *******************************************************************************
                  Iteration          Convergence                     Energy [au]
 *******************************************************************************
                          1        0.437545E-02                  -0.424159432110
                          2        0.531356E-03                  -0.424178438213
                          3        0.259176E-06                  -0.424178722480

 Energy components [Hartree]           Total Energy ::           -0.424178722480
                                        Band Energy ::           -0.199015229016
                                     Kinetic Energy ::            0.464007633961
                                   Potential Energy ::           -0.888186356441
                                      Virial (-V/T) ::            1.914163240935
                                        Core Energy ::           -0.479160803564
                                          XC Energy ::           -0.244352904054
                                     Coulomb Energy ::            0.299334985138
                       Total Pseudopotential Energy ::           -0.962295316385
                       Local Pseudopotential Energy ::           -0.962295316385
                    Nonlocal Pseudopotential Energy ::            0.000000000000
                                        Confinement ::            0.191268788606

 Orbital energies  State     L     Occupation   Energy[a.u.]          Energy[eV]

                       1     0          1.000      -0.199015           -5.415480


 Total Electron Density at R=0:                                         0.242907
 PAO| Made initial guess for matrix_X with norm:   27.712812921102035     

     Lanczos converged:  F threshold:   0.100E-02
     Est. extremal eigenvalues:    0.621E+01   0.963E-01
     Est. condition number :    0.645E+02

 Order=           3
     NS sqrt iter    1 1.00000000   0.152E+01       0.021     2678.887
     NS sqrt iter    2 1.00000000   0.826E+00       0.034     3334.258
     NS sqrt iter    3 1.00000000   0.332E+00       0.034     3327.051
     NS sqrt iter    4 1.00000000   0.922E-01       0.034     3365.250
     NS sqrt iter    5 1.00000000   0.327E-02       0.034     3307.965
     NS sqrt iter    6 1.00000000   0.252E-06       0.029     2915.987
     Symmetrizing Results
     Final NS sqrt iter    6 1.00000000   0.108E-12

 PAO| Read restart DM 64H2O_ref_LS_DM_SPIN_1_RESTART.dm with checksum:    6153.3057608036561     
 PAO| Quickstep energy from restart density:  -1103.1385252500697     
 PAO| ======================= Iteration:         1 =============================

     Lanczos converged:  F threshold:   0.100E-02
     Est. extremal eigenvalues:    0.621E+01   0.963E-01
     Est. condition number :    0.645E+02

 Order=           3
     NS sqrt iter    1 1.00000000   0.152E+01       0.021     2688.057
     NS sqrt iter    2 1.00000000   0.826E+00       0.034     3359.031
     NS sqrt iter    3 1.00000000   0.332E+00       0.034     3325.721
     NS sqrt iter    4 1.00000000   0.922E-01       0.034     3322.852
     NS sqrt iter    5 1.00000000   0.327E-02       0.034     3365.001
     NS sqrt iter    6 1.00000000   0.252E-06       0.029     2890.516
     Symmetrizing Results
     Final NS sqrt iter    6 1.00000000   0.108E-12

     Est. extremal eigenvalues     -0.82561     2.65165  converged:  T
     TRS4 it   1 1.00000000   0.274E+02       0.007     2108.791   0.100E-11
     TRS4 it   2 1.00000000   0.238E+02       0.013     2171.583   0.100E-11
     TRS4 it   3 1.00000000   0.161E+02       0.013     2151.211   0.100E-11
     TRS4 it   4 1.00000000   0.101E+02       0.013     2168.583   0.100E-11
     TRS4 it   5 1.00000000   0.491E+01       0.013     2188.161   0.100E-11
     TRS4 it   6 1.00000000   0.165E+01       0.013     2164.411   0.100E-11
     TRS4 it   7 1.00000000   0.335E+00       0.013     2158.333   0.100E-11
     TRS4 it   8 1.00000000   0.258E-01       0.013     2175.682   0.100E-11
     TRS4 it   9 1.00000000   0.246E-03       0.013     2174.420   0.100E-11
     TRS4 it  10 1.00000000   0.228E-07       0.013     2193.835   0.100E-11
     TRS4 it  11 1.00000000   0.711E-14       0.013     2193.232   0.100E-11
     Final TRS4 iteration   11 1.00000000   0.711E-14
     Chemical potential (mu):       0.00842
 
 PAO| energy:  -186.11443726713594      penalty:   1.4267289028020642E-031
 PAO|CG| warming up with steepest descent
 PAO|CG| beta:    0.0000000000000000     
 PAO| norm of gradient:   3.9655112750135388     
 PAO|LS| adapt:  T F F
 PAO|LS| adapt: scan_steps:    0.0000000000000000        0.0000000000000000        0.0000000000000000     
 PAO|LS| adapt: energies:   -186.11443726713594        0.0000000000000000        0.0000000000000000     
 PAO| ======================= Iteration:         2 =============================

     Lanczos converged:  F threshold:   0.100E-02
     Est. extremal eigenvalues:    0.600E+01   0.103E+00
     Est. condition number :    0.584E+02

 Order=           3
     NS sqrt iter    1 1.00000000   0.148E+01       0.021     2666.807
     NS sqrt iter    2 1.00000000   0.797E+00       0.034     3341.737
     NS sqrt iter    3 1.00000000   0.312E+00       0.034     3370.236
     NS sqrt iter    4 1.00000000   0.778E-01       0.034     3340.031
     NS sqrt iter    5 1.00000000   0.205E-02       0.034     3356.618
     NS sqrt iter    6 1.00000000   0.740E-07       0.029     2898.471
     Symmetrizing Results
     Final NS sqrt iter    6 1.00000000   0.121E-13

     Est. extremal eigenvalues     -0.82874     2.64557  converged:  T
     TRS4 it   1 1.00000000   0.276E+02       0.007     2105.879   0.100E-11
     TRS4 it   2 1.00000000   0.238E+02       0.013     2168.797   0.100E-11
     TRS4 it   3 1.00000000   0.160E+02       0.013     2197.869   0.100E-11
     TRS4 it   4 1.00000000   0.991E+01       0.013     2161.450   0.100E-11
     TRS4 it   5 1.00000000   0.469E+01       0.013     2168.602   0.100E-11
     TRS4 it   6 1.00000000   0.152E+01       0.013     2178.058   0.100E-11
     TRS4 it   7 1.00000000   0.288E+00       0.013     2198.447   0.100E-11
     TRS4 it   8 1.00000000   0.187E-01       0.013     2183.952   0.100E-11
     TRS4 it   9 1.00000000   0.118E-03       0.013     2160.144   0.100E-11
     TRS4 it  10 1.00000000   0.585E-08       0.013     2196.270   0.100E-11
     TRS4 it  11 1.00000000   0.284E-13       0.013     2179.678   0.100E-11
     Final TRS4 iteration   11 1.00000000   0.284E-13
     Chemical potential (mu):       0.01402
 
 PAO| energy:  -187.55839287778343      penalty:   4.6517250650276261E-007
 PAO|LS| adapt:  T T F
 PAO|LS| adapt: scan_steps:    0.0000000000000000       0.10000000000000001        0.0000000000000000     
 PAO|LS| adapt: energies:   -186.11443726713594       -187.55839287778343        0.0000000000000000     
 PAO| ======================= Iteration:         3 =============================

     Lanczos converged:  F threshold:   0.100E-02
     Est. extremal eigenvalues:    0.580E+01   0.108E+00
     Est. condition number :    0.536E+02

 Order=           3
     NS sqrt iter    1 1.00000000   0.143E+01       0.021     2668.109
     NS sqrt iter    2 1.00000000   0.769E+00       0.034     3354.186
     NS sqrt iter    3 1.00000000   0.292E+00       0.034     3350.417
     NS sqrt iter    4 1.00000000   0.654E-01       0.034     3340.714
     NS sqrt iter    5 1.00000000   0.131E-02       0.034     3352.157
     NS sqrt iter    6 1.00000000   0.231E-07       0.030     2878.579
     Symmetrizing Results
     Final NS sqrt iter    6 1.00000000   0.315E-14

     Est. extremal eigenvalues     -0.83168     2.64151  converged:  T
     TRS4 it   1 1.00000000   0.278E+02       0.007     2089.960   0.100E-11
     TRS4 it   2 1.00000000   0.237E+02       0.013     2165.958   0.100E-11
     TRS4 it   3 1.00000000   0.159E+02       0.013     2183.690   0.100E-11
     TRS4 it   4 1.00000000   0.972E+01       0.013     2183.578   0.100E-11
     TRS4 it   5 1.00000000   0.449E+01       0.013     2168.202   0.100E-11
     TRS4 it   6 1.00000000   0.139E+01       0.013     2149.199   0.100E-11
     TRS4 it   7 1.00000000   0.245E+00       0.013     2158.531   0.100E-11
     TRS4 it   8 1.00000000   0.131E-01       0.013     2169.079   0.100E-11
     TRS4 it   9 1.00000000   0.527E-04       0.013     2165.707   0.100E-11
     TRS4 it  10 1.00000000   0.131E-08       0.013     2171.857   0.100E-11
     TRS4 it  11 1.00000000   0.533E-14       0.013     2178.138   0.100E-11
     Final TRS4 iteration   11 1.00000000   0.533E-14
     Chemical potential (mu):       0.02035
 
 PAO| energy:  -188.72919379938853      penalty:   7.4427601040935068E-006
 PAO|LS| adapt:  T T F
 PAO|LS| adapt: scan_steps:    0.0000000000000000       0.20000000000000001        0.0000000000000000     
 PAO|LS| adapt: energies:   -186.11443726713594       -188.72919379938853        0.0000000000000000     
 PAO| ======================= Iteration:         4 =============================

     Lanczos converged:  F threshold:   0.100E-02
     Est. extremal eigenvalues:    0.540E+01   0.117E+00
     Est. condition number :    0.464E+02

 Order=           3
     NS sqrt iter    1 1.00000000   0.136E+01       0.021     2675.198
     NS sqrt iter    2 1.00000000   0.715E+00       0.034     3349.731
     NS sqrt iter    3 1.00000000   0.255E+00       0.034     3349.182
     NS sqrt iter    4 1.00000000   0.463E-01       0.034     3360.055
     NS sqrt iter    5 1.00000000   0.553E-03       0.034     3339.144
     NS sqrt iter    6 1.00000000   0.236E-08       0.029     2856.704
     Symmetrizing Results
     Final NS sqrt iter    6 1.00000000   0.150E-13

     Est. extremal eigenvalues     -0.83642     2.63787  converged:  T
     TRS4 it   1 1.00000000   0.282E+02       0.007     2103.358   0.100E-11
     TRS4 it   2 1.00000000   0.237E+02       0.013     2196.738   0.100E-11
     TRS4 it   3 1.00000000   0.157E+02       0.013     2186.075   0.100E-11
     TRS4 it   4 1.00000000   0.939E+01       0.013     2177.050   0.100E-11
     TRS4 it   5 1.00000000   0.413E+01       0.013     2195.685   0.100E-11
     TRS4 it   6 1.00000000   0.117E+01       0.013     2207.506   0.100E-11
     TRS4 it   7 1.00000000   0.175E+00       0.013     2182.848   0.100E-11
     TRS4 it   8 1.00000000   0.620E-02       0.013     2181.347   0.100E-11
     TRS4 it   9 1.00000000   0.985E-05       0.013     2175.850   0.100E-11
     TRS4 it  10 1.00000000   0.514E-10       0.013     2173.250   0.100E-11
     Final TRS4 iteration   10 1.00000000   0.514E-10
     Chemical potential (mu):       0.03918
 
 PAO| energy:  -190.21049576969770      penalty:   1.1908416166589102E-004
 PAO|LS| Need extra step
 PAO|LS| adapt:  T T F
 PAO|LS| adapt: scan_steps:    0.0000000000000000       0.40000000000000002        0.0000000000000000     
 PAO|LS| adapt: energies:   -186.11443726713594       -190.21049576969770        0.0000000000000000     
 PAO| ======================= Iteration:         5 =============================

     Lanczos converged:  T threshold:   0.100E-02
     Est. extremal eigenvalues:    0.475E+01   0.131E+00
     Est. condition number :    0.363E+02

 Order=           3
     NS sqrt iter    1 1.00000000   0.123E+01       0.021     2683.625
     NS sqrt iter    2 1.00000000   0.625E+00       0.034     3342.812
     NS sqrt iter    3 1.00000000   0.198E+00       0.034     3328.031
     NS sqrt iter    4 1.00000000   0.245E-01       0.034     3366.977
     NS sqrt iter    5 1.00000000   0.109E-03       0.034     3332.150
     NS sqrt iter    6 1.00000000   0.271E-10       0.019     2239.216
     Symmetrizing Results
     Final NS sqrt iter    6 1.00000000   0.214E-11

     Est. extremal eigenvalues     -0.83910     2.63287  converged:  T
     TRS4 it   1 1.00000000   0.288E+02       0.007     2087.504   0.100E-11
     TRS4 it   2 1.00000000   0.237E+02       0.013     2173.540   0.100E-11
     TRS4 it   3 1.00000000   0.155E+02       0.013     2187.907   0.100E-11
     TRS4 it   4 1.00000000   0.889E+01       0.013     2201.065   0.100E-11
     TRS4 it   5 1.00000000   0.360E+01       0.013     2163.585   0.100E-11
     TRS4 it   6 1.00000000   0.872E+00       0.013     2164.598   0.100E-11
     TRS4 it   7 1.00000000   0.957E-01       0.013     2191.534   0.100E-11
     TRS4 it   8 1.00000000   0.170E-02       0.013     2183.943   0.100E-11
     TRS4 it   9 1.00000000   0.711E-06       0.013     2186.566   0.100E-11
     TRS4 it  10 1.00000000   0.306E-12       0.013     2185.854   0.100E-11
     Final TRS4 iteration   10 1.00000000   0.306E-12
     Chemical potential (mu):       0.06139
 
 PAO| energy:  -189.86123927435332      penalty:   1.9053465866574223E-003
 PAO|LS| Need extra step
 PAO|LS| adapt:  T T T
 PAO|LS| adapt: scan_steps:    0.0000000000000000       0.40000000000000002       0.80000000000000004     
 PAO|LS| adapt: energies:   -186.11443726713594       -190.21049576969770       -189.86123927435332     
 PAO|LS| adapt: suggested step_size:   0.56857307115388800     
 PAO|LS| adapt: predicted energy  -190.60525197054906     
 PAO| ======================= Iteration:         6 =============================

     Lanczos converged:  F threshold:   0.100E-02
     Est. extremal eigenvalues:    0.510E+01   0.123E+00
     Est. condition number :    0.416E+02

 Order=           3
     NS sqrt iter    1 1.00000000   0.130E+01       0.021     2668.729
     NS sqrt iter    2 1.00000000   0.674E+00       0.034     3358.630
     NS sqrt iter    3 1.00000000   0.228E+00       0.034     3360.095
     NS sqrt iter    4 1.00000000   0.350E-01       0.034     3353.280
     NS sqrt iter    5 1.00000000   0.274E-03       0.034     3331.331
     NS sqrt iter    6 1.00000000   0.348E-09       0.029     2677.712
     Symmetrizing Results
     Final NS sqrt iter    6 1.00000000   0.310E-12

     Est. extremal eigenvalues     -0.83879     2.63621  converged:  T
     TRS4 it   1 1.00000000   0.285E+02       0.007     2060.452   0.100E-11
     TRS4 it   2 1.00000000   0.237E+02       0.013     2184.815   0.100E-11
     TRS4 it   3 1.00000000   0.156E+02       0.013     2169.011   0.100E-11
     TRS4 it   4 1.00000000   0.916E+01       0.013     2212.019   0.100E-11
     TRS4 it   5 1.00000000   0.387E+01       0.013     2186.626   0.100E-11
     TRS4 it   6 1.00000000   0.102E+01       0.013     2165.897   0.100E-11
     TRS4 it   7 1.00000000   0.133E+00       0.013     2201.000   0.100E-11
     TRS4 it   8 1.00000000   0.340E-02       0.014     2095.326   0.100E-11
     TRS4 it   9 1.00000000   0.278E-05       0.013     2160.125   0.100E-11
     TRS4 it  10 1.00000000   0.411E-11       0.013     2164.475   0.100E-11
     Final TRS4 iteration   10 1.00000000   0.411E-11
     Chemical potential (mu):       0.04965
 
 PAO| energy:  -190.57834332879659      penalty:   4.8613756933758542E-004
 PAO|CG| warming up with steepest descent
 PAO|CG| beta:    0.0000000000000000     
 PAO| norm of gradient:   2.0841725873725263     
 PAO| energy improvement:  -4.4639060616606514     
 PAO| step      6                 -190.578343329  0.407E-02  0.569E+00     2.450
 PAO|LS| adapt:  T F F
 PAO|LS| adapt: scan_steps:    0.0000000000000000        0.0000000000000000        0.0000000000000000     
 PAO|LS| adapt: energies:   -190.57834332879659        0.0000000000000000        0.0000000000000000     
 PAO| ======================= Iteration:         7 =============================

     Lanczos converged:  F threshold:   0.100E-02
     Est. extremal eigenvalues:    0.494E+01   0.130E+00
     Est. condition number :    0.381E+02

 Order=           3
     NS sqrt iter    1 1.00000000   0.127E+01       0.021     2671.825
     NS sqrt iter    2 1.00000000   0.648E+00       0.034     3354.997
     NS sqrt iter    3 1.00000000   0.211E+00       0.034     3343.731
     NS sqrt iter    4 1.00000000   0.284E-01       0.034     3335.756
     NS sqrt iter    5 1.00000000   0.156E-03       0.034     3345.459
     NS sqrt iter    6 1.00000000   0.711E-10       0.024     2412.848
     Symmetrizing Results
     Final NS sqrt iter    6 1.00000000   0.196E-11

     Est. extremal eigenvalues     -0.83904     2.63277  converged:  T
     TRS4 it   1 1.00000000   0.286E+02       0.007     2087.198   0.100E-11
     TRS4 it   2 1.00000000   0.238E+02       0.013     2157.480   0.100E-11
     TRS4 it   3 1.00000000   0.157E+02       0.013     2187.799   0.100E-11
     TRS4 it   4 1.00000000   0.928E+01       0.013     2173.323   0.100E-11
     TRS4 it   5 1.00000000   0.397E+01       0.013     2186.131   0.100E-11
     TRS4 it   6 1.00000000   0.105E+01       0.013     2167.460   0.100E-11
     TRS4 it   7 1.00000000   0.135E+00       0.013     2173.220   0.100E-11
     TRS4 it   8 1.00000000   0.351E-02       0.013     2192.183   0.100E-11
     TRS4 it   9 1.00000000   0.309E-05       0.013     2187.166   0.100E-11
     TRS4 it  10 1.00000000   0.530E-11       0.013     2188.082   0.100E-11
     Final TRS4 iteration   10 1.00000000   0.530E-11
     Chemical potential (mu):       0.05095
 
 PAO| energy:  -189.65289287474954      penalty:   6.8028004387257063E-004
 PAO|LS| adapt:  T F T
 PAO|LS| adapt: scan_steps:    0.0000000000000000        0.0000000000000000       0.56857307115388800     
 PAO|LS| adapt: energies:   -190.57834332879659        0.0000000000000000       -189.65289287474954     
 PAO| ======================= Iteration:         8 =============================

     Lanczos converged:  F threshold:   0.100E-02
     Est. extremal eigenvalues:    0.502E+01   0.126E+00
     Est. condition number :    0.398E+02

 Order=           3
     NS sqrt iter    1 1.00000000   0.128E+01       0.021     2670.428
     NS sqrt iter    2 1.00000000   0.661E+00       0.034     3341.822
     NS sqrt iter    3 1.00000000   0.219E+00       0.034     3332.673
     NS sqrt iter    4 1.00000000   0.316E-01       0.034     3335.524
     NS sqrt iter    5 1.00000000   0.208E-03       0.034     3351.343
     NS sqrt iter    6 1.00000000   0.159E-09       0.027     2536.533
     Symmetrizing Results
     Final NS sqrt iter    6 1.00000000   0.107E-11

     Est. extremal eigenvalues     -0.84032     2.63477  converged:  T
     TRS4 it   1 1.00000000   0.286E+02       0.007     2104.297   0.100E-11
     TRS4 it   2 1.00000000   0.237E+02       0.013     2148.323   0.100E-11
     TRS4 it   3 1.00000000   0.156E+02       0.013     2176.408   0.100E-11
     TRS4 it   4 1.00000000   0.919E+01       0.013     2176.171   0.100E-11
     TRS4 it   5 1.00000000   0.390E+01       0.013     2175.930   0.100E-11
     TRS4 it   6 1.00000000   0.103E+01       0.013     2180.224   0.100E-11
     TRS4 it   7 1.00000000   0.133E+00       0.013     2164.938   0.100E-11
     TRS4 it   8 1.00000000   0.346E-02       0.013     2207.024   0.100E-11
     TRS4 it   9 1.00000000   0.294E-05       0.013     2181.641   0.100E-11
     TRS4 it  10 1.00000000   0.458E-11       0.013     2162.595   0.100E-11
     Final TRS4 iteration   10 1.00000000   0.458E-11
     Chemical potential (mu):       0.04923
 
 PAO| energy:  -190.95023411280937      penalty:   5.1508531121146749E-004
 PAO|LS| adapt:  T T T
 PAO|LS| adapt: scan_steps:    0.0000000000000000       0.28428653557694400       0.56857307115388800     
 PAO|LS| adapt: energies:   -190.57834332879659       -190.95023411280937       -189.65289287474954     
 PAO|LS| adapt: suggested step_size:   0.20547990475803721     
 PAO|LS| adapt: predicted energy  -191.01436978505046     
 PAO| ======================= Iteration:         9 =============================

     Lanczos converged:  F threshold:   0.100E-02
     Est. extremal eigenvalues:    0.504E+01   0.125E+00
     Est. condition number :    0.403E+02

 Order=           3
     NS sqrt iter    1 1.00000000   0.129E+01       0.021     2675.890
     NS sqrt iter    2 1.00000000   0.664E+00       0.034     3342.092
     NS sqrt iter    3 1.00000000   0.222E+00       0.034     3345.692
     NS sqrt iter    4 1.00000000   0.325E-01       0.034     3310.733
     NS sqrt iter    5 1.00000000   0.224E-03       0.034     3312.846
     NS sqrt iter    6 1.00000000   0.198E-09       0.028     2583.054
     Symmetrizing Results
     Final NS sqrt iter    6 1.00000000   0.800E-12

     Est. extremal eigenvalues     -0.84019     2.63525  converged:  T
     TRS4 it   1 1.00000000   0.286E+02       0.007     2128.630   0.100E-11
     TRS4 it   2 1.00000000   0.237E+02       0.013     2177.623   0.100E-11
     TRS4 it   3 1.00000000   0.156E+02       0.013     2169.023   0.100E-11
     TRS4 it   4 1.00000000   0.918E+01       0.013     2167.320   0.100E-11
     TRS4 it   5 1.00000000   0.389E+01       0.013     2190.108   0.100E-11
     TRS4 it   6 1.00000000   0.103E+01       0.013     2194.756   0.100E-11
     TRS4 it   7 1.00000000   0.133E+00       0.013     2183.392   0.100E-11
     TRS4 it   8 1.00000000   0.344E-02       0.013     2175.057   0.100E-11
     TRS4 it   9 1.00000000   0.290E-05       0.013     2179.870   0.100E-11
     TRS4 it  10 1.00000000   0.443E-11       0.013     2179.761   0.100E-11
     Final TRS4 iteration   10 1.00000000   0.443E-11
     Chemical potential (mu):       0.04913
 
 PAO| energy:  -191.01887344237582      penalty:   4.9786207999885841E-004
 PAO|CG| trace_G_new   0.73219667750243689     
 PAO|CG| trace_G_prev    4.3437753739550908     
 PAO|CG| trace_G_mix   -4.3549174796720325E-002
 PAO|CG| trace_D    4.3437753739550908     
 PAO|CG| trace_D_Gnew   4.3549174796720325E-002
 PAO|CG| beta:   0.17858792997226872     
 PAO| norm of gradient:  0.85568491718765083     
 PAO| energy improvement: -0.44053011357922855     
 PAO| step      9                 -191.018873442  0.167E-02  0.205E+00     1.517
 PAO|LS| adapt:  T F F
 PAO|LS| adapt: scan_steps:    0.0000000000000000        0.0000000000000000        0.0000000000000000     
 PAO|LS| adapt: energies:   -191.01887344237582        0.0000000000000000        0.0000000000000000     
 PAO| ======================= Iteration:        10 =============================

     Lanczos converged:  F threshold:   0.100E-02
     Est. extremal eigenvalues:    0.499E+01   0.128E+00
     Est. condition number :    0.388E+02

 Order=           3
     NS sqrt iter    1 1.00000000   0.128E+01       0.022     2644.891
     NS sqrt iter    2 1.00000000   0.655E+00       0.034     3355.892
     NS sqrt iter    3 1.00000000   0.216E+00       0.034     3329.795
     NS sqrt iter    4 1.00000000   0.302E-01       0.034     3351.313
     NS sqrt iter    5 1.00000000   0.181E-03       0.034     3346.249
     NS sqrt iter    6 1.00000000   0.103E-09       0.026     2453.422
     Symmetrizing Results
     Final NS sqrt iter    6 1.00000000   0.159E-11

     Est. extremal eigenvalues     -0.84070     2.62326  converged:  T
     TRS4 it   1 1.00000000   0.285E+02       0.007     2110.032   0.100E-11
     TRS4 it   2 1.00000000   0.237E+02       0.013     2160.489   0.100E-11
     TRS4 it   3 1.00000000   0.156E+02       0.013     2167.039   0.100E-11
     TRS4 it   4 1.00000000   0.916E+01       0.013     2184.778   0.100E-11
     TRS4 it   5 1.00000000   0.387E+01       0.013     2181.374   0.100E-11
     TRS4 it   6 1.00000000   0.101E+01       0.013     2164.412   0.100E-11
     TRS4 it   7 1.00000000   0.130E+00       0.013     2184.124   0.100E-11
     TRS4 it   8 1.00000000   0.329E-02       0.013     2172.155   0.100E-11
     TRS4 it   9 1.00000000   0.266E-05       0.013     2193.991   0.100E-11
     TRS4 it  10 1.00000000   0.376E-11       0.013     2184.832   0.100E-11
     Final TRS4 iteration   10 1.00000000   0.376E-11
     Chemical potential (mu):       0.04976
 
 PAO| energy:  -191.11971029571245      penalty:   5.0023272430152238E-004
 PAO|LS| adapt:  T T F
 PAO|LS| adapt: scan_steps:    0.0000000000000000       0.20547990475803721        0.0000000000000000     
 PAO|LS| adapt: energies:   -191.01887344237582       -191.11971029571245        0.0000000000000000     
 PAO| ======================= Iteration:        11 =============================

     Lanczos converged:  F threshold:   0.100E-02
     Est. extremal eigenvalues:    0.494E+01   0.132E+00
     Est. condition number :    0.375E+02

 Order=           3
     NS sqrt iter    1 1.00000000   0.127E+01       0.021     2661.122
     NS sqrt iter    2 1.00000000   0.647E+00       0.034     3350.998
     NS sqrt iter    3 1.00000000   0.210E+00       0.034     3363.741
     NS sqrt iter    4 1.00000000   0.281E-01       0.034     3347.903
     NS sqrt iter    5 1.00000000   0.145E-03       0.034     3354.370
     NS sqrt iter    6 1.00000000   0.537E-10       0.023     2325.261
     Symmetrizing Results
     Final NS sqrt iter    6 1.00000000   0.218E-11

     Est. extremal eigenvalues     -0.84084     2.61143  converged:  T
     TRS4 it   1 1.00000000   0.285E+02       0.007     2143.627   0.100E-11
     TRS4 it   2 1.00000000   0.236E+02       0.013     2168.010   0.100E-11
     TRS4 it   3 1.00000000   0.156E+02       0.013     2202.208   0.100E-11
     TRS4 it   4 1.00000000   0.914E+01       0.013     2171.053   0.100E-11
     TRS4 it   5 1.00000000   0.384E+01       0.013     2196.843   0.100E-11
     TRS4 it   6 1.00000000   0.100E+01       0.013     2191.482   0.100E-11
     TRS4 it   7 1.00000000   0.126E+00       0.013     2172.891   0.100E-11
     TRS4 it   8 1.00000000   0.312E-02       0.013     2191.928   0.100E-11
     TRS4 it   9 1.00000000   0.242E-05       0.013     2182.560   0.100E-11
     TRS4 it  10 1.00000000   0.307E-11       0.013     2158.644   0.100E-11
     Final TRS4 iteration   10 1.00000000   0.307E-11
     Chemical potential (mu):       0.05045
 
 PAO| energy:  -191.12715538630701      penalty:   5.1253383267538504E-004
 PAO|LS| adapt:  T T F
 PAO|LS| adapt: scan_steps:    0.0000000000000000       0.41095980951607441        0.0000000000000000     
 PAO|LS| adapt: energies:   -191.01887344237582       -191.12715538630701        0.0000000000000000     
 PAO| ======================= Iteration:        12 =============================

     Lanczos converged:  F threshold:   0.100E-02
     Est. extremal eigenvalues:    0.483E+01   0.138E+00
     Est. condition number :    0.351E+02

 Order=           3
     NS sqrt iter    1 1.00000000   0.125E+01       0.021     2692.343
     NS sqrt iter    2 1.00000000   0.630E+00       0.034     3349.927
     NS sqrt iter    3 1.00000000   0.199E+00       0.034     3359.495
     NS sqrt iter    4 1.00000000   0.241E-01       0.034     3350.165
     NS sqrt iter    5 1.00000000   0.929E-04       0.034     3303.374
     NS sqrt iter    6 1.00000000   0.141E-10       0.016     2127.003
     Symmetrizing Results
     Final NS sqrt iter    6 1.00000000   0.182E-11

     Est. extremal eigenvalues     -0.84012     2.58908  converged:  T
     TRS4 it   1 1.00000000   0.285E+02       0.007     2116.926   0.100E-11
     TRS4 it   2 1.00000000   0.235E+02       0.013     2182.851   0.100E-11
     TRS4 it   3 1.00000000   0.156E+02       0.013     2182.093   0.100E-11
     TRS4 it   4 1.00000000   0.908E+01       0.013     2181.561   0.100E-11
     TRS4 it   5 1.00000000   0.378E+01       0.013     2169.971   0.100E-11
     TRS4 it   6 1.00000000   0.968E+00       0.013     2174.000   0.100E-11
     TRS4 it   7 1.00000000   0.118E+00       0.013     2164.699   0.100E-11
     TRS4 it   8 1.00000000   0.276E-02       0.013     2185.515   0.100E-11
     TRS4 it   9 1.00000000   0.193E-05       0.013     2181.937   0.100E-11
     TRS4 it  10 1.00000000   0.201E-11       0.013     2155.709   0.100E-11
     Final TRS4 iteration   10 1.00000000   0.201E-11
     Chemical potential (mu):       0.05201
 
 PAO| energy:  -190.87846834094250      penalty:   5.7397967861921276E-004
 PAO|LS| Need extra step
 PAO|LS| adapt:  T T T
 PAO|LS| adapt: scan_steps:    0.0000000000000000       0.41095980951607441       0.82191961903214883     
 PAO|LS| adapt: energies:   -191.01887344237582       -191.12715538630701       -190.87846834094250     
 PAO|LS| adapt: suggested step_size:   0.33013926841814106     
 PAO|LS| adapt: predicted energy  -191.13405850432974     
 PAO| ======================= Iteration:        13 =============================

     Lanczos converged:  F threshold:   0.100E-02
     Est. extremal eigenvalues:    0.496E+01   0.130E+00
     Est. condition number :    0.380E+02

 Order=           3
     NS sqrt iter    1 1.00000000   0.127E+01       0.021     2677.371
     NS sqrt iter    2 1.00000000   0.650E+00       0.034     3320.878
     NS sqrt iter    3 1.00000000   0.212E+00       0.034     3347.832
     NS sqrt iter    4 1.00000000   0.289E-01       0.034     3322.997
     NS sqrt iter    5 1.00000000   0.158E-03       0.034     3350.457
     NS sqrt iter    6 1.00000000   0.695E-10       0.024     2353.913
     Symmetrizing Results
     Final NS sqrt iter    6 1.00000000   0.205E-11

     Est. extremal eigenvalues     -0.84083     2.61605  converged:  T
     TRS4 it   1 1.00000000   0.285E+02       0.007     2103.831   0.100E-11
     TRS4 it   2 1.00000000   0.236E+02       0.013     2169.326   0.100E-11
     TRS4 it   3 1.00000000   0.156E+02       0.013     2184.295   0.100E-11
     TRS4 it   4 1.00000000   0.915E+01       0.013     2184.562   0.100E-11
     TRS4 it   5 1.00000000   0.385E+01       0.013     2175.217   0.100E-11
     TRS4 it   6 1.00000000   0.101E+01       0.013     2189.745   0.100E-11
     TRS4 it   7 1.00000000   0.128E+00       0.013     2188.802   0.100E-11
     TRS4 it   8 1.00000000   0.319E-02       0.013     2198.222   0.100E-11
     TRS4 it   9 1.00000000   0.251E-05       0.013     2155.101   0.100E-11
     TRS4 it  10 1.00000000   0.337E-11       0.013     2195.667   0.100E-11
     Final TRS4 iteration   10 1.00000000   0.337E-11
     Chemical potential (mu):       0.05017
 
 PAO| energy:  -191.13511051970568      penalty:   5.0642936367570530E-004
 PAO|CG| trace_G_new   0.28082704506663181     
 PAO|CG| trace_G_prev   0.73219667750243689     
 PAO|CG| trace_G_mix   -1.1812742552943413E-002
 PAO|CG| trace_D   0.85518080949122288     
 PAO|CG| trace_D_Gnew   1.1924259818491097E-002
 PAO|CG| beta:   0.39967374424285235     
 PAO| norm of gradient:  0.52993117012177327     
 PAO| energy improvement: -0.11623707732985622     
 PAO| step     13                 -191.135110520  0.104E-02  0.330E+00     1.950
 PAO|LS| adapt:  T F F
 PAO|LS| adapt: scan_steps:    0.0000000000000000        0.0000000000000000        0.0000000000000000     
 PAO|LS| adapt: energies:   -191.13511051970568        0.0000000000000000        0.0000000000000000     
 PAO| ======================= Iteration:        14 =============================

     Lanczos converged:  F threshold:   0.100E-02
     Est. extremal eigenvalues:    0.488E+01   0.133E+00
     Est. condition number :    0.367E+02

 Order=           3
     NS sqrt iter    1 1.00000000   0.126E+01       0.021     2674.731
     NS sqrt iter    2 1.00000000   0.639E+00       0.034     3346.918
     NS sqrt iter    3 1.00000000   0.206E+00       0.034     3351.312
     NS sqrt iter    4 1.00000000   0.267E-01       0.034     3344.573
     NS sqrt iter    5 1.00000000   0.127E-03       0.034     3326.743
     NS sqrt iter    6 1.00000000   0.367E-10       0.021     2259.660
     Symmetrizing Results
     Final NS sqrt iter    6 1.00000000   0.220E-11

     Est. extremal eigenvalues     -0.84127     2.61179  converged:  T
     TRS4 it   1 1.00000000   0.286E+02       0.007     2115.538   0.100E-11
     TRS4 it   2 1.00000000   0.236E+02       0.013     2175.411   0.100E-11
     TRS4 it   3 1.00000000   0.156E+02       0.013     2153.854   0.100E-11
     TRS4 it   4 1.00000000   0.909E+01       0.013     2183.286   0.100E-11
     TRS4 it   5 1.00000000   0.380E+01       0.013     2172.525   0.100E-11
     TRS4 it   6 1.00000000   0.977E+00       0.013     2187.577   0.100E-11
     TRS4 it   7 1.00000000   0.121E+00       0.013     2180.775   0.100E-11
     TRS4 it   8 1.00000000   0.283E-02       0.013     2171.219   0.100E-11
     TRS4 it   9 1.00000000   0.200E-05       0.013     2179.696   0.100E-11
     TRS4 it  10 1.00000000   0.216E-11       0.013     2194.075   0.100E-11
     Final TRS4 iteration   10 1.00000000   0.216E-11
     Chemical potential (mu):       0.05194
 
 PAO| energy:  -191.18842842029679      penalty:   5.0862761339951325E-004
 PAO|LS| adapt:  T T F
 PAO|LS| adapt: scan_steps:    0.0000000000000000       0.33013926841814106        0.0000000000000000     
 PAO|LS| adapt: energies:   -191.13511051970568       -191.18842842029679        0.0000000000000000     
 PAO| ======================= Iteration:        15 =============================

     Lanczos converged:  F threshold:   0.100E-02
     Est. extremal eigenvalues:    0.481E+01   0.135E+00
     Est. condition number :    0.356E+02

 Order=           3
     NS sqrt iter    1 1.00000000   0.124E+01       0.021     2689.228
     NS sqrt iter    2 1.00000000   0.628E+00       0.034     3323.971
     NS sqrt iter    3 1.00000000   0.200E+00       0.034     3335.205
     NS sqrt iter    4 1.00000000   0.246E-01       0.034     3355.306
     NS sqrt iter    5 1.00000000   0.102E-03       0.034     3335.184
     NS sqrt iter    6 1.00000000   0.196E-10       0.017     2170.016
     Symmetrizing Results
     Final NS sqrt iter    6 1.00000000   0.209E-11

     Est. extremal eigenvalues     -0.84134     2.60778  converged:  T
     TRS4 it   1 1.00000000   0.286E+02       0.007     2105.150   0.100E-11
     TRS4 it   2 1.00000000   0.236E+02       0.013     2176.656   0.100E-11
     TRS4 it   3 1.00000000   0.156E+02       0.013     2186.695   0.100E-11
     TRS4 it   4 1.00000000   0.903E+01       0.013     2165.752   0.100E-11
     TRS4 it   5 1.00000000   0.374E+01       0.013     2195.367   0.100E-11
     TRS4 it   6 1.00000000   0.947E+00       0.013     2173.891   0.100E-11
     TRS4 it   7 1.00000000   0.114E+00       0.013     2188.696   0.100E-11
     TRS4 it   8 1.00000000   0.252E-02       0.013     2178.653   0.100E-11
     TRS4 it   9 1.00000000   0.160E-05       0.013     2193.227   0.100E-11
     TRS4 it  10 1.00000000   0.142E-11       0.013     2179.843   0.100E-11
     Final TRS4 iteration   10 1.00000000   0.142E-11
     Chemical potential (mu):       0.05363
 
 PAO| energy:  -191.16728953716830      penalty:   5.2619323045356887E-004
 PAO|LS| adapt:  T T T
 PAO|LS| adapt: scan_steps:    0.0000000000000000       0.33013926841814106       0.66027853683628213     
 PAO|LS| adapt: energies:   -191.13511051970568       -191.18842842029679       -191.16728953716830     
 PAO|LS| adapt: suggested step_size:   0.40147969405036754     
 PAO|LS| adapt: predicted energy  -191.19016682664665     
 PAO| ======================= Iteration:        16 =============================

     Lanczos converged:  F threshold:   0.100E-02
     Est. extremal eigenvalues:    0.487E+01   0.133E+00
     Est. condition number :    0.365E+02

 Order=           3
     NS sqrt iter    1 1.00000000   0.125E+01       0.021     2677.308
     NS sqrt iter    2 1.00000000   0.636E+00       0.034     3333.590
     NS sqrt iter    3 1.00000000   0.204E+00       0.034     3343.338
     NS sqrt iter    4 1.00000000   0.262E-01       0.034     3326.822
     NS sqrt iter    5 1.00000000   0.121E-03       0.034     3354.656
     NS sqrt iter    6 1.00000000   0.320E-10       0.020     2217.418
     Symmetrizing Results
     Final NS sqrt iter    6 1.00000000   0.220E-11

     Est. extremal eigenvalues     -0.84132     2.61089  converged:  T
     TRS4 it   1 1.00000000   0.286E+02       0.007     2095.469   0.100E-11
     TRS4 it   2 1.00000000   0.236E+02       0.013     2158.884   0.100E-11
     TRS4 it   3 1.00000000   0.156E+02       0.013     2158.419   0.100E-11
     TRS4 it   4 1.00000000   0.908E+01       0.013     2167.091   0.100E-11
     TRS4 it   5 1.00000000   0.378E+01       0.013     2178.895   0.100E-11
     TRS4 it   6 1.00000000   0.970E+00       0.013     2185.538   0.100E-11
     TRS4 it   7 1.00000000   0.119E+00       0.013     2205.712   0.100E-11
     TRS4 it   8 1.00000000   0.276E-02       0.013     2202.562   0.100E-11
     TRS4 it   9 1.00000000   0.190E-05       0.013     2194.754   0.100E-11
     TRS4 it  10 1.00000000   0.196E-11       0.013     2169.410   0.100E-11
     Final TRS4 iteration   10 1.00000000   0.196E-11
     Chemical potential (mu):       0.05232
 
 PAO| energy:  -191.19010494757330      penalty:   5.1106951269131221E-004
 PAO|CG| trace_G_new   0.10486795234157935     
 PAO|CG| trace_G_prev   0.28082704506663181     
 PAO|CG| trace_G_mix    4.4437612102060037E-003
 PAO|CG| trace_D   0.40790123234512282     
 PAO|CG| trace_D_Gnew   7.8452565242703590E-004
 PAO|CG| beta:   0.35760156614383670     
 PAO| norm of gradient:  0.32383321685951144     
 PAO| energy improvement:  -5.4994427867626428E-002
 PAO| step     16                 -191.190104948  0.632E-03  0.401E+00     1.498
 PAO|LS| adapt:  T F F
 PAO|LS| adapt: scan_steps:    0.0000000000000000        0.0000000000000000        0.0000000000000000     
 PAO|LS| adapt: energies:   -191.19010494757330        0.0000000000000000        0.0000000000000000     
 PAO| ======================= Iteration:        17 =============================

     Lanczos converged:  F threshold:   0.100E-02
     Est. extremal eigenvalues:    0.482E+01   0.134E+00
     Est. condition number :    0.360E+02

 Order=           3
     NS sqrt iter    1 1.00000000   0.124E+01       0.021     2664.046
     NS sqrt iter    2 1.00000000   0.631E+00       0.034     3341.364
     NS sqrt iter    3 1.00000000   0.202E+00       0.034     3338.814
     NS sqrt iter    4 1.00000000   0.253E-01       0.034     3327.568
     NS sqrt iter    5 1.00000000   0.110E-03       0.034     3336.985
     NS sqrt iter    6 1.00000000   0.244E-10       0.018     2215.403
     Symmetrizing Results
     Final NS sqrt iter    6 1.00000000   0.218E-11

     Est. extremal eigenvalues     -0.84137     2.60936  converged:  T
     TRS4 it   1 1.00000000   0.286E+02       0.007     2113.100   0.100E-11
     TRS4 it   2 1.00000000   0.236E+02       0.013     2181.263   0.100E-11
     TRS4 it   3 1.00000000   0.155E+02       0.013     2159.667   0.100E-11
     TRS4 it   4 1.00000000   0.903E+01       0.013     2172.817   0.100E-11
     TRS4 it   5 1.00000000   0.374E+01       0.013     2179.034   0.100E-11
     TRS4 it   6 1.00000000   0.950E+00       0.013     2168.666   0.100E-11
     TRS4 it   7 1.00000000   0.114E+00       0.013     2204.352   0.100E-11
     TRS4 it   8 1.00000000   0.255E-02       0.013     2184.646   0.100E-11
     TRS4 it   9 1.00000000   0.163E-05       0.013     2190.735   0.100E-11
     TRS4 it  10 1.00000000   0.141E-11       0.013     2190.787   0.100E-11
     Final TRS4 iteration   10 1.00000000   0.141E-11
     Chemical potential (mu):       0.05345
 
 PAO| energy:  -191.19363889033443      penalty:   5.0378261476851022E-004
 PAO|LS| adapt:  T T F
 PAO|LS| adapt: scan_steps:    0.0000000000000000       0.40147969405036754        0.0000000000000000     
 PAO|LS| adapt: energies:   -191.19010494757330       -191.19363889033443        0.0000000000000000     
 PAO| ======================= Iteration:        18 =============================

     Lanczos converged:  F threshold:   0.100E-02
     Est. extremal eigenvalues:    0.478E+01   0.135E+00
     Est. condition number :    0.355E+02

 Order=           3
     NS sqrt iter    1 1.00000000   0.123E+01       0.021     2669.418
     NS sqrt iter    2 1.00000000   0.626E+00       0.034     3331.637
     NS sqrt iter    3 1.00000000   0.199E+00       0.034     3337.762
     NS sqrt iter    4 1.00000000   0.245E-01       0.034     3361.223
     NS sqrt iter    5 1.00000000   0.101E-03       0.034     3349.331
     NS sqrt iter    6 1.00000000   0.188E-10       0.017     2155.318
     Symmetrizing Results
     Final NS sqrt iter    6 1.00000000   0.205E-11

     Est. extremal eigenvalues     -0.84131     2.60786  converged:  T
     TRS4 it   1 1.00000000   0.287E+02       0.007     2113.301   0.100E-11
     TRS4 it   2 1.00000000   0.236E+02       0.013     2176.166   0.100E-11
     TRS4 it   3 1.00000000   0.155E+02       0.013     2179.498   0.100E-11
     TRS4 it   4 1.00000000   0.899E+01       0.013     2169.981   0.100E-11
     TRS4 it   5 1.00000000   0.370E+01       0.013     2160.402   0.100E-11
     TRS4 it   6 1.00000000   0.930E+00       0.013     2167.807   0.100E-11
     TRS4 it   7 1.00000000   0.110E+00       0.013     2184.942   0.100E-11
     TRS4 it   8 1.00000000   0.236E-02       0.013     2191.906   0.100E-11
     TRS4 it   9 1.00000000   0.139E-05       0.013     2178.550   0.100E-11
     TRS4 it  10 1.00000000   0.104E-11       0.013     2175.250   0.100E-11
     Final TRS4 iteration   10 1.00000000   0.104E-11
     Chemical potential (mu):       0.05463
 
 PAO| energy:  -191.12002499084494      penalty:   5.0431653255522549E-004
 PAO|LS| adapt:  T T T
 PAO|LS| adapt: scan_steps:    0.0000000000000000       0.40147969405036754       0.80295938810073508     
 PAO|LS| adapt: energies:   -191.19010494757330       -191.19363889033443       -191.12002499084494     
 PAO|LS| adapt: suggested step_size:   0.21913059156368192     
 PAO|LS| adapt: predicted energy  -191.20159633961586     
 PAO| ======================= Iteration:        19 =============================

     Lanczos converged:  F threshold:   0.100E-02
     Est. extremal eigenvalues:    0.484E+01   0.134E+00
     Est. condition number :    0.362E+02

 Order=           3
     NS sqrt iter    1 1.00000000   0.125E+01       0.021     2665.072
     NS sqrt iter    2 1.00000000   0.634E+00       0.034     3361.047
     NS sqrt iter    3 1.00000000   0.203E+00       0.034     3352.807
     NS sqrt iter    4 1.00000000   0.257E-01       0.034     3362.712
     NS sqrt iter    5 1.00000000   0.115E-03       0.034     3350.382
     NS sqrt iter    6 1.00000000   0.276E-10       0.019     2211.050
     Symmetrizing Results
     Final NS sqrt iter    6 1.00000000   0.219E-11

     Est. extremal eigenvalues     -0.84136     2.61006  converged:  T
     TRS4 it   1 1.00000000   0.286E+02       0.007     2127.074   0.100E-11
     TRS4 it   2 1.00000000   0.236E+02       0.013     2171.471   0.100E-11
     TRS4 it   3 1.00000000   0.156E+02       0.013     2189.272   0.100E-11
     TRS4 it   4 1.00000000   0.905E+01       0.013     2157.567   0.100E-11
     TRS4 it   5 1.00000000   0.376E+01       0.013     2204.178   0.100E-11
     TRS4 it   6 1.00000000   0.959E+00       0.013     2194.214   0.100E-11
     TRS4 it   7 1.00000000   0.116E+00       0.013     2155.896   0.100E-11
     TRS4 it   8 1.00000000   0.264E-02       0.013     2198.572   0.100E-11
     TRS4 it   9 1.00000000   0.175E-05       0.013     2182.464   0.100E-11
     TRS4 it  10 1.00000000   0.164E-11       0.013     2189.609   0.100E-11
     Final TRS4 iteration   10 1.00000000   0.164E-11
     Chemical potential (mu):       0.05293
 
 PAO| energy:  -191.20157659386820      penalty:   5.0613806741791288E-004
 PAO|CG| trace_G_new    2.1525288365436830E-002
 PAO|CG| trace_G_prev   0.10486795234157935     
 PAO|CG| trace_G_mix   -3.0815952565137059E-004
 PAO|CG| trace_D   0.15646880992478499     
 PAO|CG| trace_D_Gnew  -5.9090083521416080E-005
 PAO|CG| beta:   0.20819942988847132     
 PAO| norm of gradient:  0.14671499025470039     
 PAO| energy improvement:  -1.1471646294893389E-002
 PAO| step     19                 -191.201576594  0.287E-03  0.219E+00     1.490
 PAO|LS| adapt:  T F F
 PAO|LS| adapt: scan_steps:    0.0000000000000000        0.0000000000000000        0.0000000000000000     
 PAO|LS| adapt: energies:   -191.20157659386820        0.0000000000000000        0.0000000000000000     
 PAO| ======================= Iteration:        20 =============================

     Lanczos converged:  F threshold:   0.100E-02
     Est. extremal eigenvalues:    0.484E+01   0.134E+00
     Est. condition number :    0.362E+02

 Order=           3
     NS sqrt iter    1 1.00000000   0.125E+01       0.021     2673.094
     NS sqrt iter    2 1.00000000   0.633E+00       0.034     3362.449
     NS sqrt iter    3 1.00000000   0.203E+00       0.034     3339.702
     NS sqrt iter    4 1.00000000   0.257E-01       0.034     3326.863
     NS sqrt iter    5 1.00000000   0.114E-03       0.034     3328.906
     NS sqrt iter    6 1.00000000   0.271E-10       0.019     2222.948
     Symmetrizing Results
     Final NS sqrt iter    6 1.00000000   0.219E-11

     Est. extremal eigenvalues     -0.84136     2.60895  converged:  T
     TRS4 it   1 1.00000000   0.286E+02       0.007     2118.265   0.100E-11
     TRS4 it   2 1.00000000   0.236E+02       0.013     2173.032   0.100E-11
     TRS4 it   3 1.00000000   0.156E+02       0.013     2189.853   0.100E-11
     TRS4 it   4 1.00000000   0.904E+01       0.013     2144.728   0.100E-11
     TRS4 it   5 1.00000000   0.375E+01       0.013     2190.748   0.100E-11
     TRS4 it   6 1.00000000   0.955E+00       0.013     2173.459   0.100E-11
     TRS4 it   7 1.00000000   0.116E+00       0.013     2179.147   0.100E-11
     TRS4 it   8 1.00000000   0.261E-02       0.013     2192.693   0.100E-11
     TRS4 it   9 1.00000000   0.169E-05       0.013     2189.301   0.100E-11
     TRS4 it  10 1.00000000   0.154E-11       0.013     2178.172   0.100E-11
     Final TRS4 iteration   10 1.00000000   0.154E-11
     Chemical potential (mu):       0.05312
 
 PAO| energy:  -191.20539811312909      penalty:   4.9650490996302706E-004
 PAO|LS| adapt:  T T F
 PAO|LS| adapt: scan_steps:    0.0000000000000000       0.21913059156368192        0.0000000000000000     
 PAO|LS| adapt: energies:   -191.20157659386820       -191.20539811312909        0.0000000000000000     
 PAO| ======================= Iteration:        21 =============================

     Lanczos converged:  F threshold:   0.100E-02
     Est. extremal eigenvalues:    0.483E+01   0.134E+00
     Est. condition number :    0.361E+02

 Order=           3
     NS sqrt iter    1 1.00000000   0.124E+01       0.021     2669.500
     NS sqrt iter    2 1.00000000   0.633E+00       0.034     3345.793
     NS sqrt iter    3 1.00000000   0.203E+00       0.034     3356.495
     NS sqrt iter    4 1.00000000   0.257E-01       0.034     3344.777
     NS sqrt iter    5 1.00000000   0.114E-03       0.034     3348.886
     NS sqrt iter    6 1.00000000   0.266E-10       0.019     2184.373
     Symmetrizing Results
     Final NS sqrt iter    6 1.00000000   0.219E-11

     Est. extremal eigenvalues     -0.84137     2.60784  converged:  T
     TRS4 it   1 1.00000000   0.286E+02       0.007     2134.258   0.100E-11
     TRS4 it   2 1.00000000   0.236E+02       0.013     2184.347   0.100E-11
     TRS4 it   3 1.00000000   0.155E+02       0.013     2179.211   0.100E-11
     TRS4 it   4 1.00000000   0.903E+01       0.013     2168.091   0.100E-11
     TRS4 it   5 1.00000000   0.374E+01       0.013     2194.111   0.100E-11
     TRS4 it   6 1.00000000   0.950E+00       0.013     2193.288   0.100E-11
     TRS4 it   7 1.00000000   0.115E+00       0.013     2184.634   0.100E-11
     TRS4 it   8 1.00000000   0.257E-02       0.013     2179.262   0.100E-11
     TRS4 it   9 1.00000000   0.164E-05       0.013     2177.752   0.100E-11
     TRS4 it  10 1.00000000   0.144E-11       0.013     2181.631   0.100E-11
     Final TRS4 iteration   10 1.00000000   0.144E-11
     Chemical potential (mu):       0.05330
 
 PAO| energy:  -191.20741068340797      penalty:   4.8730184610982228E-004
 PAO|LS| adapt:  T T F
 PAO|LS| adapt: scan_steps:    0.0000000000000000       0.43826118312736384        0.0000000000000000     
 PAO|LS| adapt: energies:   -191.20157659386820       -191.20741068340797        0.0000000000000000     
 PAO| ======================= Iteration:        22 =============================

     Lanczos converged:  F threshold:   0.100E-02
     Est. extremal eigenvalues:    0.482E+01   0.134E+00
     Est. condition number :    0.360E+02

 Order=           3
     NS sqrt iter    1 1.00000000   0.124E+01       0.021     2658.448
     NS sqrt iter    2 1.00000000   0.632E+00       0.034     3341.103
     NS sqrt iter    3 1.00000000   0.203E+00       0.034     3362.414
     NS sqrt iter    4 1.00000000   0.257E-01       0.034     3326.968
     NS sqrt iter    5 1.00000000   0.113E-03       0.034     3340.643
     NS sqrt iter    6 1.00000000   0.258E-10       0.019     2182.836
     Symmetrizing Results
     Final NS sqrt iter    6 1.00000000   0.220E-11

     Est. extremal eigenvalues     -0.84137     2.60560  converged:  T
     TRS4 it   1 1.00000000   0.286E+02       0.007     2102.652   0.100E-11
     TRS4 it   2 1.00000000   0.236E+02       0.013     2179.211   0.100E-11
     TRS4 it   3 1.00000000   0.155E+02       0.013     2159.940   0.100E-11
     TRS4 it   4 1.00000000   0.901E+01       0.013     2208.543   0.100E-11
     TRS4 it   5 1.00000000   0.372E+01       0.013     2177.137   0.100E-11
     TRS4 it   6 1.00000000   0.942E+00       0.013     2171.958   0.100E-11
     TRS4 it   7 1.00000000   0.113E+00       0.014     2097.852   0.100E-11
     TRS4 it   8 1.00000000   0.249E-02       0.013     2150.979   0.100E-11
     TRS4 it   9 1.00000000   0.155E-05       0.013     2179.701   0.100E-11
     TRS4 it  10 1.00000000   0.127E-11       0.013     2189.225   0.100E-11
     Final TRS4 iteration   10 1.00000000   0.127E-11
     Chemical potential (mu):       0.05369
 
 PAO| energy:  -191.20593097498667      penalty:   4.7015829161760748E-004
 PAO|LS| Need extra step
 PAO|LS| adapt:  T T T
 PAO|LS| adapt: scan_steps:    0.0000000000000000       0.43826118312736384       0.87652236625472768     
 PAO|LS| adapt: energies:   -191.20157659386820       -191.20741068340797       -191.20593097498667     
 PAO|LS| adapt: suggested step_size:   0.56872392156550133     
 PAO|LS| adapt: predicted energy  -191.20773473930592     
 PAO| ======================= Iteration:        23 =============================

     Lanczos converged:  F threshold:   0.100E-02
     Est. extremal eigenvalues:    0.483E+01   0.134E+00
     Est. condition number :    0.361E+02

 Order=           3
     NS sqrt iter    1 1.00000000   0.124E+01       0.022     2642.294
     NS sqrt iter    2 1.00000000   0.632E+00       0.034     3337.092
     NS sqrt iter    3 1.00000000   0.203E+00       0.034     3318.846
     NS sqrt iter    4 1.00000000   0.257E-01       0.034     3333.051
     NS sqrt iter    5 1.00000000   0.114E-03       0.034     3305.126
     NS sqrt iter    6 1.00000000   0.264E-10       0.019     2198.696
     Symmetrizing Results
     Final NS sqrt iter    6 1.00000000   0.220E-11

     Est. extremal eigenvalues     -0.84137     2.60717  converged:  T
     TRS4 it   1 1.00000000   0.286E+02       0.007     2115.965   0.100E-11
     TRS4 it   2 1.00000000   0.236E+02       0.013     2178.338   0.100E-11
     TRS4 it   3 1.00000000   0.155E+02       0.013     2173.764   0.100E-11
     TRS4 it   4 1.00000000   0.902E+01       0.013     2172.279   0.100E-11
     TRS4 it   5 1.00000000   0.373E+01       0.013     2168.025   0.100E-11
     TRS4 it   6 1.00000000   0.948E+00       0.013     2177.325   0.100E-11
     TRS4 it   7 1.00000000   0.114E+00       0.013     2167.124   0.100E-11
     TRS4 it   8 1.00000000   0.254E-02       0.013     2162.529   0.100E-11
     TRS4 it   9 1.00000000   0.161E-05       0.013     2168.342   0.100E-11
     TRS4 it  10 1.00000000   0.139E-11       0.013     2169.562   0.100E-11
     Final TRS4 iteration   10 1.00000000   0.139E-11
     Chemical potential (mu):       0.05342
 
 PAO| energy:  -191.20774181505305      penalty:   4.8202385703997397E-004
 PAO|CG| trace_G_new    1.6852754680388684E-002
 PAO|CG| trace_G_prev    2.1525288365436830E-002
 PAO|CG| trace_G_mix    1.0491954847391097E-004
 PAO|CG| trace_D    2.8332347320388571E-002
 PAO|CG| trace_D_Gnew  -4.3749904100491810E-005
 PAO|CG| beta:   0.77805392650659133     
 PAO| norm of gradient:  0.12981816005624439     
 PAO| energy improvement:  -6.1652211848581828E-003
 PAO| step     23                 -191.207741815  0.254E-03  0.569E+00     1.939
 PAO|LS| adapt:  T F F
 PAO|LS| adapt: scan_steps:    0.0000000000000000        0.0000000000000000        0.0000000000000000     
 PAO|LS| adapt: energies:   -191.20774181505305        0.0000000000000000        0.0000000000000000     
 PAO| ======================= Iteration:        24 =============================

     Lanczos converged:  F threshold:   0.100E-02
     Est. extremal eigenvalues:    0.481E+01   0.133E+00
     Est. condition number :    0.361E+02

 Order=           3
     NS sqrt iter    1 1.00000000   0.124E+01       0.021     2659.381
     NS sqrt iter    2 1.00000000   0.631E+00       0.034     3351.115
     NS sqrt iter    3 1.00000000   0.202E+00       0.034     3321.821
     NS sqrt iter    4 1.00000000   0.256E-01       0.034     3338.791
     NS sqrt iter    5 1.00000000   0.113E-03       0.034     3333.643
     NS sqrt iter    6 1.00000000   0.261E-10       0.019     2201.603
     Symmetrizing Results
     Final NS sqrt iter    6 1.00000000   0.218E-11

     Est. extremal eigenvalues     -0.84138     2.60516  converged:  T
     TRS4 it   1 1.00000000   0.286E+02       0.007     2118.110   0.100E-11
     TRS4 it   2 1.00000000   0.236E+02       0.013     2208.812   0.100E-11
     TRS4 it   3 1.00000000   0.155E+02       0.013     2177.615   0.100E-11
     TRS4 it   4 1.00000000   0.900E+01       0.013     2167.280   0.100E-11
     TRS4 it   5 1.00000000   0.371E+01       0.013     2171.027   0.100E-11
     TRS4 it   6 1.00000000   0.939E+00       0.013     2173.086   0.100E-11
     TRS4 it   7 1.00000000   0.112E+00       0.013     2161.411   0.100E-11
     TRS4 it   8 1.00000000   0.247E-02       0.013     2179.241   0.100E-11
     TRS4 it   9 1.00000000   0.153E-05       0.013     2184.183   0.100E-11
     TRS4 it  10 1.00000000   0.126E-11       0.013     2166.274   0.100E-11
     Final TRS4 iteration   10 1.00000000   0.126E-11
     Chemical potential (mu):       0.05375
 
 PAO| energy:  -191.21109703056626      penalty:   4.4415027336495348E-004
 PAO|LS| adapt:  T T F
 PAO|LS| adapt: scan_steps:    0.0000000000000000       0.56872392156550133        0.0000000000000000     
 PAO|LS| adapt: energies:   -191.20774181505305       -191.21109703056626        0.0000000000000000     
 PAO| ======================= Iteration:        25 =============================

     Lanczos converged:  F threshold:   0.100E-02
     Est. extremal eigenvalues:    0.480E+01   0.133E+00
     Est. condition number :    0.361E+02

 Order=           3
     NS sqrt iter    1 1.00000000   0.123E+01       0.021     2680.715
     NS sqrt iter    2 1.00000000   0.629E+00       0.034     3357.030
     NS sqrt iter    3 1.00000000   0.202E+00       0.034     3347.795
     NS sqrt iter    4 1.00000000   0.255E-01       0.034     3323.204
     NS sqrt iter    5 1.00000000   0.113E-03       0.034     3326.189
     NS sqrt iter    6 1.00000000   0.260E-10       0.019     2196.039
     Symmetrizing Results
     Final NS sqrt iter    6 1.00000000   0.220E-11

     Est. extremal eigenvalues     -0.84138     2.60311  converged:  T
     TRS4 it   1 1.00000000   0.286E+02       0.007     2103.495   0.100E-11
     TRS4 it   2 1.00000000   0.235E+02       0.013     2177.835   0.100E-11
     TRS4 it   3 1.00000000   0.155E+02       0.013     2185.528   0.100E-11
     TRS4 it   4 1.00000000   0.897E+01       0.013     2159.892   0.100E-11
     TRS4 it   5 1.00000000   0.369E+01       0.013     2166.452   0.100E-11
     TRS4 it   6 1.00000000   0.929E+00       0.013     2160.105   0.100E-11
     TRS4 it   7 1.00000000   0.111E+00       0.013     2173.781   0.100E-11
     TRS4 it   8 1.00000000   0.240E-02       0.013     2181.735   0.100E-11
     TRS4 it   9 1.00000000   0.145E-05       0.013     2178.008   0.100E-11
     TRS4 it  10 1.00000000   0.112E-11       0.013     2159.681   0.100E-11
     Final TRS4 iteration   10 1.00000000   0.112E-11
     Chemical potential (mu):       0.05409
 
 PAO| energy:  -191.20173466991415      penalty:   4.1045664752499219E-004
 PAO|LS| adapt:  T T T
 PAO|LS| adapt: scan_steps:    0.0000000000000000       0.56872392156550133        1.1374478431310027     
 PAO|LS| adapt: energies:   -191.20774181505305       -191.21109703056626       -191.20173466991415     
 PAO|LS| adapt: suggested step_size:   0.43440559327714945     
 PAO|LS| adapt: predicted energy  -191.21145171482618     
 PAO| ======================= Iteration:        26 =============================

     Lanczos converged:  F threshold:   0.100E-02
     Est. extremal eigenvalues:    0.482E+01   0.133E+00
     Est. condition number :    0.361E+02

 Order=           3
     NS sqrt iter    1 1.00000000   0.124E+01       0.021     2665.228
     NS sqrt iter    2 1.00000000   0.631E+00       0.034     3343.912
     NS sqrt iter    3 1.00000000   0.202E+00       0.034     3350.224
     NS sqrt iter    4 1.00000000   0.256E-01       0.034     3343.598
     NS sqrt iter    5 1.00000000   0.113E-03       0.034     3316.334
     NS sqrt iter    6 1.00000000   0.262E-10       0.019     2224.084
     Symmetrizing Results
     Final NS sqrt iter    6 1.00000000   0.218E-11

     Est. extremal eigenvalues     -0.84138     2.60564  converged:  T
     TRS4 it   1 1.00000000   0.286E+02       0.007     2123.363   0.100E-11
     TRS4 it   2 1.00000000   0.236E+02       0.013     2179.191   0.100E-11
     TRS4 it   3 1.00000000   0.155E+02       0.013     2182.735   0.100E-11
     TRS4 it   4 1.00000000   0.900E+01       0.013     2190.045   0.100E-11
     TRS4 it   5 1.00000000   0.372E+01       0.013     2171.741   0.100E-11
     TRS4 it   6 1.00000000   0.941E+00       0.013     2170.444   0.100E-11
     TRS4 it   7 1.00000000   0.113E+00       0.013     2167.256   0.100E-11
     TRS4 it   8 1.00000000   0.249E-02       0.013     2176.980   0.100E-11
     TRS4 it   9 1.00000000   0.155E-05       0.013     2172.853   0.100E-11
     TRS4 it  10 1.00000000   0.128E-11       0.013     2193.617   0.100E-11
     Final TRS4 iteration   10 1.00000000   0.128E-11
     Chemical potential (mu):       0.05367
 
 PAO| energy:  -191.21143934205080      penalty:   4.5271067962207622E-004
 PAO|CG| trace_G_new    1.3423175104493189E-002
 PAO|CG| trace_G_prev    1.6852754680388684E-002
 PAO|CG| trace_G_mix    2.6743170803121644E-004
 PAO|CG| trace_D    3.4072328204779095E-002
 PAO|CG| trace_D_Gnew  -8.1008146167878346E-005
 PAO|CG| beta:   0.78062866551847021     
 PAO| norm of gradient:  0.11585842698955130     
 PAO| energy improvement:  -3.6975269977403968E-003
 PAO| step     26                 -191.211439342  0.226E-03  0.434E+00     1.495
 PAO|LS| adapt:  T F F
 PAO|LS| adapt: scan_steps:    0.0000000000000000        0.0000000000000000        0.0000000000000000     
 PAO|LS| adapt: energies:   -191.21143934205080        0.0000000000000000        0.0000000000000000     
 PAO| ======================= Iteration:        27 =============================

     Lanczos converged:  F threshold:   0.100E-02
     Est. extremal eigenvalues:    0.480E+01   0.133E+00
     Est. condition number :    0.361E+02

 Order=           3
     NS sqrt iter    1 1.00000000   0.124E+01       0.021     2681.255
     NS sqrt iter    2 1.00000000   0.629E+00       0.034     3322.317
     NS sqrt iter    3 1.00000000   0.202E+00       0.034     3332.234
     NS sqrt iter    4 1.00000000   0.255E-01       0.034     3348.198
     NS sqrt iter    5 1.00000000   0.113E-03       0.034     3327.491
     NS sqrt iter    6 1.00000000   0.265E-10       0.019     2194.338
     Symmetrizing Results
     Final NS sqrt iter    6 1.00000000   0.218E-11

     Est. extremal eigenvalues     -0.84139     2.60376  converged:  T
     TRS4 it   1 1.00000000   0.286E+02       0.007     2118.060   0.100E-11
     TRS4 it   2 1.00000000   0.235E+02       0.013     2171.562   0.100E-11
     TRS4 it   3 1.00000000   0.155E+02       0.013     2169.149   0.100E-11
     TRS4 it   4 1.00000000   0.898E+01       0.013     2180.891   0.100E-11
     TRS4 it   5 1.00000000   0.370E+01       0.013     2170.825   0.100E-11
     TRS4 it   6 1.00000000   0.933E+00       0.013     2186.804   0.100E-11
     TRS4 it   7 1.00000000   0.111E+00       0.013     2161.406   0.100E-11
     TRS4 it   8 1.00000000   0.242E-02       0.013     2175.055   0.100E-11
     TRS4 it   9 1.00000000   0.147E-05       0.013     2174.020   0.100E-11
     TRS4 it  10 1.00000000   0.118E-11       0.013     2178.053   0.100E-11
     Final TRS4 iteration   10 1.00000000   0.118E-11
     Chemical potential (mu):       0.05396
 
 PAO| energy:  -191.21413273239233      penalty:   4.1642448823201632E-004
 PAO|LS| adapt:  T T F
 PAO|LS| adapt: scan_steps:    0.0000000000000000       0.43440559327714945        0.0000000000000000     
 PAO|LS| adapt: energies:   -191.21143934205080       -191.21413273239233        0.0000000000000000     
 PAO| ======================= Iteration:        28 =============================

     Lanczos converged:  F threshold:   0.100E-02
     Est. extremal eigenvalues:    0.479E+01   0.132E+00
     Est. condition number :    0.362E+02

 Order=           3
     NS sqrt iter    1 1.00000000   0.123E+01       0.021     2666.401
     NS sqrt iter    2 1.00000000   0.627E+00       0.034     3366.922
     NS sqrt iter    3 1.00000000   0.201E+00       0.034     3331.957
     NS sqrt iter    4 1.00000000   0.254E-01       0.034     3355.929
     NS sqrt iter    5 1.00000000   0.113E-03       0.034     3348.520
     NS sqrt iter    6 1.00000000   0.269E-10       0.019     2224.009
     Symmetrizing Results
     Final NS sqrt iter    6 1.00000000   0.220E-11

     Est. extremal eigenvalues     -0.84140     2.60176  converged:  T
     TRS4 it   1 1.00000000   0.287E+02       0.007     2100.855   0.100E-11
     TRS4 it   2 1.00000000   0.235E+02       0.013     2178.203   0.100E-11
     TRS4 it   3 1.00000000   0.155E+02       0.013     2197.107   0.100E-11
     TRS4 it   4 1.00000000   0.896E+01       0.013     2192.622   0.100E-11
     TRS4 it   5 1.00000000   0.368E+01       0.013     2188.092   0.100E-11
     TRS4 it   6 1.00000000   0.924E+00       0.013     2167.649   0.100E-11
     TRS4 it   7 1.00000000   0.109E+00       0.013     2138.850   0.100E-11
     TRS4 it   8 1.00000000   0.236E-02       0.013     2174.592   0.100E-11
     TRS4 it   9 1.00000000   0.141E-05       0.013     2179.701   0.100E-11
     TRS4 it  10 1.00000000   0.107E-11       0.013     2192.885   0.100E-11
     Final TRS4 iteration   10 1.00000000   0.107E-11
     Chemical potential (mu):       0.05424
 
 PAO| energy:  -191.21043817517923      penalty:   3.8335859648274735E-004
 PAO|LS| adapt:  T T T
 PAO|LS| adapt: scan_steps:    0.0000000000000000       0.43440559327714945       0.86881118655429890     
 PAO|LS| adapt: energies:   -191.21143934205080       -191.21413273239233       -191.21043817517923     
 PAO|LS| adapt: suggested step_size:   0.40036394804678321     
 PAO|LS| adapt: predicted energy  -191.21415234618644     
 PAO| ======================= Iteration:        29 =============================

     Lanczos converged:  F threshold:   0.100E-02
     Est. extremal eigenvalues:    0.480E+01   0.133E+00
     Est. condition number :    0.361E+02

 Order=           3
     NS sqrt iter    1 1.00000000   0.124E+01       0.021     2674.234
     NS sqrt iter    2 1.00000000   0.629E+00       0.034     3351.769
     NS sqrt iter    3 1.00000000   0.202E+00       0.034     3324.998
     NS sqrt iter    4 1.00000000   0.255E-01       0.034     3326.546
     NS sqrt iter    5 1.00000000   0.113E-03       0.034     3339.405
     NS sqrt iter    6 1.00000000   0.264E-10       0.019     2187.542
     Symmetrizing Results
     Final NS sqrt iter    6 1.00000000   0.218E-11

     Est. extremal eigenvalues     -0.84139     2.60391  converged:  T
     TRS4 it   1 1.00000000   0.286E+02       0.007     2092.656   0.100E-11
     TRS4 it   2 1.00000000   0.235E+02       0.013     2184.312   0.100E-11
     TRS4 it   3 1.00000000   0.155E+02       0.013     2165.203   0.100E-11
     TRS4 it   4 1.00000000   0.898E+01       0.013     2167.926   0.100E-11
     TRS4 it   5 1.00000000   0.370E+01       0.013     2160.095   0.100E-11
     TRS4 it   6 1.00000000   0.933E+00       0.013     2166.833   0.100E-11
     TRS4 it   7 1.00000000   0.111E+00       0.013     2198.722   0.100E-11
     TRS4 it   8 1.00000000   0.243E-02       0.013     2192.174   0.100E-11
     TRS4 it   9 1.00000000   0.148E-05       0.013     2186.131   0.100E-11
[...]
     TRS4 it   1 1.00000000   0.289E+02       0.007     2101.342   0.100E-11
     TRS4 it   2 1.00000000   0.237E+02       0.013     2183.769   0.100E-11
     TRS4 it   3 1.00000000   0.157E+02       0.013     2178.543   0.100E-11
     TRS4 it   4 1.00000000   0.932E+01       0.013     2173.962   0.100E-11
     TRS4 it   5 1.00000000   0.419E+01       0.013     2158.123   0.100E-11
     TRS4 it   6 1.00000000   0.131E+01       0.013     2183.712   0.100E-11
     TRS4 it   7 1.00000000   0.240E+00       0.013     2183.171   0.100E-11
     TRS4 it   8 1.00000000   0.155E-01       0.013     2196.475   0.100E-11
     TRS4 it   9 1.00000000   0.854E-04       0.013     2166.940   0.100E-11
     TRS4 it  10 1.00000000   0.198E-08       0.013     2169.686   0.100E-11
     TRS4 it  11 1.00000000   0.000E+00       0.013     2180.202   0.100E-11
     Final TRS4 iteration   11 1.00000000   0.000E+00
     Chemical potential (mu):       0.01747
 
 PAO| energy:  -190.82321593047396      penalty:   1.1862298210879929E-008
 PAO| Writing restart file.
     Est. extremal eigenvalues     -0.84167     2.59397  converged:  T
     TRS4 it   1 1.00000000   0.289E+02       0.007     2090.049   0.100E-11
     TRS4 it   2 1.00000000   0.237E+02       0.013     2171.570   0.100E-11
     TRS4 it   3 1.00000000   0.157E+02       0.013     2181.156   0.100E-11
     TRS4 it   4 1.00000000   0.932E+01       0.013     2158.184   0.100E-11
     TRS4 it   5 1.00000000   0.419E+01       0.013     2187.214   0.100E-11
     TRS4 it   6 1.00000000   0.131E+01       0.013     2174.246   0.100E-11
     TRS4 it   7 1.00000000   0.240E+00       0.013     2175.298   0.100E-11
     TRS4 it   8 1.00000000   0.155E-01       0.013     2170.719   0.100E-11
     TRS4 it   9 1.00000000   0.854E-04       0.013     2160.066   0.100E-11
     TRS4 it  10 1.00000000   0.198E-08       0.013     2174.324   0.100E-11
     TRS4 it  11 1.00000000   0.000E+00       0.013     2195.851   0.100E-11
     Final TRS4 iteration   11 1.00000000   0.000E+00
     Chemical potential (mu):       0.01747

 SCF     1     -1103.044546143     -1103.044546143    1.755228

*********************************************************
 Using MIXING_FRACTION=0.450 to mix KS matrix:  iscf=  2
 KS_nw=0.450*KS + 0.550*KS_old
*********************************************************
     Est. extremal eigenvalues     -0.84167     2.59397  converged:  T
     TRS4 it   1 1.00000000   0.289E+02       0.007     2143.136   0.100E-11
     TRS4 it   2 1.00000000   0.237E+02       0.013     2169.679   0.100E-11
     TRS4 it   3 1.00000000   0.157E+02       0.013     2178.313   0.100E-11
     TRS4 it   4 1.00000000   0.932E+01       0.013     2177.885   0.100E-11
     TRS4 it   5 1.00000000   0.419E+01       0.013     2181.113   0.100E-11
     TRS4 it   6 1.00000000   0.131E+01       0.013     2185.407   0.100E-11
     TRS4 it   7 1.00000000   0.240E+00       0.013     2204.813   0.100E-11
     TRS4 it   8 1.00000000   0.155E-01       0.013     2168.851   0.100E-11
     TRS4 it   9 1.00000000   0.854E-04       0.013     2178.577   0.100E-11
     TRS4 it  10 1.00000000   0.198E-08       0.013     2160.126   0.100E-11
     TRS4 it  11 1.00000000   0.533E-14       0.013     2173.906   0.100E-11
     Final TRS4 iteration   11 1.00000000   0.533E-14
     Chemical potential (mu):       0.01747

 SCF     2     -1103.044546144        -0.000000000    1.756400


 SCF run converged in     2 steps.

 PAO| Storing density matrix for ASPC guess in slot:           1

 ENERGY| Total FORCE_EVAL ( QS ) energy [a.u.]:            -1103.044546143540629

 -------------------------------------------------------------------------------
 -                                                                             -
 -                                DBCSR STATISTICS                             -
 -                                                                             -
 -------------------------------------------------------------------------------
 COUNTER                                    TOTAL       BLAS       SMM       ACC
 flops     5 x     5 x     4             23116800       0.0%    100.0%      0.0%     
 flops    13 x     5 x     4             29818880       0.0%    100.0%      0.0%     
 flops     5 x    13 x     4             29818880       0.0%    100.0%      0.0%     
 flops    13 x    13 x     4             39370240       0.0%    100.0%      0.0%     
 flops     4 x     4 x     5           6491996160       0.0%    100.0%      0.0%     
 flops     5 x     4 x     5           8015052800       0.0%    100.0%      0.0%     
 flops     4 x     4 x    13           8439595008       0.0%    100.0%      0.0%     
 flops    13 x     4 x     5          10419568640       0.0%    100.0%      0.0%     
 flops     5 x     4 x    13          10419568640       0.0%    100.0%      0.0%     
 flops    13 x     4 x    13          13545439232       0.0%    100.0%      0.0%     
 flops     5 x     4 x     4         402437401920       0.0%    100.0%      0.0%     
 flops    13 x     4 x     4         527621548896       0.0%    100.0%      0.0%     
 flops     4 x     4 x     4       30037867033472       0.0%    100.0%      0.0%     
 flops inhomo. stacks                           0       0.0%      0.0%      0.0%
 flops total                        31.025379E+12       0.0%    100.0%      0.0%
 flops max/rank                    979.178472E+09       0.0%    100.0%      0.0%
 matmuls inhomo. stacks                         0       0.0%      0.0%      0.0%
 matmuls total                       238605682192       0.0%    100.0%      0.0%
 number of processed stacks             243740160       0.0%    100.0%      0.0%
 average stack size                                     0.0     978.9       0.0
 marketing flops                    53.484846E+12
 -------------------------------------------------------------------------------
 # multiplications                          50202
 max memory usage/rank             617.992192E+06
 # max total images/rank                        2
 # max 3D layers                                1
 # MPI messages exchanged                20884032
 MPI messages size (bytes):
  total size                         2.483795E+12
  min size                           0.000000E+00
  max size                         541.696000E+03
  average size                     118.932742E+03
 MPI breakdown and total messages size (bytes):
             size <=      128              890763                     6912
       128 < size <=     8192              340428               1235647872
      8192 < size <=    32768               37295                891449216
     32768 < size <=   131072             8793710             650206480128
    131072 < size <=  4194304            10821836            1831897045760
   4194304 < size <= 16777216                   0                        0
  16777216 < size                               0                        0
 -------------------------------------------------------------------------------

 *** WARNING in dbcsr_mm.F:301 :: Using a non-square number of MPI ranks ***
 *** might lead to poor performance. Used ranks: 32 Suggested: 36 64     ***

 -------------------------------------------------------------------------------
 -                                                                             -
 -                      DBCSR MESSAGE PASSING PERFORMANCE                      -
 -                                                                             -
 -------------------------------------------------------------------------------
 ROUTINE             CALLS      AVE VOLUME [Bytes]
 MP_Bcast               14                     12.
 MP_Allreduce       302319                     37.
 MP_Alltoall        129562                  14560.
 MP_ISend          1680356                  55342.
 MP_IRecv          1643408                  56658.
 -------------------------------------------------------------------------------

 -------------------------------------------------------------------------------
 -                                                                             -
 -                                DBM STATISTICS                               -
 -                                                                             -
 -------------------------------------------------------------------------------
    M  x    N  x    K                                          COUNT     PERCENT
 -------------------------------------------------------------------------------

 -------------------------------------------------------------------------------
 -                                                                             -
 -                                GRID STATISTICS                              -
 -                                                                             -
 -------------------------------------------------------------------------------
 LP    KERNEL             BACKEND                              COUNT     PERCENT
 2     collocate ortho    CPU                               11472314      28.83%
 2     integrate ortho    CPU                               11472314      28.83%
 3     collocate ortho    CPU                                7371826      18.53%
 3     integrate ortho    CPU                                7371826      18.53%
 4     collocate ortho    CPU                                1046542       2.63%
 4     integrate ortho    CPU                                1046542       2.63%
 0     collocate general  CPU                                   6144       0.02%
 -------------------------------------------------------------------------------

 MEMORY| Estimated peak process memory [MiB]                                 590

 -------------------------------------------------------------------------------
 -                                                                             -
 -                         MESSAGE PASSING PERFORMANCE                         -
 -                                                                             -
 -------------------------------------------------------------------------------

 ROUTINE             CALLS      AVE VOLUME [Bytes]
 MP_Group                5
 MP_Bcast           356342                   1979.
 MP_Allreduce       885661                    514.
 MP_Sync                 5
 MP_Alltoall           369
 MP_SendRecv          1302                  18832.
 MP_ISendRecv         1302                  18832.
 MP_Wait              3696
 MP_ISend             2166                 108220.
 MP_IRecv             2166                 108236.
 -------------------------------------------------------------------------------


 -------------------------------------------------------------------------------
 -                                                                             -
 -                           R E F E R E N C E S                               -
 -                                                                             -
 -------------------------------------------------------------------------------
 
 CP2K version 2024.3 (Development Version), the CP2K developers group (2024).
 CP2K is freely available from https://www.cp2k.org/ .
 
 T. D. Kuehne, M. Iannuzzi, M. Del Ben, V. V. Rybkin, P. Seewald, F. Stein, T. 
 Laino, R. Z. Khaliullin, O. Schuett, F. Schiffmann, D. Golze, J. Wilhelm, S. 
 Chulkov, M. H. Bani-Hashemian, V. Weber, U. Borstnik, M. Taillefumier, A. S. 
 Jakobovits, A. Lazzaro, H. Pabst, T. Mueller, R. Schade, M. Guidon, S. 
 Andermatt, N. Holmberg, G. K. Schenter, A. Hehn, A. Bussy, F. Belleflamme, G. 
 Tabacchi, A. Gloess, M. Lass, I. Bethune, C. J. Mundy, C. Plessl, M. Watkins, 
 J. VandeVondele, M. Krack, J. Hutter.
 J. Chem. Phys. 152, 194103 (2020).
 CP2K: An electronic structure and molecular dynamics software package - 
 Quickstep: Efficient and accurate electronic structure calculations.
 https://doi.org/10.1063/5.0007045

 O. Schuett, J. VandeVondele.
 J. Chem. Theory Comput. 14, 4168-4175 (2018).
 Machine Learning Adaptive Basis Sets for Efficient Large Scale Density 
 Functional Theory Simulation.
 https://doi.org/10.1021/acs.jctc.8b00378

 O. Schuett, P. Messmer, J. Hutter, J. VandeVondele.
 Electronic Structure Calculations on Graphics Processing Units, 173-190 (2016).
 GPU-Accelerated Sparse Matrix-Matrix Multiplication for Linear Scaling Density 
 Functional Theory.
 https://doi.org/10.1002/9781118670712.ch8

 A. Heinecke, G. Henry, M. Hutchinson, H. Pabst.
 Proceedings of Intl. Supercomputing Conference, 981-991 (2016).
 LIBXSMM: Accelerating Small Matrix Multiplications by Runtime Code Generation.
 https://doi.org/10.1109/SC.2016.83

 J. Hutter, M. Iannuzzi, F. Schiffmann, J. VandeVondele.
 WIREs Comput Mol Sci. 4, 15-25 (2014).
 CP2K: atomistic simulations of condensed matter systems.
 https://doi.org/10.1002/wcms.1159

 U. Borstnik, J. VandeVondele, V. Weber, J. Hutter.
 Parallel Comput. 40, 47-58 (2014).
 Sparse matrix multiplication: The distributed block-compressed sparse row 
 library.
 https://doi.org/10.1016/j.parco.2014.03.012

 A. Marek, V. Blum, R. Johanni, V. Havu, B. Lang, T. Auckenthaler, A. Heinecke, 
 H. Bungartz, H. Lederer.
 J. Phys. Condens. Matter 26, 213201 (2014).
 The ELPA library: scalable parallel eigenvalue solutions for electronic 
 structure theory and computational science.
 https://doi.org/10.1088/0953-8984/26/21/213201

 J. VandeVondele, U. Borstnik, J. Hutter.
 J. Chem. Theory Comput. 8, 3565-3573 (2012).
 Linear Scaling Self-Consistent Field Calculations with Millions of Atoms in the 
 Condensed Phase.
 https://doi.org/10.1021/ct200897x

 J. VandeVondele, J. Hutter.
 J. Chem. Phys. 127, 114105 (2007).
 Gaussian basis sets for accurate calculations on molecular systems in gas and 
 condensed phases.
 https://doi.org/10.1063/1.2770708

 J. VandeVondele, M. Krack, F. Mohamed, M. Parrinello, T. Chassaing, J. Hutter.
 Comput. Phys. Commun. 167, 103-128 (2005).
 QUICKSTEP: Fast and accurate density functional calculations using a mixed 
 Gaussian and plane waves approach.
 https://doi.org/10.1016/j.cpc.2004.12.014

 M. Krack.
 Theor. Chem. Acc. 114, 145-152 (2005).
 Pseudopotentials for H to Kr optimized for gradient-corrected 
 exchange-correlation functionals.
 https://doi.org/10.1007/s00214-005-0655-y

 M. Frigo, S. G. Johnson.
 Proc. IEEE 93, 216-231 (2005).
 The design and implementation of FFTW3.
 https://doi.org/10.1109/JPROC.2004.840301

 A. M. N. Niklasson, C. J. Tymczak, M. Challacombe.
 J. Chem. Phys. 118, 8611-8620 (2003).
 Trace resetting density matrix purification in O(N) self-consistent-field 
 theory.
 https://doi.org/10.1063/1.1559913

 C. Hartwigsen, S. Goedecker, J. Hutter.
 Phys. Rev. B 58, 3641-3662 (1998).
 Relativistic separable dual-space Gaussian pseudopotentials from H to Rn.
 https://doi.org/10.1103/PhysRevB.58.3641

 G. Lippert, J. Hutter, M. Parrinello.
 Mol. Phys. 92, 477-487 (1997).
 A hybrid Gaussian and plane wave density functional scheme.
 https://doi.org/10.1080/002689797170220

 S. Goedecker, M. Teter, J. Hutter.
 Phys. Rev. B 54, 1703-1710 (1996).
 Separable dual-space Gaussian pseudopotentials.
 https://doi.org/10.1103/PhysRevB.54.1703

 J. P. Perdew, K. Burke, M. Ernzerhof.
 Phys. Rev. Lett. 77, 3865-3868 (1996).
 Generalized gradient approximation made simple.
 https://doi.org/10.1103/PhysRevLett.77.3865


 -------------------------------------------------------------------------------
 -                                                                             -
 -                                T I M I N G                                  -
 -                                                                             -
 -------------------------------------------------------------------------------
 SUBROUTINE                       CALLS  ASD         SELF TIME        TOTAL TIME
                                MAXIMUM       AVERAGE  MAXIMUM  AVERAGE  MAXIMUM
 CP2K                                 1  1.0    0.013    0.016  446.602  446.603
 qs_energies                          1  2.0    0.000    0.000  446.443  446.444
 ls_scf                               1  3.0    0.000    0.000  445.348  445.349
 pao_update                           6  4.0    0.006    0.024  419.194  419.195
 pao_calc_energy                    816  5.0    0.003    0.017  376.003  376.005
 dbcsr_multiply_generic           50202  8.4    1.396    1.576  352.719  352.942
 multiply_cannon                  50202  9.4    2.602    3.061  286.374  291.248
 multiply_cannon_loop             50202 10.4    1.891    2.104  275.591  278.420
 ls_scf_init_matrix_S               822  7.0    0.008    0.009  215.501  215.544
 pao_rebuild_S                      816  6.0    0.003    0.003  213.917  213.960
 matrix_sqrt_Newton_Schulz          822  8.0    0.172    0.282  200.143  200.171
 multiply_cannon_multrec         401616 11.4  178.511  180.633  179.335  181.424
 pao_dm_trs4                        816  6.0    0.006    0.007  161.724  161.763
 density_matrix_trs4                829  7.0    0.217    0.345  155.523  155.595
 mp_waitall_1                   3214458 12.6   92.647   97.506   92.647   97.506
 multiply_cannon_metrocomm3      401616 11.4    0.707    0.758   74.888   78.408
 arnoldi_extremal                  1651  8.5    0.013    0.015   58.549   58.574
 arnoldi_normal_ev                 1651  9.5    0.036    0.061   58.533   58.557
 make_m2s                        100404  9.4    0.548    0.752   51.316   52.441
 build_subspace                    5746 10.7    0.352    0.382   51.498   51.528
 make_images                     100404 10.4    7.386    7.569   49.952   51.166
 dbcsr_matrix_vector_mult        175682 11.7    0.752    1.134   48.472   48.848
 pao_calc_AB                       1082  5.8    0.002    0.002   42.722   42.724
 pao_calc_AB_equi                  1082  6.8    0.040    0.100   42.720   42.722
 pao_calc_grad_lnv_wrt_AB           265  7.0    0.020    0.023   42.314   42.343
 dbcsr_matrix_vector_mult_local  175682 12.7   41.412   41.705   41.609   41.900
 make_images_data                100404 11.4    0.864    1.135   21.869   24.053
 ls_scf_main                          6  4.0    0.000    0.001   22.871   22.871
 hybrid_alltoall_any             102044 12.3    0.893    1.747   17.179   20.830
 ls_scf_dm_to_ks                     13  5.0    0.000    0.000   20.267   20.268
 matrix_qs_to_ls                   1651  7.5    0.016    0.023   17.247   17.327
 calculate_norms                 749952 11.4   11.690   12.615   11.690   12.615
 qs_ks_update_qs_env                 14  6.0    0.000    0.000   12.163   12.164
 rebuild_ks_matrix                   14  7.0    0.000    0.000   12.153   12.154
 qs_ks_build_kohn_sham_matrix        14  8.0    0.002    0.003   12.152   12.154
 make_images_pack                100404 11.4   11.129   11.396   11.265   11.534
 mp_sum_l                        205180  9.5    7.472   11.257    7.472   11.257
 qs_rho_update_rho_low               14  6.0    0.000    0.000    9.581    9.583
 calculate_rho_elec                  14  7.0    0.005    0.005    9.580    9.583
 sum_up_and_integrate                14  9.0    0.000    0.000    9.201    9.202
 integrate_v_rspace                  14 10.0    0.000    0.000    9.188    9.191
 -------------------------------------------------------------------------------

 The number of warnings for this run is : 1
 
 -------------------------------------------------------------------------------
  **** **** ******  **  PROGRAM ENDED AT                 2024-09-24 03:00:13.123
 ***** ** ***  *** **   PROGRAM RAN ON                                    moritz
 **    ****   ******    PROGRAM RAN BY                                       ole
 ***** **    ** ** **   PROGRAM PROCESS ID                                167294
  **** **  *******  **  PROGRAM STOPPED IN /home/ole/git/pao_ml_equivar/64H2O_MD
                                           /Frame3700
