 DBCSR| CPU Multiplication driver                                           XSMM (U)
 DBCSR| Multrec recursion limit                                              512 (U)
 DBCSR| Multiplication stack size                                           1000 (D)
 DBCSR| Maximum elements for images                                    UNLIMITED (U)
 DBCSR| Multiplicative factor virtual images                                   1 (U)
 DBCSR| Use multiplication densification                                       T (D)
 DBCSR| Multiplication size stacks                                             3 (U)
 DBCSR| Use memory pool for CPU allocation                                     F (U)
 DBCSR| Number of 3D layers                                               SINGLE (U)
 DBCSR| Use MPI memory allocation                                              F (U)
 DBCSR| Use RMA algorithm                                                      F (U)
 DBCSR| Use Communication thread                                               T (U)
 DBCSR| Communication thread load                                             87 (D)
 DBCSR| MPI: My process id                                                     0
 DBCSR| MPI: Number of processes                                              32
 DBCSR| OMP: Current number of threads                                         1
 DBCSR| OMP: Max number of threads                                             1
 DBCSR| Split modifier for TAS multiplication algorithm                  1.0E+00 (U)


  **** **** ******  **  PROGRAM STARTED AT               2024-09-23 17:42:33.882
 ***** ** ***  *** **   PROGRAM STARTED ON                                moritz
 **    ****   ******    PROGRAM STARTED BY                                   ole
 ***** **    ** ** **   PROGRAM PROCESS ID                                158320
  **** **  *******  **  PROGRAM STARTED IN /home/ole/git/pao_ml_equivar/64H2O_MD
                                           /Frame3700

 CP2K| version string:                 CP2K version 2024.3 (Development Version)
 CP2K| source code revision number:                                  git:3f890bb
 CP2K| cp2kflags: omp libint fftw3 libxc libgrpp pexsi elpa parallel scalapack c
 CP2K|            osma quip deepmd xsmm plumed2 spglib libdftd4 sirius libvori l
 CP2K|            libbqb libvdwxc hdf5
 CP2K| is freely available from                            https://www.cp2k.org/
 CP2K| Program compiled at                          Mo 23 Sep 2024 17:17:04 CEST
 CP2K| Program compiled on                                                moritz
 CP2K| Program compiled for                                                local
 CP2K| Data directory path                               /home/ole/git/cp2k/data
 CP2K| Input file name                                             64H2O_ref.inp

 GLOBAL| Force Environment number                                              1
 GLOBAL| Basis set file name                                        BASIS_MOLOPT
 GLOBAL| Potential file name                                      GTH_POTENTIALS
 GLOBAL| MM Potential file name                                     MM_POTENTIAL
 GLOBAL| Coordinate file name                                         coords.xyz
 GLOBAL| Method name                                                        CP2K
 GLOBAL| Project name                                                  64H2O_ref
 GLOBAL| Run type                                                         ENERGY
 GLOBAL| FFT library                                                       FFTW3
 GLOBAL| Diagonalization library                                            ELPA
 GLOBAL| DGEMM library                                                      BLAS
 GLOBAL| Minimum number of eigenvectors for ELPA usage                        16
 GLOBAL| Orthonormality check for eigenvectors                          DISABLED
 GLOBAL| Matrix multiplication library                                     COSMA
 GLOBAL| All-to-all communication in single precision                          F
 GLOBAL| FFTs using library dependent lengths                                  F
 GLOBAL| Grid backend                                                       AUTO
 GLOBAL| Global print level                                                  LOW
 GLOBAL| MPI I/O enabled                                                       T
 GLOBAL| Total number of message passing processes                            32
 GLOBAL| Number of threads for this process                                    1
 GLOBAL| This output is from process                                           0
 GLOBAL| Stack size for threads created by OpenMP (OMP_STACKSIZE)        default
 GLOBAL| CPU model name           AMD Ryzen Threadripper 3970X 32-Core Processor
 GLOBAL| CPUID                                                              1002

 MEMORY| system memory details [Kb]
 MEMORY|                        rank 0           min           max       average
 MEMORY| MemTotal            131752136     131752136     131752136     131752136
 MEMORY| MemFree             118154484     118154484     118154484     118154484
 MEMORY| Buffers                260220        260220        260220        260220
 MEMORY| Cached                7340004       7340004       7340004       7340004
 MEMORY| Slab                   715248        715248        715248        715248
 MEMORY| SReclaimable           277864        277864        277864        277864
 MEMORY| MemLikelyFree       126032572     126032572     126032572     126032572


 GENERATE|  Preliminary Number of Bonds generated:                             0
 GENERATE|  Achieved consistency in connectivity generation.

 *******************************************************************************
 *******************************************************************************
 **                                                                           **
 **     #####                         ##              ##                      **
 **    ##   ##            ##          ##              ##                      **
 **   ##     ##                       ##            ######                    **
 **   ##     ##  ##   ##  ##   #####  ##  ##   ####   ##    #####    #####    **
 **   ##     ##  ##   ##  ##  ##      ## ##   ##      ##   ##   ##  ##   ##   **
 **   ##  ## ##  ##   ##  ##  ##      ####     ###    ##   ######   ######    **
 **    ##  ###   ##   ##  ##  ##      ## ##      ##   ##   ##       ##        **
 **     #######   #####   ##   #####  ##  ##  ####    ##    #####   ##        **
 **           ##                                                    ##        **
 **                                                                           **
 **                                                ... make the atoms dance   **
 **                                                                           **
 **            Copyright (C) by CP2K developers group (2000-2024)             **
 **                      J. Chem. Phys. 152, 194103 (2020)                    **
 **                                                                           **
 *******************************************************************************


 TOTAL NUMBERS AND MAXIMUM NUMBERS

  Total number of            - Atomic kinds:                                   2
                             - Atoms:                                        192
                             - Shell sets:                                   192
                             - Shells:                                       704
                             - Primitive Cartesian functions:               1344
                             - Cartesian basis functions:                   1536
                             - Spherical basis functions:                   1472

  Maximum angular momentum of- Orbital basis functions:                        2
                             - Local part of the GTH pseudopotential:          2
                             - Non-local part of the GTH pseudopotential:      0

 ------------------------------ Linear scaling SCF -----------------------------
 eps_scf:                                                              0.100E-07
 eps_filter:                                                           0.100E-11
 mixing_fraction:                                                      0.450E+00
 max_scf:                                                                     25
 fixed chemical potential (mu)                                                 F
 has unit metric:                                                              F
 Computing inv(S):                                                             T
 Computing sqrt(S):                                                            T
 Computing S preconditioner                                                    F
 S sqrt method:                                                     NEWTONSCHULZ
 S sqrt order:                                                                 3
 Extrapolation order:                                                          1
 S preconditioner type                                                      NONE
 Polarized Atomic Orbitals (PAO)                                               F
 Purification method                                   Trace resetting 4th order
 Cluster type                                                             ATOMIC
 Computing Chebyshev                                                       FALSE
 Using PAO                                                                     F
 -------------------------------------------------------------------------------


     Lanczos converged:  F threshold:   0.100E-02
     Est. extremal eigenvalues:    0.864E+01   0.532E-02
     Est. condition number :    0.162E+04

 Order=           3
     NS sqrt iter    1 1.00000000   0.222E+01       0.065     6176.456
     NS sqrt iter    2 1.00000000   0.117E+01       0.099     8049.843
     NS sqrt iter    3 1.00000000   0.581E+00       0.098     8113.062
     NS sqrt iter    4 1.00000000   0.334E+00       0.100     7975.475
     NS sqrt iter    5 1.00000000   0.226E+00       0.099     8047.518
     NS sqrt iter    6 1.00000000   0.106E+00       0.098     8132.176
     NS sqrt iter    7 1.00000000   0.134E-01       0.099     8025.251
     NS sqrt iter    8 1.00000000   0.766E-04       0.098     8118.709
     NS sqrt iter    9 1.00000000   0.786E-10       0.067     5952.396
     Symmetrizing Results
     Final NS sqrt iter    9 1.00000000   0.668E-11



 Guess for atomic kind: O

 Electronic structure
    Total number of core electrons                                          2.00
    Total number of valence electrons                                       6.00
    Total number of electrons                                               8.00
    Multiplicity                                                   not specified
    S   [  2.00] 2.00
    P      4.00


 *******************************************************************************
                  Iteration          Convergence                     Energy [au]
 *******************************************************************************
                          1        0.708315                     -15.576645311500
                          2        0.608879                     -15.587933561584
                          3        0.102828E-01                 -15.656849565404
                          4        0.113889E-02                 -15.656866888140
                          5        0.434197E-03                 -15.656867072159
                          6        0.263771E-03                 -15.656867091904
                          7        0.478536E-06                 -15.656867103452

 Energy components [Hartree]           Total Energy ::          -15.656867103452
                                        Band Energy ::           -3.000198112285
                                     Kinetic Energy ::           11.759971203220
                                   Potential Energy ::          -27.416838306672
                                      Virial (-V/T) ::            2.331369510426
                                        Core Energy ::          -26.140716385623
                                          XC Energy ::           -3.154051012914
                                     Coulomb Energy ::           13.637900295084
                       Total Pseudopotential Energy ::          -37.935781716540
                       Local Pseudopotential Energy ::          -39.218907440693
                    Nonlocal Pseudopotential Energy ::            1.283125724153
                                        Confinement ::            0.350941276976

 Orbital energies  State     L     Occupation   Energy[a.u.]          Energy[eV]

                       1     0          2.000      -0.864471          -23.523463

                       1     1          4.000      -0.317814           -8.648154


 Total Electron Density at R=0:                                         0.000068

 Guess for atomic kind: H

 Electronic structure
    Total number of core electrons                                          0.00
    Total number of valence electrons                                       1.00
    Total number of electrons                                               1.00
    Multiplicity                                                   not specified
    S      1.00


 *******************************************************************************
                  Iteration          Convergence                     Energy [au]
 *******************************************************************************
                          1        0.437545E-02                  -0.424159432110
                          2        0.531356E-03                  -0.424178438213
                          3        0.259176E-06                  -0.424178722480

 Energy components [Hartree]           Total Energy ::           -0.424178722480
                                        Band Energy ::           -0.199015229016
                                     Kinetic Energy ::            0.464007633961
                                   Potential Energy ::           -0.888186356441
                                      Virial (-V/T) ::            1.914163240935
                                        Core Energy ::           -0.479160803564
                                          XC Energy ::           -0.244352904054
                                     Coulomb Energy ::            0.299334985138
                       Total Pseudopotential Energy ::           -0.962295316385
                       Local Pseudopotential Energy ::           -0.962295316385
                    Nonlocal Pseudopotential Energy ::            0.000000000000
                                        Confinement ::            0.191268788606

 Orbital energies  State     L     Occupation   Energy[a.u.]          Energy[eV]

                       1     0          1.000      -0.199015           -5.415480


 Total Electron Density at R=0:                                         0.242907
 Re-scaling the density matrix to get the right number of electrons
                  # Electrons              Trace(P)               Scaling factor
                          512               512.001                        1.000
 Energy with the initial guess:     -1095.900278813

     Est. extremal eigenvalues     -0.94464     5.22858  converged:  F
     TRS4 it   1 1.00000000   0.566E+02       0.018     5492.433   0.100E-11
     TRS4 it   2 1.00000000   0.538E+02       0.019     5281.279   0.100E-11
     TRS4 it   3 1.00000000   0.337E+02       0.036     5538.708   0.100E-11
     TRS4 it   4 1.00000000   0.177E+02       0.036     5526.116   0.100E-11
     TRS4 it   5 1.00000000   0.107E+02       0.036     5531.723   0.100E-11
     TRS4 it   6 1.00000000   0.484E+01       0.036     5619.575   0.100E-11
     TRS4 it   7 1.00000000   0.143E+01       0.036     5558.009   0.100E-11
     TRS4 it   8 1.00000000   0.216E+00       0.036     5648.309   0.100E-11
     TRS4 it   9 1.00000000   0.917E-02       0.036     5582.842   0.100E-11
     TRS4 it  10 1.00000000   0.249E-04       0.036     5566.132   0.100E-11
     TRS4 it  11 1.00000000   0.669E-10       0.037     5493.555   0.100E-11
     Final TRS4 iteration   11 1.00000000   0.669E-10
     Chemical potential (mu):      -0.10618

 SCF     1     -1097.972165100     -1097.972165100    2.053322

*********************************************************
 Using MIXING_FRACTION=0.450 to mix KS matrix:  iscf=  2
 KS_nw=0.450*KS + 0.550*KS_old
*********************************************************
     Est. extremal eigenvalues     -0.83480     5.31728  converged:  T
     TRS4 it   1 1.00000000   0.558E+02       0.019     5318.667   0.100E-11
     TRS4 it   2 1.00000000   0.541E+02       0.019     5216.899   0.100E-11
     TRS4 it   3 1.00000000   0.350E+02       0.037     5485.627   0.100E-11
     TRS4 it   4 1.00000000   0.184E+02       0.036     5570.193   0.100E-11
     TRS4 it   5 1.00000000   0.119E+02       0.036     5574.161   0.100E-11
     TRS4 it   6 1.00000000   0.620E+01       0.036     5506.491   0.100E-11
     TRS4 it   7 1.00000000   0.247E+01       0.036     5530.079   0.100E-11
     TRS4 it   8 1.00000000   0.680E+00       0.036     5548.681   0.100E-11
     TRS4 it   9 1.00000000   0.103E+00       0.036     5554.146   0.100E-11
     TRS4 it  10 1.00000000   0.535E-02       0.036     5548.985   0.100E-11
     TRS4 it  11 1.00000000   0.914E-05       0.036     5557.600   0.100E-11
     TRS4 it  12 1.00000000   0.281E-10       0.036     5613.944   0.100E-11
     Final TRS4 iteration   12 1.00000000   0.281E-10
     Chemical potential (mu):      -0.01768

 SCF     2     -1102.973769828        -5.001604727    2.094204

*********************************************************
 Using MIXING_FRACTION=0.450 to mix KS matrix:  iscf=  3
 KS_nw=0.450*KS + 0.550*KS_old
*********************************************************
     Est. extremal eigenvalues     -0.84812     5.30961  converged:  T
     TRS4 it   1 1.00000000   0.560E+02       0.019     5310.581   0.100E-11
     TRS4 it   2 1.00000000   0.541E+02       0.019     5322.042   0.100E-11
     TRS4 it   3 1.00000000   0.348E+02       0.036     5497.412   0.100E-11
     TRS4 it   4 1.00000000   0.184E+02       0.037     5461.061   0.100E-11
     TRS4 it   5 1.00000000   0.118E+02       0.036     5558.978   0.100E-11
     TRS4 it   6 1.00000000   0.605E+01       0.036     5579.678   0.100E-11
     TRS4 it   7 1.00000000   0.234E+01       0.036     5569.547   0.100E-11
     TRS4 it   8 1.00000000   0.609E+00       0.036     5599.687   0.100E-11
     TRS4 it   9 1.00000000   0.822E-01       0.036     5576.739   0.100E-11
     TRS4 it  10 1.00000000   0.326E-02       0.037     5483.365   0.100E-11
     TRS4 it  11 1.00000000   0.339E-05       0.036     5536.463   0.100E-11
     TRS4 it  12 1.00000000   0.488E-11       0.036     5522.704   0.100E-11
     Final TRS4 iteration   12 1.00000000   0.488E-11
     Chemical potential (mu):      -0.02622

 SCF     3     -1103.129979560        -0.156209732    2.080202

*********************************************************
 Using MIXING_FRACTION=0.450 to mix KS matrix:  iscf=  4
 KS_nw=0.450*KS + 0.550*KS_old
*********************************************************
     Est. extremal eigenvalues     -0.84291     5.31489  converged:  T
     TRS4 it   1 1.00000000   0.560E+02       0.019     5320.952   0.100E-11
     TRS4 it   2 1.00000000   0.541E+02       0.018     5479.892   0.100E-11
     TRS4 it   3 1.00000000   0.348E+02       0.036     5520.012   0.100E-11
     TRS4 it   4 1.00000000   0.184E+02       0.036     5529.285   0.100E-11
     TRS4 it   5 1.00000000   0.119E+02       0.036     5573.717   0.100E-11
     TRS4 it   6 1.00000000   0.612E+01       0.036     5618.317   0.100E-11
     TRS4 it   7 1.00000000   0.240E+01       0.036     5519.105   0.100E-11
     TRS4 it   8 1.00000000   0.642E+00       0.035     5675.978   0.100E-11
     TRS4 it   9 1.00000000   0.921E-01       0.036     5572.734   0.100E-11
     TRS4 it  10 1.00000000   0.427E-02       0.036     5529.104   0.100E-11
     TRS4 it  11 1.00000000   0.661E-05       0.036     5577.885   0.100E-11
     TRS4 it  12 1.00000000   0.198E-10       0.036     5530.287   0.100E-11
     Final TRS4 iteration   12 1.00000000   0.198E-10
     Chemical potential (mu):      -0.02023

 SCF     4     -1103.137781533        -0.007801973    2.079713

*********************************************************
 Using MIXING_FRACTION=0.450 to mix KS matrix:  iscf=  5
 KS_nw=0.450*KS + 0.550*KS_old
*********************************************************
     Est. extremal eigenvalues     -0.84294     5.31580  converged:  T
     TRS4 it   1 1.00000000   0.560E+02       0.019     5252.738   0.100E-11
     TRS4 it   2 1.00000000   0.541E+02       0.019     5406.840   0.100E-11
     TRS4 it   3 1.00000000   0.348E+02       0.036     5573.209   0.100E-11
     TRS4 it   4 1.00000000   0.185E+02       0.036     5629.744   0.100E-11
     TRS4 it   5 1.00000000   0.119E+02       0.036     5541.114   0.100E-11
     TRS4 it   6 1.00000000   0.613E+01       0.036     5537.963   0.100E-11
     TRS4 it   7 1.00000000   0.240E+01       0.036     5504.705   0.100E-11
     TRS4 it   8 1.00000000   0.645E+00       0.036     5596.003   0.100E-11
     TRS4 it   9 1.00000000   0.931E-01       0.036     5551.059   0.100E-11
     TRS4 it  10 1.00000000   0.438E-02       0.036     5545.647   0.100E-11
     TRS4 it  11 1.00000000   0.719E-05       0.036     5638.902   0.100E-11
     TRS4 it  12 1.00000000   0.250E-10       0.037     5496.111   0.100E-11
     Final TRS4 iteration   12 1.00000000   0.250E-10
     Chemical potential (mu):      -0.01933

 SCF     5     -1103.138406074        -0.000624541    2.080660

*********************************************************
 Using MIXING_FRACTION=0.450 to mix KS matrix:  iscf=  6
 KS_nw=0.450*KS + 0.550*KS_old
*********************************************************
     Est. extremal eigenvalues     -0.84210     5.31657  converged:  T
     TRS4 it   1 1.00000000   0.560E+02       0.019     5222.875   0.100E-11
     TRS4 it   2 1.00000000   0.541E+02       0.019     5329.183   0.100E-11
     TRS4 it   3 1.00000000   0.348E+02       0.036     5542.853   0.100E-11
     TRS4 it   4 1.00000000   0.185E+02       0.036     5573.107   0.100E-11
     TRS4 it   5 1.00000000   0.119E+02       0.036     5565.038   0.100E-11
     TRS4 it   6 1.00000000   0.614E+01       0.037     5470.756   0.100E-11
     TRS4 it   7 1.00000000   0.241E+01       0.036     5556.372   0.100E-11
     TRS4 it   8 1.00000000   0.648E+00       0.036     5626.589   0.100E-11
     TRS4 it   9 1.00000000   0.943E-01       0.036     5568.255   0.100E-11
     TRS4 it  10 1.00000000   0.452E-02       0.036     5589.465   0.100E-11
     TRS4 it  11 1.00000000   0.782E-05       0.036     5527.128   0.100E-11
     TRS4 it  12 1.00000000   0.297E-10       0.036     5590.832   0.100E-11
     Final TRS4 iteration   12 1.00000000   0.297E-10
     Chemical potential (mu):      -0.01840

 SCF     6     -1103.138500290        -0.000094216    2.227805

*********************************************************
 Using MIXING_FRACTION=0.450 to mix KS matrix:  iscf=  7
 KS_nw=0.450*KS + 0.550*KS_old
*********************************************************
     Est. extremal eigenvalues     -0.84190     5.31690  converged:  T
     TRS4 it   1 1.00000000   0.560E+02       0.019     5416.533   0.100E-11
     TRS4 it   2 1.00000000   0.541E+02       0.019     5322.502   0.100E-11
     TRS4 it   3 1.00000000   0.348E+02       0.037     5461.691   0.100E-11
     TRS4 it   4 1.00000000   0.185E+02       0.036     5546.865   0.100E-11
     TRS4 it   5 1.00000000   0.119E+02       0.036     5648.465   0.100E-11
     TRS4 it   6 1.00000000   0.615E+01       0.036     5589.784   0.100E-11
     TRS4 it   7 1.00000000   0.241E+01       0.036     5610.561   0.100E-11
     TRS4 it   8 1.00000000   0.650E+00       0.035     5719.459   0.100E-11
     TRS4 it   9 1.00000000   0.948E-01       0.036     5618.747   0.100E-11
     TRS4 it  10 1.00000000   0.457E-02       0.036     5643.496   0.100E-11
     TRS4 it  11 1.00000000   0.808E-05       0.036     5594.792   0.100E-11
     TRS4 it  12 1.00000000   0.321E-10       0.036     5549.341   0.100E-11
     Final TRS4 iteration   12 1.00000000   0.321E-10
     Chemical potential (mu):      -0.01802

 SCF     7     -1103.138520385        -0.000020095    2.076565

*********************************************************
 Using MIXING_FRACTION=0.450 to mix KS matrix:  iscf=  8
 KS_nw=0.450*KS + 0.550*KS_old
*********************************************************
     Est. extremal eigenvalues     -0.84170     5.31709  converged:  T
     TRS4 it   1 1.00000000   0.560E+02       0.019     5291.237   0.100E-11
     TRS4 it   2 1.00000000   0.541E+02       0.018     5497.995   0.100E-11
     TRS4 it   3 1.00000000   0.348E+02       0.037     5474.139   0.100E-11
     TRS4 it   4 1.00000000   0.185E+02       0.037     5494.542   0.100E-11
     TRS4 it   5 1.00000000   0.119E+02       0.036     5559.676   0.100E-11
     TRS4 it   6 1.00000000   0.615E+01       0.036     5583.893   0.100E-11
     TRS4 it   7 1.00000000   0.241E+01       0.035     5659.265   0.100E-11
     TRS4 it   8 1.00000000   0.650E+00       0.035     5667.243   0.100E-11
     TRS4 it   9 1.00000000   0.951E-01       0.036     5529.177   0.100E-11
     TRS4 it  10 1.00000000   0.460E-02       0.036     5562.473   0.100E-11
     TRS4 it  11 1.00000000   0.822E-05       0.035     5656.248   0.100E-11
     TRS4 it  12 1.00000000   0.333E-10       0.036     5521.721   0.100E-11
     Final TRS4 iteration   12 1.00000000   0.333E-10
     Chemical potential (mu):      -0.01780

 SCF     8     -1103.138525250        -0.000004865    2.079947


 SCF run converged in     8 steps.

 Writing restart DM 64H2O_ref_LS_DM_SPIN_1_RESTART.dm with checksum:       0.61533058E+04

 ENERGY| Total FORCE_EVAL ( QS ) energy [a.u.]:            -1103.138525250069961

 -------------------------------------------------------------------------------
 -                                                                             -
 -                                DBCSR STATISTICS                             -
 -                                                                             -
 -------------------------------------------------------------------------------
 COUNTER                                    TOTAL       BLAS       SMM       ACC
 flops     5 x     5 x     5          79432869250       0.0%    100.0%      0.0%     
 flops    13 x     5 x     5         102843593450       0.0%    100.0%      0.0%     
 flops     5 x    13 x     5         102868491050       0.0%    100.0%      0.0%     
 flops     5 x     5 x    13         103372715550       0.0%    100.0%      0.0%     
 flops    13 x     5 x    13         133840842850       0.0%    100.0%      0.0%     
 flops     5 x    13 x    13         133906245850       0.0%    100.0%      0.0%     
 flops    13 x    13 x     5         135039651110       0.0%    100.0%      0.0%     
 flops    13 x    13 x    13         175782035910       0.0%    100.0%      0.0%     
 flops inhomo. stacks                           0       0.0%      0.0%      0.0%
 flops total                       967.086445E+09       0.0%    100.0%      0.0%
 flops max/rank                     31.041757E+09       0.0%    100.0%      0.0%
 matmuls inhomo. stacks                         0       0.0%      0.0%      0.0%
 matmuls total                         1071586918       0.0%    100.0%      0.0%
 number of processed stacks               1516612       0.0%    100.0%      0.0%
 average stack size                                     0.0     706.6       0.0
 marketing flops                     1.569237E+12
 -------------------------------------------------------------------------------
 # multiplications                            246
 max memory usage/rank             621.551616E+06
 # max total images/rank                        2
 # max 3D layers                                1
 # MPI messages exchanged                  102336
 MPI messages size (bytes):
  total size                        42.369155E+09
  min size                           0.000000E+00
  max size                         541.696000E+03
  average size                     414.020031E+03
 MPI breakdown and total messages size (bytes):
             size <=      128                 312                        0
       128 < size <=     8192                  42                   279312
      8192 < size <=    32768                  62                   841968
     32768 < size <=   131072                   0                        0
    131072 < size <=  4194304              101920              42368032320
   4194304 < size <= 16777216                   0                        0
  16777216 < size                               0                        0
 -------------------------------------------------------------------------------

 *** WARNING in dbcsr_mm.F:301 :: Using a non-square number of MPI ranks ***
 *** might lead to poor performance. Used ranks: 32 Suggested: 36 64     ***

 -------------------------------------------------------------------------------
 -                                                                             -
 -                      DBCSR MESSAGE PASSING PERFORMANCE                      -
 -                                                                             -
 -------------------------------------------------------------------------------
 ROUTINE             CALLS      AVE VOLUME [Bytes]
 MP_Bcast                9                     12.
 MP_Allreduce         1762                     34.
 MP_Alltoall           546                  34827.
 MP_ISend             8604                 170850.
 MP_IRecv             8238                 179042.
 -------------------------------------------------------------------------------

 -------------------------------------------------------------------------------
 -                                                                             -
 -                                DBM STATISTICS                               -
 -                                                                             -
 -------------------------------------------------------------------------------
    M  x    N  x    K                                          COUNT     PERCENT
 -------------------------------------------------------------------------------

 -------------------------------------------------------------------------------
 -                                                                             -
 -                                GRID STATISTICS                              -
 -                                                                             -
 -------------------------------------------------------------------------------
 LP    KERNEL             BACKEND                              COUNT     PERCENT
 2     collocate ortho    CPU                                7375059      28.83%
 2     integrate ortho    CPU                                7375059      28.83%
 3     collocate ortho    CPU                                4739031      18.53%
 3     integrate ortho    CPU                                4739031      18.53%
 4     collocate ortho    CPU                                 672777       2.63%
 4     integrate ortho    CPU                                 672777       2.63%
 0     collocate general  CPU                                   6144       0.02%
 -------------------------------------------------------------------------------

 MEMORY| Estimated peak process memory [MiB]                                 594

 -------------------------------------------------------------------------------
 -                                                                             -
 -                         MESSAGE PASSING PERFORMANCE                         -
 -                                                                             -
 -------------------------------------------------------------------------------

 ROUTINE             CALLS      AVE VOLUME [Bytes]
 MP_Group                5
 MP_Bcast             2479                 157332.
 MP_Allreduce         6633                    940.
 MP_Sync                 5
 MP_Alltoall           244
 MP_SendRecv           837                  18832.
 MP_ISendRecv          837                  18832.
 MP_Wait              2391
 MP_ISend             1406                 108579.
 MP_IRecv             1406                 108603.
 -------------------------------------------------------------------------------


 -------------------------------------------------------------------------------
 -                                                                             -
 -                           R E F E R E N C E S                               -
 -                                                                             -
 -------------------------------------------------------------------------------
 
 CP2K version 2024.3 (Development Version), the CP2K developers group (2024).
 CP2K is freely available from https://www.cp2k.org/ .
 
 T. D. Kuehne, M. Iannuzzi, M. Del Ben, V. V. Rybkin, P. Seewald, F. Stein, T. 
 Laino, R. Z. Khaliullin, O. Schuett, F. Schiffmann, D. Golze, J. Wilhelm, S. 
 Chulkov, M. H. Bani-Hashemian, V. Weber, U. Borstnik, M. Taillefumier, A. S. 
 Jakobovits, A. Lazzaro, H. Pabst, T. Mueller, R. Schade, M. Guidon, S. 
 Andermatt, N. Holmberg, G. K. Schenter, A. Hehn, A. Bussy, F. Belleflamme, G. 
 Tabacchi, A. Gloess, M. Lass, I. Bethune, C. J. Mundy, C. Plessl, M. Watkins, 
 J. VandeVondele, M. Krack, J. Hutter.
 J. Chem. Phys. 152, 194103 (2020).
 CP2K: An electronic structure and molecular dynamics software package - 
 Quickstep: Efficient and accurate electronic structure calculations.
 https://doi.org/10.1063/5.0007045

 O. Schuett, P. Messmer, J. Hutter, J. VandeVondele.
 Electronic Structure Calculations on Graphics Processing Units, 173-190 (2016).
 GPU-Accelerated Sparse Matrix-Matrix Multiplication for Linear Scaling Density 
 Functional Theory.
 https://doi.org/10.1002/9781118670712.ch8

 A. Heinecke, G. Henry, M. Hutchinson, H. Pabst.
 Proceedings of Intl. Supercomputing Conference, 981-991 (2016).
 LIBXSMM: Accelerating Small Matrix Multiplications by Runtime Code Generation.
 https://doi.org/10.1109/SC.2016.83

 J. Hutter, M. Iannuzzi, F. Schiffmann, J. VandeVondele.
 WIREs Comput Mol Sci. 4, 15-25 (2014).
 CP2K: atomistic simulations of condensed matter systems.
 https://doi.org/10.1002/wcms.1159

 U. Borstnik, J. VandeVondele, V. Weber, J. Hutter.
 Parallel Comput. 40, 47-58 (2014).
 Sparse matrix multiplication: The distributed block-compressed sparse row 
 library.
 https://doi.org/10.1016/j.parco.2014.03.012

 A. Marek, V. Blum, R. Johanni, V. Havu, B. Lang, T. Auckenthaler, A. Heinecke, 
 H. Bungartz, H. Lederer.
 J. Phys. Condens. Matter 26, 213201 (2014).
 The ELPA library: scalable parallel eigenvalue solutions for electronic 
 structure theory and computational science.
 https://doi.org/10.1088/0953-8984/26/21/213201

 J. VandeVondele, U. Borstnik, J. Hutter.
 J. Chem. Theory Comput. 8, 3565-3573 (2012).
 Linear Scaling Self-Consistent Field Calculations with Millions of Atoms in the 
 Condensed Phase.
 https://doi.org/10.1021/ct200897x

 J. VandeVondele, J. Hutter.
 J. Chem. Phys. 127, 114105 (2007).
 Gaussian basis sets for accurate calculations on molecular systems in gas and 
 condensed phases.
 https://doi.org/10.1063/1.2770708

 J. VandeVondele, M. Krack, F. Mohamed, M. Parrinello, T. Chassaing, J. Hutter.
 Comput. Phys. Commun. 167, 103-128 (2005).
 QUICKSTEP: Fast and accurate density functional calculations using a mixed 
 Gaussian and plane waves approach.
 https://doi.org/10.1016/j.cpc.2004.12.014

 M. Krack.
 Theor. Chem. Acc. 114, 145-152 (2005).
 Pseudopotentials for H to Kr optimized for gradient-corrected 
 exchange-correlation functionals.
 https://doi.org/10.1007/s00214-005-0655-y

 M. Frigo, S. G. Johnson.
 Proc. IEEE 93, 216-231 (2005).
 The design and implementation of FFTW3.
 https://doi.org/10.1109/JPROC.2004.840301

 A. M. N. Niklasson, C. J. Tymczak, M. Challacombe.
 J. Chem. Phys. 118, 8611-8620 (2003).
 Trace resetting density matrix purification in O(N) self-consistent-field 
 theory.
 https://doi.org/10.1063/1.1559913

 C. Hartwigsen, S. Goedecker, J. Hutter.
 Phys. Rev. B 58, 3641-3662 (1998).
 Relativistic separable dual-space Gaussian pseudopotentials from H to Rn.
 https://doi.org/10.1103/PhysRevB.58.3641

 G. Lippert, J. Hutter, M. Parrinello.
 Mol. Phys. 92, 477-487 (1997).
 A hybrid Gaussian and plane wave density functional scheme.
 https://doi.org/10.1080/002689797170220

 S. Goedecker, M. Teter, J. Hutter.
 Phys. Rev. B 54, 1703-1710 (1996).
 Separable dual-space Gaussian pseudopotentials.
 https://doi.org/10.1103/PhysRevB.54.1703

 J. P. Perdew, K. Burke, M. Ernzerhof.
 Phys. Rev. Lett. 77, 3865-3868 (1996).
 Generalized gradient approximation made simple.
 https://doi.org/10.1103/PhysRevLett.77.3865


 -------------------------------------------------------------------------------
 -                                                                             -
 -                                T I M I N G                                  -
 -                                                                             -
 -------------------------------------------------------------------------------
 SUBROUTINE                       CALLS  ASD         SELF TIME        TOTAL TIME
                                MAXIMUM       AVERAGE  MAXIMUM  AVERAGE  MAXIMUM
 CP2K                                 1  1.0    0.013    0.018   20.589   20.590
 qs_energies                          1  2.0    0.000    0.000   20.429   20.429
 ls_scf                               1  3.0    0.000    0.000   19.317   19.318
 ls_scf_main                          1  4.0    0.000    0.000   16.773   16.773
 ls_scf_dm_to_ks                      8  5.0    0.000    0.000   12.500   12.503
 qs_ks_update_qs_env                  9  6.1    0.000    0.000    7.928    7.929
 rebuild_ks_matrix                    9  7.1    0.000    0.000    7.921    7.922
 qs_ks_build_kohn_sham_matrix         9  8.1    0.002    0.002    7.921    7.922
 qs_rho_update_rho_low                9  6.1    0.000    0.000    6.122    6.125
 calculate_rho_elec                   9  7.1    0.003    0.003    6.122    6.124
 sum_up_and_integrate                 9  9.1    0.000    0.000    6.028    6.029
 integrate_v_rspace                   9 10.1    0.000    0.000    6.019    6.020
 grid_collocate_task_list             9  8.1    5.438    5.498    5.438    5.498
 grid_integrate_task_list             9 11.1    5.212    5.335    5.212    5.335
 dbcsr_multiply_generic             246  6.2    0.012    0.013    4.644    4.649
 density_matrix_trs4                  8  5.0    0.004    0.006    4.268    4.270
 multiply_cannon                    246  7.2    0.018    0.022    3.777    3.831
 multiply_cannon_loop               246  8.2    0.019    0.022    3.701    3.761
 ls_scf_init_scf                      1  4.0    0.000    0.000    2.481    2.482
 multiply_cannon_multrec           1968  9.2    2.101    2.162    2.107    2.169
 mp_waitall_1                     16729 10.5    1.734    1.834    1.734    1.834
 fft_wrap_pw1pw2                    172 11.3    0.003    0.003    1.755    1.775
 fft_wrap_pw1pw2_200                100 12.8    0.104    0.109    1.683    1.722
 qs_vxc_create                        9  9.1    0.000    0.000    1.547    1.575
 xc_vxc_pw_create                     9 10.1    0.013    0.018    1.546    1.575
 ls_scf_initial_guess                 1  5.0    0.000    0.000    1.553    1.555
 ls_scf_qs_atomic_guess               1  6.0    0.000    0.000    1.553    1.555
 multiply_cannon_metrocomm3        1968  9.2    0.005    0.006    1.354    1.443
 fft3d_ps                           172 13.3    0.721    0.811    1.319    1.350
 xc_pw_derive                        54 12.1    0.001    0.001    1.096    1.175
 qs_energies_init_hamiltonians        1  3.0    0.000    0.000    1.111    1.111
 ls_scf_init_matrix_S                 1  5.0    0.000    0.000    0.928    0.929
 build_core_hamiltonian_matrix        1  4.0    0.000    0.000    0.733    0.921
 matrix_sqrt_Newton_Schulz            1  6.0    0.001    0.001    0.904    0.905
 xc_rho_set_and_dset_create           9 11.1    0.020    0.026    0.784    0.800
 xc_pw_divergence                     9 11.1    0.000    0.000    0.730    0.769
 density_rs2pw                        9  8.1    0.000    0.000    0.651    0.740
 make_m2s                           492  7.2    0.005    0.007    0.679    0.692
 make_images                        492  8.2    0.039    0.041    0.669    0.682
 mp_waitany                        1406 12.5    0.540    0.680    0.540    0.680
 build_core_ppl                       1  5.0    0.506    0.664    0.506    0.664
 transfer_rs2pw                      46  9.0    0.001    0.001    0.477    0.612
 potential_pw2rs                      9 11.1    0.001    0.001    0.597    0.599
 mp_alltoall_z22v                   172 15.3    0.421    0.591    0.421    0.591
 transfer_rs2pw_200                  10  9.8    0.034    0.059    0.373    0.507
 qs_env_update_s_mstruct              1  4.0    0.000    0.000    0.358    0.457
 arnoldi_extremal                     9  6.1    0.000    0.000    0.440    0.441
 arnoldi_normal_ev                    9  7.1    0.000    0.001    0.440    0.440
 -------------------------------------------------------------------------------

 The number of warnings for this run is : 1
 
 -------------------------------------------------------------------------------
  **** **** ******  **  PROGRAM ENDED AT                 2024-09-23 17:42:55.088
 ***** ** ***  *** **   PROGRAM RAN ON                                    moritz
 **    ****   ******    PROGRAM RAN BY                                       ole
 ***** **    ** ** **   PROGRAM PROCESS ID                                158320
  **** **  *******  **  PROGRAM STOPPED IN /home/ole/git/pao_ml_equivar/64H2O_MD
                                           /Frame3700
