 DBCSR| CPU Multiplication driver                                           XSMM
 DBCSR| Multrec recursion limit                                              512
 DBCSR| Multiplication stack size                                           1000
 DBCSR| Maximum elements for images                                    UNLIMITED
 DBCSR| Multiplicative factor virtual images                                   1
 DBCSR| Use multiplication densification                                       T
 DBCSR| Multiplication size stacks                                             3


  **** **** ******  **  PROGRAM STARTED AT               2019-02-14 01:05:08.228
 ***** ** ***  *** **   PROGRAM STARTED ON                                  otto
 **    ****   ******    PROGRAM STARTED BY                                   ole
 ***** **    ** ** **   PROGRAM PROCESS ID                                  5929
  **** **  *******  **  PROGRAM STARTED IN /home/ole/git/pao_ml_equivar/2H2O_MD/
                                           frame_0025

 CP2K| version string:                    CP2K version 7.0 (Development Version)
 CP2K| source code revision number:                                git:8bf305913
 CP2K| cp2kflags: libint fftw3 libxc xsmm libderiv_max_am1=5 libint_max_am=6    
 CP2K| is freely available from                            https://www.cp2k.org/
 CP2K| Program compiled at                           So Jan 13 00:02:37 CET 2019
 CP2K| Program compiled on                                                  otto
 CP2K| Program compiled for                                                local
 CP2K| Data directory path                               /home/ole/git/cp2k/data
 CP2K| Input file name                                            2H2O_pao44.inp

 GLOBAL| Force Environment number                                              1
 GLOBAL| Basis set file name                                        BASIS_MOLOPT
 GLOBAL| Potential file name                                      GTH_POTENTIALS
 GLOBAL| MM Potential file name                                     MM_POTENTIAL
 GLOBAL| Coordinate file name                                         coords.xyz
 GLOBAL| Method name                                                        CP2K
 GLOBAL| Project name                                                 2H2O_pao44
 GLOBAL| Preferred FFT library                                             FFTW3
 GLOBAL| Preferred diagonalization lib.                                       SL
 GLOBAL| Run type                                                         ENERGY
 GLOBAL| All-to-all communication in single precision                          F
 GLOBAL| FFTs using library dependent lengths                                  F
 GLOBAL| Global print level                                                  LOW
 GLOBAL| MPI I/O enabled                                                       T
 GLOBAL| Total number of message passing processes                             1
 GLOBAL| Number of threads for this process                                    1
 GLOBAL| This output is from process                                           0
 GLOBAL| CPU model name :  Intel(R) Core(TM) i5-3320M CPU @ 2.60GHz

 MEMORY| system memory details [Kb]
 MEMORY|                        rank 0           min           max       average
 MEMORY| MemTotal              7860772       7860772       7860772       7860772
 MEMORY| MemFree               2204064       2204064       2204064       2204064
 MEMORY| Buffers                279896        279896        279896        279896
 MEMORY| Cached                1866124       1866124       1866124       1866124
 MEMORY| Slab                   254496        254496        254496        254496
 MEMORY| SReclaimable           132396        132396        132396        132396
 MEMORY| MemLikelyFree         4482480       4482480       4482480       4482480


 GENERATE|  Preliminary Number of Bonds generated:                             0
 GENERATE|  Achieved consistency in connectivity generation.

 *******************************************************************************
 *******************************************************************************
 **                                                                           **
 **     #####                         ##              ##                      **
 **    ##   ##            ##          ##              ##                      **
 **   ##     ##                       ##            ######                    **
 **   ##     ##  ##   ##  ##   #####  ##  ##   ####   ##    #####    #####    **
 **   ##     ##  ##   ##  ##  ##      ## ##   ##      ##   ##   ##  ##   ##   **
 **   ##  ## ##  ##   ##  ##  ##      ####     ###    ##   ######   ######    **
 **    ##  ###   ##   ##  ##  ##      ## ##      ##   ##   ##       ##        **
 **     #######   #####   ##   #####  ##  ##  ####    ##    #####   ##        **
 **           ##                                                    ##        **
 **                                                                           **
 **                                                ... make the atoms dance   **
 **                                                                           **
 **            Copyright (C) by CP2K developers group (2000 - 2018)           **
 **                                                                           **
 *******************************************************************************


 TOTAL NUMBERS AND MAXIMUM NUMBERS

  Total number of            - Atomic kinds:                                   2
                             - Atoms:                                          6
                             - Shell sets:                                     6
                             - Shells:                                        22
                             - Primitive Cartesian functions:                 42
                             - Cartesian basis functions:                     48
                             - Spherical basis functions:                     46

  Maximum angular momentum of- Orbital basis functions:                        2
                             - Local part of the GTH pseudopotential:          2
                             - Non-local part of the GTH pseudopotential:      0

 ------------------------------ Linear scaling SCF -----------------------------
 eps_scf:                                       0.100E-07
 eps_filter:                                    0.100E-07
 mixing_fraction:                               0.450E+00
 max_scf:                                              25
 fixed chemical potential (mu)                          F
 has unit metric:                                       F
 Computing inv(S):                                      T
 Computing sqrt(S):                                     T
 Computing s preconditioner                             F
 sign sqrt order:                                       3
 Extrapolation order:                                   1
 Use single precision matrices                          F
 S preconditioner type                               NONE
 Polarized Atomic Orbitals (PAO)                        T
 Purification method                      Trace resetting 4th order
 Cluster type                                      ATOMIC
 Computing Chebyshev                                FALSE
 Using PAO                                              T
 -------------------------------------------------------------------------------

 
 PAO|                                  EPS_PAO                           0.5E-06
 PAO|                                  MIXING                            0.5E+00
 PAO|                                  MAX_PAO                              1000
 PAO|                                  MAX_CYCLES                           1000
 PAO|                                  PARAMETERIZATION                   DIRECT
 PAO|                                  PRECONDITION                            F
 PAO|                                  REGULARIZATION                    0.0E+00
 PAO|                                  EPS_PGF                           0.1E-09
 PAO|                                  PENALTY_DISTANCE                  0.1E+00
 PAO|                                  PENALTY_STRENGTH                  0.5E-02
 PAO|                                  LINPOT_PRECONDITION_DELTA         0.0E+00
 PAO|                                  LINPOT_INITGUESS_DELT             0.0E+00
 PAO|                                  LINPOT_REGULARIZATION_DELTA       0.0E+00
 PAO|                                  LINPOT_REGULARIZATION_STRENGTH    0.0E+00
 PAO|                                  OPTIMIZER                              CG
 PAO|                                  CG_INIT_STEPS                           2
 PAO|                                  CG_RESET_LIMIT                    0.1E+00
 PAO|                                  CHECK_UNITARY_TOL                -0.1E+01
 PAO|                                  CHECK_GRADIENT_TOL               -0.1E+01
 PAO|                                  NUM_GRADIENT_ORDER                      2
 PAO|                                  NUM_GRADIENT_EPS                  0.1E-07
 PAO|                                  PRINT%RESTART%WRITE_CYCLES            100
 PAO|                                  RESTART_FILE 
 PAO|                                  PREOPT_DM_FILE 2H2O_ref_LS_DM_SPIN_1_RESTART.dm
 PAO|                                  MACHINE_LEARNING%METHOD        GAUSSIAN_P
 PAO|                                  MACHINE_LEARNING%PRIOR               ZERO
 PAO|                                  MACHINE_LEARNING%DESCRIPTOR     POTENTIAL
 PAO|                                  MACHINE_LEARNING%TOLERANCE        0.1E-01
 PAO|                                  MACHINE_LEARNING%GP_NOISE_VAR     0.1E+00
 PAO|                                  MACHINE_LEARNING%GP_SCALE         0.5E-01
 

 Calculating atomic Fock matrix for atomic kind: O

 Electronic structure
    Total number of core electrons                                          2.00
    Total number of valence electrons                                       6.00
    Total number of electrons                                               8.00
    Multiplicity                                                   not specified
    S   [  2.00] 2.00
    P      4.00


 *******************************************************************************
                  Iteration          Convergence                     Energy [au]
 *******************************************************************************
                          1        0.708315                     -15.576645311500
                          2        0.608879                     -15.587933561584
                          3        0.102828E-01                 -15.656849565404
                          4        0.113889E-02                 -15.656866888140
                          5        0.434197E-03                 -15.656867072159
                          6        0.263771E-03                 -15.656867091904
                          7        0.478536E-06                 -15.656867103452

 Energy components [Hartree]           Total Energy ::          -15.656867103452
                                        Band Energy ::           -3.000198112285
                                     Kinetic Energy ::           11.759971203220
                                   Potential Energy ::          -27.416838306672
                                      Virial (-V/T) ::            2.331369510426
                                        Core Energy ::          -26.140716385623
                                          XC Energy ::           -3.154051012914
                                     Coulomb Energy ::           13.637900295084
                       Total Pseudopotential Energy ::          -37.935781716540
                       Local Pseudopotential Energy ::          -39.218907440693
                    Nonlocal Pseudopotential Energy ::            1.283125724153
                                        Confinement ::            0.350941276976

 Orbital energies  State     L     Occupation   Energy[a.u.]          Energy[eV]

                       1     0          2.000      -0.864471          -23.523463

                       1     1          4.000      -0.317814           -8.648154


 Total Electron Density at R=0:                                         0.000068

 Calculating atomic Fock matrix for atomic kind: H

 Electronic structure
    Total number of core electrons                                          0.00
    Total number of valence electrons                                       1.00
    Total number of electrons                                               1.00
    Multiplicity                                                   not specified
    S      1.00


 *******************************************************************************
                  Iteration          Convergence                     Energy [au]
 *******************************************************************************
                          1        0.437545E-02                  -0.424159432110
                          2        0.531356E-03                  -0.424178438213
                          3        0.259176E-06                  -0.424178722480

 Energy components [Hartree]           Total Energy ::           -0.424178722480
                                        Band Energy ::           -0.199015229016
                                     Kinetic Energy ::            0.464007633961
                                   Potential Energy ::           -0.888186356441
                                      Virial (-V/T) ::            1.914163240935
                                        Core Energy ::           -0.479160803564
                                          XC Energy ::           -0.244352904054
                                     Coulomb Energy ::            0.299334985138
                       Total Pseudopotential Energy ::           -0.962295316385
                       Local Pseudopotential Energy ::           -0.962295316385
                    Nonlocal Pseudopotential Energy ::            0.000000000000
                                        Confinement ::            0.191268788606

 Orbital energies  State     L     Occupation   Energy[a.u.]          Energy[eV]

                       1     0          1.000      -0.199015           -5.415480


 Total Electron Density at R=0:                                         0.242907
 PAO| Made initial guess for matrix_X with norm:   4.8989794855663558     

     Lanczos converged:  T threshold:   0.100E-02
     Est. extremal eigenvalues:    0.332E+01   0.120E+00
     Est. condition number :    0.277E+02
     NS sqrt iter    1 1.00000000   0.813E+00       0.002       40.528
     NS sqrt iter    2 1.00000000   0.432E+00       0.001       81.804
     NS sqrt iter    3 1.00000000   0.162E+00       0.001       83.601
     NS sqrt iter    4 1.00000000   0.178E-01       0.001       84.774
     NS sqrt iter    5 1.00000000   0.348E-04       0.001       67.626
     Final NS sqrt iter    5 1.00000000   0.185E-08

 PAO| Read restart DM 2H2O_ref_LS_DM_SPIN_1_RESTART.dm with checksum:    49.031600857127039     
 PAO| Quickstep energy from restart density:  -34.449445196981159     
 PAO| ======================= Iteration:         1 =============================

     Lanczos converged:  T threshold:   0.100E-02
     Est. extremal eigenvalues:    0.332E+01   0.120E+00
     Est. condition number :    0.277E+02
     NS sqrt iter    1 1.00000000   0.813E+00       0.001       64.512
     NS sqrt iter    2 1.00000000   0.432E+00       0.001      110.592
     NS sqrt iter    3 1.00000000   0.162E+00       0.001      110.592
     NS sqrt iter    4 1.00000000   0.178E-01       0.001      110.592
     NS sqrt iter    5 1.00000000   0.348E-04       0.001       85.248
     Final NS sqrt iter    5 1.00000000   0.185E-08

     Est. extremal eigenvalues     -0.91514     1.82219  converged:  T
     TRS4 it   1 1.00000000   0.869E+00       0.000       16.128   0.100E-07
     TRS4 it   2 1.00000000   0.682E+00       0.001       32.256   0.100E-07
     TRS4 it   3 1.00000000   0.500E+00       0.001       32.256   0.100E-07
     TRS4 it   4 1.00000000   0.317E+00       0.001       32.256   0.100E-07
     TRS4 it   5 1.00000000   0.160E+00       0.001       32.256   0.100E-07
     TRS4 it   6 1.00000000   0.517E-01       0.001       32.256   0.100E-07
     TRS4 it   7 1.00000000   0.767E-02       0.001       32.256   0.100E-07
     TRS4 it   8 1.00000000   0.239E-03       0.001       32.256   0.100E-07
     TRS4 it   9 1.00000000   0.256E-06       0.001       32.256   0.100E-07
     TRS4 it  10 1.00000000   0.295E-12       0.001       32.256   0.100E-07
     Final TRS4 iteration   10 1.00000000   0.295E-12
     Chemical potential (mu):      -0.07087
 
 PAO| energy:  -7.5680676012758177      penalty:   7.3955709864469868E-033
 PAO|CG| warming up with steepest descent
 PAO|CG| beta:    0.0000000000000000     
 PAO| norm of gradient:  0.77136897046555908     
 PAO|LS| adapt:  T F F
 PAO|LS| adapt: scan_steps:    0.0000000000000000        0.0000000000000000        0.0000000000000000     
 PAO|LS| adapt: energies:   -7.5680676012758177        0.0000000000000000        0.0000000000000000     
 PAO| ======================= Iteration:         2 =============================

     Lanczos converged:  T threshold:   0.100E-02
     Est. extremal eigenvalues:    0.324E+01   0.134E+00
     Est. condition number :    0.242E+02
     NS sqrt iter    1 1.00000000   0.797E+00       0.001       64.512
     NS sqrt iter    2 1.00000000   0.417E+00       0.001      110.592
     NS sqrt iter    3 1.00000000   0.145E+00       0.001      110.592
     NS sqrt iter    4 1.00000000   0.121E-01       0.001      110.592
     NS sqrt iter    5 1.00000000   0.104E-04       0.001       82.944
     Final NS sqrt iter    5 1.00000000   0.163E-09

     Est. extremal eigenvalues     -0.91861     1.76773  converged:  T
     TRS4 it   1 1.00000000   0.864E+00       0.000       16.128   0.100E-07
     TRS4 it   2 1.00000000   0.664E+00       0.001       32.256   0.100E-07
     TRS4 it   3 1.00000000   0.483E+00       0.001       32.256   0.100E-07
     TRS4 it   4 1.00000000   0.295E+00       0.001       32.256   0.100E-07
     TRS4 it   5 1.00000000   0.139E+00       0.001       32.256   0.100E-07
     TRS4 it   6 1.00000000   0.397E-01       0.001       32.256   0.100E-07
     TRS4 it   7 1.00000000   0.461E-02       0.001       32.256   0.100E-07
     TRS4 it   8 1.00000000   0.868E-04       0.001       32.256   0.100E-07
     TRS4 it   9 1.00000000   0.336E-07       0.001       32.256   0.100E-07
     Final TRS4 iteration    9 1.00000000   0.336E-07
     Chemical potential (mu):      -0.05927
 
 PAO| energy:  -7.6218177432003236      penalty:   2.1362933357915009E-008
 PAO|LS| adapt:  T T F
 PAO|LS| adapt: scan_steps:    0.0000000000000000       0.10000000000000001        0.0000000000000000     
 PAO|LS| adapt: energies:   -7.5680676012758177       -7.6218177432003236        0.0000000000000000     
 PAO| ======================= Iteration:         3 =============================

     Lanczos converged:  T threshold:   0.100E-02
     Est. extremal eigenvalues:    0.315E+01   0.146E+00
     Est. condition number :    0.216E+02
     NS sqrt iter    1 1.00000000   0.781E+00       0.001       64.512
     NS sqrt iter    2 1.00000000   0.401E+00       0.001      110.592
     NS sqrt iter    3 1.00000000   0.128E+00       0.001      110.592
     NS sqrt iter    4 1.00000000   0.821E-02       0.001      110.592
     NS sqrt iter    5 1.00000000   0.319E-05       0.001       82.944
     Final NS sqrt iter    5 1.00000000   0.154E-10

     Est. extremal eigenvalues     -0.92184     1.72358  converged:  T
     TRS4 it   1 1.00000000   0.860E+00       0.001       16.128   0.100E-07
     TRS4 it   2 1.00000000   0.647E+00       0.001       32.256   0.100E-07
     TRS4 it   3 1.00000000   0.466E+00       0.001       32.256   0.100E-07
     TRS4 it   4 1.00000000   0.274E+00       0.001       32.256   0.100E-07
     TRS4 it   5 1.00000000   0.120E+00       0.001       32.256   0.100E-07
     TRS4 it   6 1.00000000   0.296E-01       0.001       32.256   0.100E-07
     TRS4 it   7 1.00000000   0.255E-02       0.001       32.256   0.100E-07
     TRS4 it   8 1.00000000   0.266E-04       0.001       32.256   0.100E-07
     TRS4 it   9 1.00000000   0.315E-08       0.001       32.256   0.100E-07
     Final TRS4 iteration    9 1.00000000   0.315E-08
     Chemical potential (mu):      -0.04671
 
 PAO| energy:  -7.6634759157918806      penalty:   3.4180692791172666E-007
 PAO|LS| adapt:  T T F
 PAO|LS| adapt: scan_steps:    0.0000000000000000       0.20000000000000001        0.0000000000000000     
 PAO|LS| adapt: energies:   -7.5680676012758177       -7.6634759157918806        0.0000000000000000     
 PAO| ======================= Iteration:         4 =============================

     Lanczos converged:  T threshold:   0.100E-02
     Est. extremal eigenvalues:    0.297E+01   0.166E+00
     Est. condition number :    0.179E+02
     NS sqrt iter    1 1.00000000   0.746E+00       0.001       64.512
     NS sqrt iter    2 1.00000000   0.368E+00       0.001      110.592
     NS sqrt iter    3 1.00000000   0.998E-01       0.001      110.592
     NS sqrt iter    4 1.00000000   0.391E-02       0.001      110.592
     NS sqrt iter    5 1.00000000   0.404E-06       0.001       82.816
     Final NS sqrt iter    5 1.00000000   0.132E-09

     Est. extremal eigenvalues     -0.92687     1.65950  converged:  T
     TRS4 it   1 1.00000000   0.854E+00       0.000       16.128   0.100E-07
     TRS4 it   2 1.00000000   0.620E+00       0.001       32.256   0.100E-07
     TRS4 it   3 1.00000000   0.434E+00       0.001       32.256   0.100E-07
     TRS4 it   4 1.00000000   0.235E+00       0.001       32.256   0.100E-07
     TRS4 it   5 1.00000000   0.869E-01       0.001       32.256   0.100E-07
     TRS4 it   6 1.00000000   0.151E-01       0.001       32.256   0.100E-07
     TRS4 it   7 1.00000000   0.632E-03       0.001       32.256   0.100E-07
     TRS4 it   8 1.00000000   0.158E-05       0.001       32.256   0.100E-07
     TRS4 it   9 1.00000000   0.111E-10       0.001       32.256   0.100E-07
     Final TRS4 iteration    9 1.00000000   0.111E-10
     Chemical potential (mu):      -0.01890
 
 PAO| energy:  -7.7091249954870769      penalty:   5.4689108000690252E-006
 PAO|LS| Need extra step
 PAO|LS| adapt:  T T F
 PAO|LS| adapt: scan_steps:    0.0000000000000000       0.40000000000000002        0.0000000000000000     
 PAO|LS| adapt: energies:   -7.5680676012758177       -7.7091249954870769        0.0000000000000000     
 PAO| ======================= Iteration:         5 =============================

     Lanczos converged:  T threshold:   0.100E-02
     Est. extremal eigenvalues:    0.263E+01   0.193E+00
     Est. condition number :    0.136E+02
     NS sqrt iter    1 1.00000000   0.686E+00       0.001       64.512
     NS sqrt iter    2 1.00000000   0.307E+00       0.001      110.592
     NS sqrt iter    3 1.00000000   0.612E-01       0.001      104.696
     NS sqrt iter    4 1.00000000   0.105E-02       0.001      110.592
     NS sqrt iter    5 1.00000000   0.957E-08       0.001       44.032
     Final NS sqrt iter    5 1.00000000   0.590E-08

     Est. extremal eigenvalues     -0.92812     1.59057  converged:  T
     TRS4 it   1 1.00000000   0.848E+00       0.000       16.128   0.100E-07
     TRS4 it   2 1.00000000   0.583E+00       0.001       32.256   0.100E-07
     TRS4 it   3 1.00000000   0.382E+00       0.001       32.256   0.100E-07
     TRS4 it   4 1.00000000   0.175E+00       0.001       32.256   0.100E-07
     TRS4 it   5 1.00000000   0.453E-01       0.001       32.256   0.100E-07
     TRS4 it   6 1.00000000   0.376E-02       0.001       32.256   0.100E-07
     TRS4 it   7 1.00000000   0.332E-04       0.001       32.256   0.100E-07
     TRS4 it   8 1.00000000   0.322E-08       0.001       32.256   0.100E-07
     Final TRS4 iteration    8 1.00000000   0.322E-08
     Chemical potential (mu):       0.02932
 
 PAO| energy:  -7.6561554744839517      penalty:   8.7502572428953403E-005
 PAO|LS| Need extra step
 PAO|LS| adapt:  T T T
 PAO|LS| adapt: scan_steps:    0.0000000000000000       0.40000000000000002       0.80000000000000004     
 PAO|LS| adapt: energies:   -7.5680676012758177       -7.7091249954870769       -7.6561554744839517     
 PAO|LS| adapt: suggested step_size:   0.49079964304004314     
 PAO|LS| adapt: predicted energy  -7.7141239626392357     
 PAO| ======================= Iteration:         6 =============================

     Lanczos converged:  T threshold:   0.100E-02
     Est. extremal eigenvalues:    0.288E+01   0.173E+00
     Est. condition number :    0.167E+02
     NS sqrt iter    1 1.00000000   0.731E+00       0.001       64.512
     NS sqrt iter    2 1.00000000   0.353E+00       0.001      110.592
     NS sqrt iter    3 1.00000000   0.890E-01       0.001      110.592
     NS sqrt iter    4 1.00000000   0.285E-02       0.001      110.592
     NS sqrt iter    5 1.00000000   0.173E-06       0.001       79.744
     Final NS sqrt iter    5 1.00000000   0.118E-08

     Est. extremal eigenvalues     -0.92828     1.63843  converged:  T
     TRS4 it   1 1.00000000   0.852E+00       0.000       16.128   0.100E-07
     TRS4 it   2 1.00000000   0.610E+00       0.001       32.256   0.100E-07
     TRS4 it   3 1.00000000   0.421E+00       0.001       32.256   0.100E-07
     TRS4 it   4 1.00000000   0.219E+00       0.001       32.256   0.100E-07
     TRS4 it   5 1.00000000   0.745E-01       0.001       32.256   0.100E-07
     TRS4 it   6 1.00000000   0.109E-01       0.001       32.256   0.100E-07
     TRS4 it   7 1.00000000   0.314E-03       0.001       32.256   0.100E-07
     TRS4 it   8 1.00000000   0.371E-06       0.001       32.256   0.100E-07
     TRS4 it   9 1.00000000   0.607E-12       0.001       32.256   0.100E-07
     Final TRS4 iteration    9 1.00000000   0.607E-12
     Chemical potential (mu):      -0.00539
 
 PAO| energy:  -7.7134105679789968      penalty:   1.2395893225511711E-005
 PAO|CG| warming up with steepest descent
 PAO|CG| beta:    0.0000000000000000     
 PAO| norm of gradient:  0.40272662375776136     
 PAO| energy improvement: -0.14534296670317914     
 PAO| step      6                   -7.713410568  0.252E-01  0.491E+00     0.083
 PAO|LS| adapt:  T F F
 PAO|LS| adapt: scan_steps:    0.0000000000000000        0.0000000000000000        0.0000000000000000     
 PAO|LS| adapt: energies:   -7.7134105679789968        0.0000000000000000        0.0000000000000000     
 PAO| ======================= Iteration:         7 =============================

     Lanczos converged:  T threshold:   0.100E-02
     Est. extremal eigenvalues:    0.280E+01   0.187E+00
     Est. condition number :    0.150E+02
     NS sqrt iter    1 1.00000000   0.714E+00       0.001       64.512
     NS sqrt iter    2 1.00000000   0.332E+00       0.001      110.592
     NS sqrt iter    3 1.00000000   0.743E-01       0.001      110.592
     NS sqrt iter    4 1.00000000   0.172E-02       0.001      110.592
     NS sqrt iter    5 1.00000000   0.433E-07       0.001       70.400
     Final NS sqrt iter    5 1.00000000   0.386E-09

     Est. extremal eigenvalues     -0.93008     1.63037  converged:  T
     TRS4 it   1 1.00000000   0.852E+00       0.001       16.128   0.100E-07
     TRS4 it   2 1.00000000   0.609E+00       0.001       32.256   0.100E-07
     TRS4 it   3 1.00000000   0.421E+00       0.001       32.256   0.100E-07
     TRS4 it   4 1.00000000   0.221E+00       0.001       32.256   0.100E-07
     TRS4 it   5 1.00000000   0.754E-01       0.001       32.256   0.100E-07
     TRS4 it   6 1.00000000   0.108E-01       0.001       32.256   0.100E-07
     TRS4 it   7 1.00000000   0.297E-03       0.001       32.256   0.100E-07
     TRS4 it   8 1.00000000   0.317E-06       0.001       32.256   0.100E-07
     TRS4 it   9 1.00000000   0.437E-12       0.001       32.256   0.100E-07
     Final TRS4 iteration    9 1.00000000   0.437E-12
     Chemical potential (mu):      -0.00370
 
 PAO| energy:  -7.7089602314135046      penalty:   1.8364251448003971E-005
 PAO|LS| adapt:  T F T
 PAO|LS| adapt: scan_steps:    0.0000000000000000        0.0000000000000000       0.49079964304004314     
 PAO|LS| adapt: energies:   -7.7134105679789968        0.0000000000000000       -7.7089602314135046     
 PAO| ======================= Iteration:         8 =============================

     Lanczos converged:  T threshold:   0.100E-02
     Est. extremal eigenvalues:    0.284E+01   0.180E+00
     Est. condition number :    0.158E+02
     NS sqrt iter    1 1.00000000   0.723E+00       0.001       64.512
     NS sqrt iter    2 1.00000000   0.343E+00       0.001      110.592
     NS sqrt iter    3 1.00000000   0.814E-01       0.001       94.138
     NS sqrt iter    4 1.00000000   0.222E-02       0.001      109.986
     NS sqrt iter    5 1.00000000   0.881E-07       0.001       76.544
     Final NS sqrt iter    5 1.00000000   0.958E-09

     Est. extremal eigenvalues     -0.93013     1.63381  converged:  T
     TRS4 it   1 1.00000000   0.851E+00       0.000       16.128   0.100E-07
     TRS4 it   2 1.00000000   0.609E+00       0.001       32.256   0.100E-07
     TRS4 it   3 1.00000000   0.420E+00       0.001       32.256   0.100E-07
     TRS4 it   4 1.00000000   0.219E+00       0.001       32.256   0.100E-07
     TRS4 it   5 1.00000000   0.749E-01       0.001       32.256   0.100E-07
     TRS4 it   6 1.00000000   0.109E-01       0.001       32.256   0.100E-07
     TRS4 it   7 1.00000000   0.316E-03       0.001       32.256   0.100E-07
     TRS4 it   8 1.00000000   0.369E-06       0.001       32.256   0.100E-07
     TRS4 it   9 1.00000000   0.600E-12       0.001       32.256   0.100E-07
     Final TRS4 iteration    9 1.00000000   0.600E-12
     Chemical potential (mu):      -0.00510
 
 PAO| energy:  -7.7319610479593379      penalty:   1.3375682310855569E-005
 PAO|LS| adapt:  T T T
 PAO|LS| adapt: scan_steps:    0.0000000000000000       0.24539982152002157       0.49079964304004314     
 PAO|LS| adapt: energies:   -7.7134105679789968       -7.7319610479593379       -7.7089602314135046     
 PAO|LS| adapt: suggested step_size:   0.23225809201721459     
 PAO|LS| adapt: predicted energy  -7.7320206294200933     
 PAO| ======================= Iteration:         9 =============================

     Lanczos converged:  T threshold:   0.100E-02
     Est. extremal eigenvalues:    0.285E+01   0.179E+00
     Est. condition number :    0.159E+02
     NS sqrt iter    1 1.00000000   0.723E+00       0.001       64.512
     NS sqrt iter    2 1.00000000   0.343E+00       0.001      110.592
     NS sqrt iter    3 1.00000000   0.818E-01       0.001      110.592
     NS sqrt iter    4 1.00000000   0.226E-02       0.001      110.592
     NS sqrt iter    5 1.00000000   0.914E-07       0.001       77.056
     Final NS sqrt iter    5 1.00000000   0.988E-09

     Est. extremal eigenvalues     -0.93008     1.63402  converged:  T
     TRS4 it   1 1.00000000   0.851E+00       0.000       16.128   0.100E-07
     TRS4 it   2 1.00000000   0.609E+00       0.001       32.256   0.100E-07
     TRS4 it   3 1.00000000   0.420E+00       0.001       32.256   0.100E-07
     TRS4 it   4 1.00000000   0.219E+00       0.001       32.256   0.100E-07
     TRS4 it   5 1.00000000   0.748E-01       0.001       32.256   0.100E-07
     TRS4 it   6 1.00000000   0.110E-01       0.001       32.256   0.100E-07
     TRS4 it   7 1.00000000   0.316E-03       0.001       32.256   0.100E-07
     TRS4 it   8 1.00000000   0.371E-06       0.001       32.256   0.100E-07
     TRS4 it   9 1.00000000   0.605E-12       0.001       32.256   0.100E-07
     Final TRS4 iteration    9 1.00000000   0.605E-12
     Chemical potential (mu):      -0.00515
 
 PAO| energy:  -7.7320394686174163      penalty:   1.3249074266390299E-005
 PAO|CG| trace_G_new    3.7157988923427809E-002
 PAO|CG| trace_G_prev   0.16218873348332552     
 PAO|CG| trace_G_mix   -1.4002151916098580E-003
 PAO|CG| trace_D   0.16218873348332552     
 PAO|CG| trace_D_Gnew   1.4002151916098580E-003
 PAO|CG| beta:   0.23773663735404779     
 PAO| norm of gradient:  0.19276407581141206     
 PAO| energy improvement:  -1.8628900638419488E-002
 PAO| step      9                   -7.732039469  0.120E-01  0.232E+00     0.051
 PAO|LS| adapt:  T F F
 PAO|LS| adapt: scan_steps:    0.0000000000000000        0.0000000000000000        0.0000000000000000     
 PAO|LS| adapt: energies:   -7.7320394686174163        0.0000000000000000        0.0000000000000000     
 PAO| ======================= Iteration:        10 =============================

     Lanczos converged:  T threshold:   0.100E-02
     Est. extremal eigenvalues:    0.281E+01   0.185E+00
     Est. condition number :    0.152E+02
     NS sqrt iter    1 1.00000000   0.715E+00       0.001       64.512
     NS sqrt iter    2 1.00000000   0.335E+00       0.001      110.592
     NS sqrt iter    3 1.00000000   0.763E-01       0.001      110.592
     NS sqrt iter    4 1.00000000   0.184E-02       0.001      110.592
     NS sqrt iter    5 1.00000000   0.495E-07       0.001       71.424
     Final NS sqrt iter    5 1.00000000   0.432E-09

     Est. extremal eigenvalues     -0.93100     1.63029  converged:  T
     TRS4 it   1 1.00000000   0.850E+00       0.000       16.128   0.100E-07
     TRS4 it   2 1.00000000   0.607E+00       0.001       32.256   0.100E-07
     TRS4 it   3 1.00000000   0.418E+00       0.001       32.256   0.100E-07
     TRS4 it   4 1.00000000   0.217E+00       0.001       32.256   0.100E-07
     TRS4 it   5 1.00000000   0.727E-01       0.001       32.256   0.100E-07
     TRS4 it   6 1.00000000   0.103E-01       0.001       32.256   0.100E-07
     TRS4 it   7 1.00000000   0.273E-03       0.001       32.256   0.100E-07
     TRS4 it   8 1.00000000   0.269E-06       0.001       32.256   0.100E-07
     TRS4 it   9 1.00000000   0.316E-12       0.001       32.256   0.100E-07
     Final TRS4 iteration    9 1.00000000   0.316E-12
     Chemical potential (mu):      -0.00192
 
 PAO| energy:  -7.7369943266850845      penalty:   1.3802467979974023E-005
 PAO|LS| adapt:  T T F
 PAO|LS| adapt: scan_steps:    0.0000000000000000       0.23225809201721459        0.0000000000000000     
 PAO|LS| adapt: energies:   -7.7320394686174163       -7.7369943266850845        0.0000000000000000     
 PAO| ======================= Iteration:        11 =============================

     Lanczos converged:  T threshold:   0.100E-02
     Est. extremal eigenvalues:    0.277E+01   0.191E+00
     Est. condition number :    0.145E+02
     NS sqrt iter    1 1.00000000   0.708E+00       0.001       60.568
     NS sqrt iter    2 1.00000000   0.326E+00       0.001      110.592
     NS sqrt iter    3 1.00000000   0.711E-01       0.001      110.592
     NS sqrt iter    4 1.00000000   0.149E-02       0.001      110.592
     NS sqrt iter    5 1.00000000   0.262E-07       0.001       63.360
     Final NS sqrt iter    5 1.00000000   0.227E-08

     Est. extremal eigenvalues     -0.93083     1.62810  converged:  T
     TRS4 it   1 1.00000000   0.849E+00       0.000       16.128   0.100E-07
     TRS4 it   2 1.00000000   0.606E+00       0.001       32.256   0.100E-07
     TRS4 it   3 1.00000000   0.417E+00       0.001       32.256   0.100E-07
     TRS4 it   4 1.00000000   0.214E+00       0.001       32.256   0.100E-07
     TRS4 it   5 1.00000000   0.707E-01       0.001       32.256   0.100E-07
     TRS4 it   6 1.00000000   0.963E-02       0.001       32.256   0.100E-07
     TRS4 it   7 1.00000000   0.235E-03       0.001       32.256   0.100E-07
     TRS4 it   8 1.00000000   0.194E-06       0.001       32.256   0.100E-07
     TRS4 it   9 1.00000000   0.162E-12       0.001       32.256   0.100E-07
     Final TRS4 iteration    9 1.00000000   0.162E-12
     Chemical potential (mu):       0.00145
 
 PAO| energy:  -7.7350280139306715      penalty:   1.5048710821106429E-005
 PAO|LS| adapt:  T T T
 PAO|LS| adapt: scan_steps:    0.0000000000000000       0.23225809201721459       0.46451618403442918     
 PAO|LS| adapt: energies:   -7.7320394686174163       -7.7369943266850845       -7.7350280139306715     
 PAO|LS| adapt: suggested step_size:   0.28240234146625021     
 PAO|LS| adapt: predicted energy  -7.7371556325414019     
 PAO| ======================= Iteration:        12 =============================

     Lanczos converged:  T threshold:   0.100E-02
     Est. extremal eigenvalues:    0.280E+01   0.187E+00
     Est. condition number :    0.150E+02
     NS sqrt iter    1 1.00000000   0.714E+00       0.001       52.473
     NS sqrt iter    2 1.00000000   0.333E+00       0.001      110.592
     NS sqrt iter    3 1.00000000   0.752E-01       0.001      110.592
     NS sqrt iter    4 1.00000000   0.176E-02       0.001      110.592
     NS sqrt iter    5 1.00000000   0.432E-07       0.001       57.621
     Final NS sqrt iter    5 1.00000000   0.370E-09

     Est. extremal eigenvalues     -0.93105     1.62969  converged:  T
     TRS4 it   1 1.00000000   0.850E+00       0.000       16.128   0.100E-07
     TRS4 it   2 1.00000000   0.607E+00       0.001       32.256   0.100E-07
     TRS4 it   3 1.00000000   0.418E+00       0.001       32.256   0.100E-07
     TRS4 it   4 1.00000000   0.216E+00       0.001       32.256   0.100E-07
     TRS4 it   5 1.00000000   0.722E-01       0.001       32.256   0.100E-07
     TRS4 it   6 1.00000000   0.101E-01       0.001       32.256   0.100E-07
     TRS4 it   7 1.00000000   0.264E-03       0.001       32.256   0.100E-07
     TRS4 it   8 1.00000000   0.251E-06       0.001       32.256   0.100E-07
     TRS4 it   9 1.00000000   0.274E-12       0.001       32.256   0.100E-07
     Final TRS4 iteration    9 1.00000000   0.274E-12
     Chemical potential (mu):      -0.00120
 
 PAO| energy:  -7.7371411558460874      penalty:   1.4006136056774194E-005
 PAO|CG| trace_G_new    1.2435394131986821E-002
 PAO|CG| trace_G_prev    3.7157988923427809E-002
 PAO|CG| trace_G_mix   -4.8106545843515001E-004
 PAO|CG| trace_D    4.5658921809697113E-002
 PAO|CG| trace_D_Gnew   2.6149724653350137E-004
 PAO|CG| beta:   0.34760922118361065     
 PAO| norm of gradient:  0.11151409835526099     
 PAO| energy improvement:  -5.1016872286711035E-003
 PAO| step     12                   -7.737141156  0.697E-02  0.282E+00     0.058
 PAO|LS| adapt:  T F F
 PAO|LS| adapt: scan_steps:    0.0000000000000000        0.0000000000000000        0.0000000000000000     
 PAO|LS| adapt: energies:   -7.7371411558460874        0.0000000000000000        0.0000000000000000     
 PAO| ======================= Iteration:        13 =============================

     Lanczos converged:  T threshold:   0.100E-02
     Est. extremal eigenvalues:    0.277E+01   0.191E+00
     Est. condition number :    0.145E+02
     NS sqrt iter    1 1.00000000   0.707E+00       0.001       44.716
     NS sqrt iter    2 1.00000000   0.326E+00       0.001      110.271
     NS sqrt iter    3 1.00000000   0.710E-01       0.001      110.592
     NS sqrt iter    4 1.00000000   0.148E-02       0.001      110.592
     NS sqrt iter    5 1.00000000   0.261E-07       0.001       63.360
     Final NS sqrt iter    5 1.00000000   0.228E-08

     Est. extremal eigenvalues     -0.93162     1.62255  converged:  T
     TRS4 it   1 1.00000000   0.849E+00       0.000       16.128   0.100E-07
     TRS4 it   2 1.00000000   0.604E+00       0.001       32.256   0.100E-07
     TRS4 it   3 1.00000000   0.413E+00       0.001       32.256   0.100E-07
     TRS4 it   4 1.00000000   0.211E+00       0.001       32.256   0.100E-07
     TRS4 it   5 1.00000000   0.684E-01       0.001       32.256   0.100E-07
     TRS4 it   6 1.00000000   0.901E-02       0.001       32.256   0.100E-07
     TRS4 it   7 1.00000000   0.207E-03       0.001       32.256   0.100E-07
     TRS4 it   8 1.00000000   0.150E-06       0.001       32.256   0.100E-07
     TRS4 it   9 1.00000000   0.970E-13       0.001       32.256   0.100E-07
     Final TRS4 iteration    9 1.00000000   0.970E-13
     Chemical potential (mu):       0.00333
 
 PAO| energy:  -7.7393325966629591      penalty:   1.4325671852819136E-005
 PAO|LS| adapt:  T T F
 PAO|LS| adapt: scan_steps:    0.0000000000000000       0.28240234146625021        0.0000000000000000     
 PAO|LS| adapt: energies:   -7.7371411558460874       -7.7393325966629591        0.0000000000000000     
 PAO| ======================= Iteration:        14 =============================

     Lanczos converged:  T threshold:   0.100E-02
     Est. extremal eigenvalues:    0.273E+01   0.196E+00
     Est. condition number :    0.140E+02
     NS sqrt iter    1 1.00000000   0.700E+00       0.001       53.429
     NS sqrt iter    2 1.00000000   0.319E+00       0.001      110.592
     NS sqrt iter    3 1.00000000   0.671E-01       0.001      110.592
     NS sqrt iter    4 1.00000000   0.125E-02       0.001      110.592
     NS sqrt iter    5 1.00000000   0.147E-07       0.001       49.664
     Final NS sqrt iter    5 1.00000000   0.485E-08

     Est. extremal eigenvalues     -0.93166     1.61586  converged:  T
     TRS4 it   1 1.00000000   0.848E+00       0.000       16.128   0.100E-07
     TRS4 it   2 1.00000000   0.601E+00       0.001       32.256   0.100E-07
     TRS4 it   3 1.00000000   0.409E+00       0.001       32.256   0.100E-07
     TRS4 it   4 1.00000000   0.205E+00       0.001       32.256   0.100E-07
     TRS4 it   5 1.00000000   0.647E-01       0.001       32.256   0.100E-07
     TRS4 it   6 1.00000000   0.803E-02       0.001       32.256   0.100E-07
     TRS4 it   7 1.00000000   0.162E-03       0.001       32.256   0.100E-07
     TRS4 it   8 1.00000000   0.893E-07       0.001       32.256   0.100E-07
     TRS4 it   9 1.00000000   0.337E-13       0.001       32.256   0.100E-07
     Final TRS4 iteration    9 1.00000000   0.337E-13
     Chemical potential (mu):       0.00774
 
 PAO| energy:  -7.7389813809357246      penalty:   1.5108533094731716E-005
 PAO|LS| adapt:  T T T
 PAO|LS| adapt: scan_steps:    0.0000000000000000       0.28240234146625021       0.56480468293250041     
 PAO|LS| adapt: energies:   -7.7371411558460874       -7.7393325966629591       -7.7389813809357246     
 PAO|LS| adapt: suggested step_size:   0.38459543461976592     
 PAO|LS| adapt: predicted energy  -7.7394990774834023     
 PAO| ======================= Iteration:        15 =============================

     Lanczos converged:  T threshold:   0.100E-02
     Est. extremal eigenvalues:    0.275E+01   0.193E+00
     Est. condition number :    0.143E+02
     NS sqrt iter    1 1.00000000   0.704E+00       0.001       64.512
     NS sqrt iter    2 1.00000000   0.324E+00       0.001      101.788
     NS sqrt iter    3 1.00000000   0.696E-01       0.001      110.592
     NS sqrt iter    4 1.00000000   0.140E-02       0.001      109.462
     NS sqrt iter    5 1.00000000   0.214E-07       0.001       58.496
     Final NS sqrt iter    5 1.00000000   0.331E-08

     Est. extremal eigenvalues     -0.93169     1.62008  converged:  T
     TRS4 it   1 1.00000000   0.848E+00       0.000       16.128   0.100E-07
     TRS4 it   2 1.00000000   0.603E+00       0.001       32.256   0.100E-07
     TRS4 it   3 1.00000000   0.412E+00       0.001       32.256   0.100E-07
     TRS4 it   4 1.00000000   0.209E+00       0.001       32.256   0.100E-07
     TRS4 it   5 1.00000000   0.670E-01       0.001       32.256   0.100E-07
     TRS4 it   6 1.00000000   0.864E-02       0.001       32.256   0.100E-07
     TRS4 it   7 1.00000000   0.189E-03       0.001       32.256   0.100E-07
     TRS4 it   8 1.00000000   0.124E-06       0.001       32.256   0.100E-07
     TRS4 it   9 1.00000000   0.659E-13       0.001       32.256   0.100E-07
     Final TRS4 iteration    9 1.00000000   0.659E-13
     Chemical potential (mu):       0.00494
 
 PAO| energy:  -7.7394953880008996      penalty:   1.4551576649122575E-005
 PAO|CG| trace_G_new    2.5274999218925010E-003
 PAO|CG| trace_G_prev    1.2435394131986821E-002
 PAO|CG| trace_G_mix    9.9638713257406734E-005
 PAO|CG| trace_D    1.7770663055458484E-002
 PAO|CG| trace_D_Gnew   2.5284791258494744E-005
 PAO|CG| beta:   0.19523797821494471     
 PAO| norm of gradient:   5.0274247104183482E-002
 PAO| energy improvement:  -2.3542321548122302E-003
 PAO| step     15                   -7.739495388  0.314E-02  0.385E+00     0.054
 PAO|LS| adapt:  T F F
 PAO|LS| adapt: scan_steps:    0.0000000000000000        0.0000000000000000        0.0000000000000000     
 PAO|LS| adapt: energies:   -7.7394953880008996        0.0000000000000000        0.0000000000000000     
 PAO| ======================= Iteration:        16 =============================

     Lanczos converged:  T threshold:   0.100E-02
     Est. extremal eigenvalues:    0.275E+01   0.193E+00
     Est. condition number :    0.142E+02
     NS sqrt iter    1 1.00000000   0.702E+00       0.001       54.244
     NS sqrt iter    2 1.00000000   0.323E+00       0.001      110.434
     NS sqrt iter    3 1.00000000   0.690E-01       0.001      110.592
     NS sqrt iter    4 1.00000000   0.135E-02       0.001      110.592
     NS sqrt iter    5 1.00000000   0.193E-07       0.001       57.600
     Final NS sqrt iter    5 1.00000000   0.235E-08

     Est. extremal eigenvalues     -0.93172     1.61917  converged:  T
     TRS4 it   1 1.00000000   0.849E+00       0.000       16.128   0.100E-07
     TRS4 it   2 1.00000000   0.602E+00       0.001       32.256   0.100E-07
     TRS4 it   3 1.00000000   0.410E+00       0.001       32.256   0.100E-07
     TRS4 it   4 1.00000000   0.207E+00       0.001       32.256   0.100E-07
     TRS4 it   5 1.00000000   0.658E-01       0.001       32.256   0.100E-07
     TRS4 it   6 1.00000000   0.835E-02       0.001       32.256   0.100E-07
     TRS4 it   7 1.00000000   0.177E-03       0.001       32.256   0.100E-07
     TRS4 it   8 1.00000000   0.111E-06       0.001       32.256   0.100E-07
     TRS4 it   9 1.00000000   0.538E-13       0.001       32.256   0.100E-07
     Final TRS4 iteration    9 1.00000000   0.538E-13
     Chemical potential (mu):       0.00569
 
 PAO| energy:  -7.7395896526838666      penalty:   1.4342592632494467E-005
 PAO|LS| adapt:  T T F
 PAO|LS| adapt: scan_steps:    0.0000000000000000       0.38459543461976592        0.0000000000000000     
 PAO|LS| adapt: energies:   -7.7394953880008996       -7.7395896526838666        0.0000000000000000     
 PAO| ======================= Iteration:        17 =============================

     Lanczos converged:  T threshold:   0.100E-02
     Est. extremal eigenvalues:    0.274E+01   0.194E+00
     Est. condition number :    0.141E+02
     NS sqrt iter    1 1.00000000   0.701E+00       0.001       63.865
     NS sqrt iter    2 1.00000000   0.321E+00       0.001      110.592
     NS sqrt iter    3 1.00000000   0.684E-01       0.001      110.592
     NS sqrt iter    4 1.00000000   0.132E-02       0.001      110.592
     NS sqrt iter    5 1.00000000   0.171E-07       0.001       53.504
     Final NS sqrt iter    5 1.00000000   0.573E-08

     Est. extremal eigenvalues     -0.93163     1.61832  converged:  T
     TRS4 it   1 1.00000000   0.849E+00       0.000       16.128   0.100E-07
     TRS4 it   2 1.00000000   0.601E+00       0.001       32.256   0.100E-07
     TRS4 it   3 1.00000000   0.409E+00       0.001       32.256   0.100E-07
     TRS4 it   4 1.00000000   0.205E+00       0.001       32.256   0.100E-07
     TRS4 it   5 1.00000000   0.646E-01       0.001       32.256   0.100E-07
     TRS4 it   6 1.00000000   0.806E-02       0.001       32.256   0.100E-07
     TRS4 it   7 1.00000000   0.166E-03       0.001       32.256   0.100E-07
     TRS4 it   8 1.00000000   0.986E-07       0.001       32.256   0.100E-07
     TRS4 it   9 1.00000000   0.429E-13       0.001       32.256   0.100E-07
     Final TRS4 iteration    9 1.00000000   0.429E-13
     Chemical potential (mu):       0.00641
 
 PAO| energy:  -7.7379233195377592      penalty:   1.4253796840002807E-005
 PAO|LS| adapt:  T T T
 PAO|LS| adapt: scan_steps:    0.0000000000000000       0.38459543461976592       0.76919086923953184     
 PAO|LS| adapt: energies:   -7.7394953880008996       -7.7395896526838666       -7.7379233195377592     
 PAO|LS| adapt: suggested step_size:   0.21288945388723557     
 PAO|LS| adapt: predicted energy  -7.7397651185974894     
 PAO| ======================= Iteration:        18 =============================

     Lanczos converged:  T threshold:   0.100E-02
     Est. extremal eigenvalues:    0.275E+01   0.193E+00
     Est. condition number :    0.142E+02
     NS sqrt iter    1 1.00000000   0.703E+00       0.001       61.743
     NS sqrt iter    2 1.00000000   0.323E+00       0.001      100.656
     NS sqrt iter    3 1.00000000   0.692E-01       0.001      110.592
     NS sqrt iter    4 1.00000000   0.137E-02       0.001       93.561
     NS sqrt iter    5 1.00000000   0.202E-07       0.001       58.240
     Final NS sqrt iter    5 1.00000000   0.320E-08

     Est. extremal eigenvalues     -0.93172     1.61957  converged:  T
     TRS4 it   1 1.00000000   0.849E+00       0.000       16.128   0.100E-07
     TRS4 it   2 1.00000000   0.602E+00       0.001       32.256   0.100E-07
     TRS4 it   3 1.00000000   0.411E+00       0.001       32.256   0.100E-07
     TRS4 it   4 1.00000000   0.208E+00       0.001       32.256   0.100E-07
     TRS4 it   5 1.00000000   0.663E-01       0.001       32.256   0.100E-07
     TRS4 it   6 1.00000000   0.848E-02       0.001       32.256   0.100E-07
     TRS4 it   7 1.00000000   0.182E-03       0.001       32.256   0.100E-07
     TRS4 it   8 1.00000000   0.116E-06       0.001       32.256   0.100E-07
     TRS4 it   9 1.00000000   0.588E-13       0.001       32.256   0.100E-07
     Final TRS4 iteration    9 1.00000000   0.588E-13
     Chemical potential (mu):       0.00536
 
 PAO| energy:  -7.7397643610841085      penalty:   1.4421327671758094E-005
 PAO|CG| trace_G_new    7.5613358898880118E-004
 PAO|CG| trace_G_prev    2.5274999218925010E-003
 PAO|CG| trace_G_mix    1.5055330938992139E-006
 PAO|CG| trace_D    3.1950066099058956E-003
 PAO|CG| trace_D_Gnew  -2.3597138541283595E-006
 PAO|CG| beta:   0.29856699474390636     
 PAO| norm of gradient:   2.7497883354702071E-002
 PAO| energy improvement:  -2.6897308320883440E-004
 PAO| step     18                   -7.739764361  0.172E-02  0.213E+00     0.053
 PAO|LS| adapt:  T F F
 PAO|LS| adapt: scan_steps:    0.0000000000000000        0.0000000000000000        0.0000000000000000     
 PAO|LS| adapt: energies:   -7.7397643610841085        0.0000000000000000        0.0000000000000000     
 PAO| ======================= Iteration:        19 =============================

     Lanczos converged:  T threshold:   0.100E-02
     Est. extremal eigenvalues:    0.275E+01   0.193E+00
     Est. condition number :    0.142E+02
     NS sqrt iter    1 1.00000000   0.703E+00       0.001       64.512
     NS sqrt iter    2 1.00000000   0.323E+00       0.001      110.592
     NS sqrt iter    3 1.00000000   0.694E-01       0.001      110.592
     NS sqrt iter    4 1.00000000   0.138E-02       0.001      110.592
     NS sqrt iter    5 1.00000000   0.204E-07       0.001       58.496
     Final NS sqrt iter    5 1.00000000   0.330E-08

     Est. extremal eigenvalues     -0.93172     1.61971  converged:  T
     TRS4 it   1 1.00000000   0.849E+00       0.000       16.128   0.100E-07
     TRS4 it   2 1.00000000   0.602E+00       0.001       32.256   0.100E-07
     TRS4 it   3 1.00000000   0.411E+00       0.001       32.256   0.100E-07
     TRS4 it   4 1.00000000   0.207E+00       0.001       32.256   0.100E-07
     TRS4 it   5 1.00000000   0.662E-01       0.001       32.256   0.100E-07
     TRS4 it   6 1.00000000   0.846E-02       0.001       32.256   0.100E-07
     TRS4 it   7 1.00000000   0.183E-03       0.001       32.256   0.100E-07
     TRS4 it   8 1.00000000   0.118E-06       0.001       32.256   0.100E-07
     TRS4 it   9 1.00000000   0.605E-13       0.001       32.256   0.100E-07
     Final TRS4 iteration    9 1.00000000   0.605E-13
     Chemical potential (mu):       0.00514
 
 PAO| energy:  -7.7398873207011363      penalty:   1.4143437217242852E-005
 PAO|LS| adapt:  T T F
 PAO|LS| adapt: scan_steps:    0.0000000000000000       0.21288945388723557        0.0000000000000000     
 PAO|LS| adapt: energies:   -7.7397643610841085       -7.7398873207011363        0.0000000000000000     
 PAO| ======================= Iteration:        20 =============================

     Lanczos converged:  T threshold:   0.100E-02
     Est. extremal eigenvalues:    0.275E+01   0.193E+00
     Est. condition number :    0.142E+02
     NS sqrt iter    1 1.00000000   0.703E+00       0.001       64.512
     NS sqrt iter    2 1.00000000   0.323E+00       0.001      110.592
     NS sqrt iter    3 1.00000000   0.696E-01       0.001      110.592
     NS sqrt iter    4 1.00000000   0.139E-02       0.001      110.592
     NS sqrt iter    5 1.00000000   0.205E-07       0.001       53.712
     Final NS sqrt iter    5 1.00000000   0.399E-08

     Est. extremal eigenvalues     -0.93172     1.61985  converged:  T
     TRS4 it   1 1.00000000   0.849E+00       0.000       16.128   0.100E-07
     TRS4 it   2 1.00000000   0.602E+00       0.001       32.256   0.100E-07
     TRS4 it   3 1.00000000   0.410E+00       0.001       32.256   0.100E-07
     TRS4 it   4 1.00000000   0.207E+00       0.001       32.256   0.100E-07
     TRS4 it   5 1.00000000   0.661E-01       0.001       32.256   0.100E-07
     TRS4 it   6 1.00000000   0.844E-02       0.001       32.256   0.100E-07
     TRS4 it   7 1.00000000   0.183E-03       0.001       32.256   0.100E-07
     TRS4 it   8 1.00000000   0.119E-06       0.001       32.256   0.100E-07
     TRS4 it   9 1.00000000   0.612E-13       0.001       32.256   0.100E-07
     Final TRS4 iteration    9 1.00000000   0.612E-13
     Chemical potential (mu):       0.00491
 
 PAO| energy:  -7.7399334267780278      penalty:   1.3877708409619099E-005
 PAO|LS| adapt:  T T F
 PAO|LS| adapt: scan_steps:    0.0000000000000000       0.42577890777447114        0.0000000000000000     
 PAO|LS| adapt: energies:   -7.7397643610841085       -7.7399334267780278        0.0000000000000000     
 PAO| ======================= Iteration:        21 =============================

     Lanczos converged:  T threshold:   0.100E-02
     Est. extremal eigenvalues:    0.275E+01   0.193E+00
     Est. condition number :    0.143E+02
     NS sqrt iter    1 1.00000000   0.703E+00       0.001       55.176
     NS sqrt iter    2 1.00000000   0.324E+00       0.001      110.592
     NS sqrt iter    3 1.00000000   0.700E-01       0.001      110.592
     NS sqrt iter    4 1.00000000   0.140E-02       0.001      108.216
     NS sqrt iter    5 1.00000000   0.211E-07       0.001       42.175
     Final NS sqrt iter    5 1.00000000   0.392E-08

     Est. extremal eigenvalues     -0.93172     1.62013  converged:  T
     TRS4 it   1 1.00000000   0.849E+00       0.000       16.128   0.100E-07
     TRS4 it   2 1.00000000   0.602E+00       0.001       32.256   0.100E-07
     TRS4 it   3 1.00000000   0.410E+00       0.001       32.256   0.100E-07
     TRS4 it   4 1.00000000   0.207E+00       0.001       32.256   0.100E-07
     TRS4 it   5 1.00000000   0.658E-01       0.001       32.256   0.100E-07
     TRS4 it   6 1.00000000   0.841E-02       0.001       32.256   0.100E-07
     TRS4 it   7 1.00000000   0.183E-03       0.001       32.256   0.100E-07
     TRS4 it   8 1.00000000   0.121E-06       0.001       32.256   0.100E-07
     TRS4 it   9 1.00000000   0.643E-13       0.001       32.256   0.100E-07
     Final TRS4 iteration    9 1.00000000   0.643E-13
     Chemical potential (mu):       0.00446
 
 PAO| energy:  -7.7397919313516859      penalty:   1.3382294630248619E-005
 PAO|LS| Need extra step
 PAO|LS| adapt:  T T T
 PAO|LS| adapt: scan_steps:    0.0000000000000000       0.42577890777447114       0.85155781554894228     
 PAO|LS| adapt: energies:   -7.7397643610841085       -7.7399334267780278       -7.7397919313516859     
 PAO|LS| adapt: suggested step_size:   0.44467830897168981     
 PAO|LS| adapt: predicted energy  -7.7399337327241060     
 PAO| ======================= Iteration:        22 =============================

     Lanczos converged:  T threshold:   0.100E-02
     Est. extremal eigenvalues:    0.275E+01   0.193E+00
     Est. condition number :    0.142E+02
     NS sqrt iter    1 1.00000000   0.703E+00       0.001       64.512
     NS sqrt iter    2 1.00000000   0.323E+00       0.001      110.592
     NS sqrt iter    3 1.00000000   0.696E-01       0.001      110.592
     NS sqrt iter    4 1.00000000   0.139E-02       0.001      110.592
     NS sqrt iter    5 1.00000000   0.205E-07       0.001       58.368
     Final NS sqrt iter    5 1.00000000   0.401E-08

     Est. extremal eigenvalues     -0.93172     1.61986  converged:  T
     TRS4 it   1 1.00000000   0.849E+00       0.000       16.128   0.100E-07
     TRS4 it   2 1.00000000   0.602E+00       0.001       32.256   0.100E-07
     TRS4 it   3 1.00000000   0.410E+00       0.001       32.256   0.100E-07
     TRS4 it   4 1.00000000   0.207E+00       0.001       32.256   0.100E-07
     TRS4 it   5 1.00000000   0.661E-01       0.001       32.256   0.100E-07
     TRS4 it   6 1.00000000   0.844E-02       0.001       32.256   0.100E-07
     TRS4 it   7 1.00000000   0.183E-03       0.001       32.256   0.100E-07
     TRS4 it   8 1.00000000   0.119E-06       0.001       32.256   0.100E-07
     TRS4 it   9 1.00000000   0.609E-13       0.001       32.256   0.100E-07
     Final TRS4 iteration    9 1.00000000   0.609E-13
     Chemical potential (mu):       0.00489
 
 PAO| energy:  -7.7399337792578047      penalty:   1.3854700834030576E-005
 PAO|CG| trace_G_new    2.1692589701802534E-004
 PAO|CG| trace_G_prev    7.5613358898880118E-004
 PAO|CG| trace_G_mix    4.8729941619320997E-006
 PAO|CG| trace_D    1.0423527334280055E-003
 PAO|CG| trace_D_Gnew  -2.4518976215927578E-006
 PAO|CG| beta:   0.28044370193853918     
 PAO| norm of gradient:   1.4728404428790830E-002
 PAO| energy improvement:  -1.6941817369620082E-004
 PAO| step     22                   -7.739933779  0.921E-03  0.445E+00     0.067
 PAO|LS| adapt:  T F F
 PAO|LS| adapt: scan_steps:    0.0000000000000000        0.0000000000000000        0.0000000000000000     
 PAO|LS| adapt: energies:   -7.7399337792578047        0.0000000000000000        0.0000000000000000     
 PAO| ======================= Iteration:        23 =============================

     Lanczos converged:  T threshold:   0.100E-02
     Est. extremal eigenvalues:    0.275E+01   0.193E+00
     Est. condition number :    0.142E+02
     NS sqrt iter    1 1.00000000   0.703E+00       0.001       64.512
     NS sqrt iter    2 1.00000000   0.323E+00       0.001      110.592
     NS sqrt iter    3 1.00000000   0.696E-01       0.001      110.592
     NS sqrt iter    4 1.00000000   0.139E-02       0.001      110.592
     NS sqrt iter    5 1.00000000   0.205E-07       0.001       58.368
     Final NS sqrt iter    5 1.00000000   0.402E-08

     Est. extremal eigenvalues     -0.93172     1.61970  converged:  T
     TRS4 it   1 1.00000000   0.849E+00       0.000       16.128   0.100E-07
     TRS4 it   2 1.00000000   0.602E+00       0.001       32.256   0.100E-07
     TRS4 it   3 1.00000000   0.410E+00       0.001       32.256   0.100E-07
     TRS4 it   4 1.00000000   0.207E+00       0.001       32.256   0.100E-07
     TRS4 it   5 1.00000000   0.662E-01       0.001       32.256   0.100E-07
     TRS4 it   6 1.00000000   0.847E-02       0.001       32.256   0.100E-07
     TRS4 it   7 1.00000000   0.184E-03       0.001       32.256   0.100E-07
     TRS4 it   8 1.00000000   0.121E-06       0.001       32.256   0.100E-07
     TRS4 it   9 1.00000000   0.633E-13       0.001       32.256   0.100E-07
     Final TRS4 iteration    9 1.00000000   0.633E-13
     Chemical potential (mu):       0.00474
 
 PAO| energy:  -7.7399813910032425      penalty:   1.3213771730350375E-005
 PAO|LS| adapt:  T T F
 PAO|LS| adapt: scan_steps:    0.0000000000000000       0.44467830897168981        0.0000000000000000     
 PAO|LS| adapt: energies:   -7.7399337792578047       -7.7399813910032425        0.0000000000000000     
 PAO| ======================= Iteration:        24 =============================

     Lanczos converged:  T threshold:   0.100E-02
     Est. extremal eigenvalues:    0.275E+01   0.193E+00
     Est. condition number :    0.142E+02
     NS sqrt iter    1 1.00000000   0.703E+00       0.001       64.512
     NS sqrt iter    2 1.00000000   0.323E+00       0.001      109.838
     NS sqrt iter    3 1.00000000   0.696E-01       0.001      110.592
     NS sqrt iter    4 1.00000000   0.139E-02       0.001      110.592
     NS sqrt iter    5 1.00000000   0.205E-07       0.001       58.368
     Final NS sqrt iter    5 1.00000000   0.402E-08

     Est. extremal eigenvalues     -0.93172     1.61954  converged:  T
     TRS4 it   1 1.00000000   0.848E+00       0.000       16.128   0.100E-07
     TRS4 it   2 1.00000000   0.602E+00       0.001       32.256   0.100E-07
     TRS4 it   3 1.00000000   0.411E+00       0.001       32.256   0.100E-07
     TRS4 it   4 1.00000000   0.207E+00       0.001       32.256   0.100E-07
     TRS4 it   5 1.00000000   0.663E-01       0.001       32.256   0.100E-07
     TRS4 it   6 1.00000000   0.850E-02       0.001       32.256   0.100E-07
     TRS4 it   7 1.00000000   0.185E-03       0.001       32.256   0.100E-07
     TRS4 it   8 1.00000000   0.122E-06       0.001       32.256   0.100E-07
     TRS4 it   9 1.00000000   0.657E-13       0.001       32.256   0.100E-07
     Final TRS4 iteration    9 1.00000000   0.657E-13
     Chemical potential (mu):       0.00458
 
 PAO| energy:  -7.7399300004672176      penalty:   1.2598606845759909E-005
 PAO|LS| adapt:  T T T
 PAO|LS| adapt: scan_steps:    0.0000000000000000       0.44467830897168981       0.88935661794337961     
 PAO|LS| adapt: energies:   -7.7399337792578047       -7.7399813910032425       -7.7399300004672176     
 PAO|LS| adapt: suggested step_size:   0.43619190753019238     
 PAO|LS| adapt: predicted energy  -7.7399814090321932     
 PAO| ======================= Iteration:        25 =============================

     Lanczos converged:  T threshold:   0.100E-02
     Est. extremal eigenvalues:    0.275E+01   0.193E+00
     Est. condition number :    0.142E+02
     NS sqrt iter    1 1.00000000   0.703E+00       0.001       61.963
     NS sqrt iter    2 1.00000000   0.323E+00       0.001      110.592
     NS sqrt iter    3 1.00000000   0.696E-01       0.001      109.979
     NS sqrt iter    4 1.00000000   0.139E-02       0.001      110.592
     NS sqrt iter    5 1.00000000   0.205E-07       0.001       58.368
     Final NS sqrt iter    5 1.00000000   0.401E-08

     Est. extremal eigenvalues     -0.93172     1.61970  converged:  T
     TRS4 it   1 1.00000000   0.849E+00       0.001       16.128   0.100E-07
     TRS4 it   2 1.00000000   0.602E+00       0.001       26.631   0.100E-07
     TRS4 it   3 1.00000000   0.410E+00       0.001       26.064   0.100E-07
     TRS4 it   4 1.00000000   0.207E+00       0.001       27.529   0.100E-07
     TRS4 it   5 1.00000000   0.662E-01       0.001       32.256   0.100E-07
     TRS4 it   6 1.00000000   0.847E-02       0.001       32.256   0.100E-07
     TRS4 it   7 1.00000000   0.184E-03       0.001       28.749   0.100E-07
     TRS4 it   8 1.00000000   0.121E-06       0.001       23.055   0.100E-07
     TRS4 it   9 1.00000000   0.631E-13       0.001       24.528   0.100E-07
     Final TRS4 iteration    9 1.00000000   0.631E-13
     Chemical potential (mu):       0.00474
 
 PAO| energy:  -7.7399814057465264      penalty:   1.3225760708312229E-005
 PAO|CG| trace_G_new    5.7197976283546046E-005
 PAO|CG| trace_G_prev    2.1692589701802534E-004
 PAO|CG| trace_G_mix    5.2850538368879347E-007
 PAO|CG| trace_D    3.0028079161972094E-004
 PAO|CG| trace_D_Gnew  -3.8723387835588570E-007
 PAO|CG| beta:   0.26123884551759319     
 PAO| norm of gradient:   7.5629343699086830E-003
 PAO| energy improvement:  -4.7626488721697058E-005
 PAO| step     25                   -7.739981406  0.473E-03  0.436E+00     0.056
 PAO|LS| adapt:  T F F
 PAO|LS| adapt: scan_steps:    0.0000000000000000        0.0000000000000000        0.0000000000000000     
 PAO|LS| adapt: energies:   -7.7399814057465264        0.0000000000000000        0.0000000000000000     
 PAO| ======================= Iteration:        26 =============================

     Lanczos converged:  T threshold:   0.100E-02
     Est. extremal eigenvalues:    0.275E+01   0.193E+00
     Est. condition number :    0.142E+02
     NS sqrt iter    1 1.00000000   0.702E+00       0.001       64.512
     NS sqrt iter    2 1.00000000   0.323E+00       0.001      104.936
     NS sqrt iter    3 1.00000000   0.695E-01       0.001      104.992
     NS sqrt iter    4 1.00000000   0.138E-02       0.001       98.812
     NS sqrt iter    5 1.00000000   0.203E-07       0.001       57.281
     Final NS sqrt iter    5 1.00000000   0.333E-08

     Est. extremal eigenvalues     -0.93173     1.61917  converged:  T
     TRS4 it   1 1.00000000   0.848E+00       0.000       16.128   0.100E-07
     TRS4 it   2 1.00000000   0.602E+00       0.001       32.256   0.100E-07
     TRS4 it   3 1.00000000   0.410E+00       0.001       32.256   0.100E-07
     TRS4 it   4 1.00000000   0.207E+00       0.001       32.256   0.100E-07
     TRS4 it   5 1.00000000   0.660E-01       0.001       32.256   0.100E-07
     TRS4 it   6 1.00000000   0.843E-02       0.001       32.256   0.100E-07
     TRS4 it   7 1.00000000   0.182E-03       0.001       32.256   0.100E-07
     TRS4 it   8 1.00000000   0.118E-06       0.001       32.256   0.100E-07
     TRS4 it   9 1.00000000   0.612E-13       0.001       32.256   0.100E-07
     Final TRS4 iteration    9 1.00000000   0.612E-13
     Chemical potential (mu):       0.00493
 
 PAO| energy:  -7.7399875367754136      penalty:   1.2603303354705753E-005
 PAO|LS| adapt:  T T F
 PAO|LS| adapt: scan_steps:    0.0000000000000000       0.43619190753019238        0.0000000000000000     
 PAO|LS| adapt: energies:   -7.7399814057465264       -7.7399875367754136        0.0000000000000000     
 PAO| ======================= Iteration:        27 =============================

     Lanczos converged:  T threshold:   0.100E-02
     Est. extremal eigenvalues:    0.275E+01   0.193E+00
     Est. condition number :    0.142E+02
     NS sqrt iter    1 1.00000000   0.702E+00       0.001       64.512
     NS sqrt iter    2 1.00000000   0.323E+00       0.001      110.592
     NS sqrt iter    3 1.00000000   0.694E-01       0.001      103.457
     NS sqrt iter    4 1.00000000   0.138E-02       0.001       84.527
     NS sqrt iter    5 1.00000000   0.202E-07       0.001       55.482
     Final NS sqrt iter    5 1.00000000   0.324E-08

     Est. extremal eigenvalues     -0.93173     1.61864  converged:  T
     TRS4 it   1 1.00000000   0.848E+00       0.000       16.128   0.100E-07
     TRS4 it   2 1.00000000   0.602E+00       0.001       32.256   0.100E-07
     TRS4 it   3 1.00000000   0.410E+00       0.001       32.256   0.100E-07
     TRS4 it   4 1.00000000   0.207E+00       0.001       32.256   0.100E-07
     TRS4 it   5 1.00000000   0.659E-01       0.001       32.256   0.100E-07
     TRS4 it   6 1.00000000   0.839E-02       0.001       32.256   0.100E-07
     TRS4 it   7 1.00000000   0.180E-03       0.001       32.256   0.100E-07
     TRS4 it   8 1.00000000   0.115E-06       0.001       32.256   0.100E-07
     TRS4 it   9 1.00000000   0.576E-13       0.001       32.256   0.100E-07
     Final TRS4 iteration    9 1.00000000   0.576E-13
     Chemical potential (mu):       0.00512
 
 PAO| energy:  -7.7399559007345138      penalty:   1.1998509913360477E-005
 PAO|LS| adapt:  T T T
 PAO|LS| adapt: scan_steps:    0.0000000000000000       0.43619190753019238       0.87238381506038476     
 PAO|LS| adapt: energies:   -7.7399814057465264       -7.7399875367754136       -7.7399559007345138     
 PAO|LS| adapt: suggested step_size:   0.28890645615586003     
 PAO|LS| adapt: predicted energy  -7.7399896897940401     
 PAO| ======================= Iteration:        28 =============================

     Lanczos converged:  T threshold:   0.100E-02
     Est. extremal eigenvalues:    0.275E+01   0.193E+00
     Est. condition number :    0.142E+02
     NS sqrt iter    1 1.00000000   0.703E+00       0.001       64.512
     NS sqrt iter    2 1.00000000   0.323E+00       0.001      110.592
     NS sqrt iter    3 1.00000000   0.696E-01       0.001      110.592
     NS sqrt iter    4 1.00000000   0.138E-02       0.001       96.333
     NS sqrt iter    5 1.00000000   0.204E-07       0.001       44.025
     Final NS sqrt iter    5 1.00000000   0.394E-08

     Est. extremal eigenvalues     -0.93173     1.61935  converged:  T
     TRS4 it   1 1.00000000   0.848E+00       0.000       16.128   0.100E-07
     TRS4 it   2 1.00000000   0.602E+00       0.001       32.256   0.100E-07
     TRS4 it   3 1.00000000   0.410E+00       0.001       32.256   0.100E-07
     TRS4 it   4 1.00000000   0.207E+00       0.001       32.256   0.100E-07
     TRS4 it   5 1.00000000   0.661E-01       0.001       32.256   0.100E-07
     TRS4 it   6 1.00000000   0.844E-02       0.001       32.256   0.100E-07
     TRS4 it   7 1.00000000   0.183E-03       0.001       32.256   0.100E-07
     TRS4 it   8 1.00000000   0.119E-06       0.001       32.256   0.100E-07
     TRS4 it   9 1.00000000   0.606E-13       0.001       32.256   0.100E-07
     Final TRS4 iteration    9 1.00000000   0.606E-13
     Chemical potential (mu):       0.00487
 
 PAO| energy:  -7.7399896865636206      penalty:   1.2811499008846304E-005
 PAO|CG| trace_G_new    3.9729035139898876E-005
 PAO|CG| trace_G_prev    5.7197976283546046E-005
 PAO|CG| trace_G_mix    1.2044977024181992E-008
 PAO|CG| trace_D    7.7893180498712759E-005
 PAO|CG| trace_D_Gnew  -1.6439662240604419E-008
 PAO|CG| beta:   0.69437754171557908     
 PAO| norm of gradient:   6.3030972656225826E-003
 PAO| energy improvement:  -8.2808170942527681E-006
 PAO| step     28                   -7.739989687  0.394E-03  0.289E+00     0.054
 PAO|LS| adapt:  T F F
 PAO|LS| adapt: scan_steps:    0.0000000000000000        0.0000000000000000        0.0000000000000000     
 PAO|LS| adapt: energies:   -7.7399896865636206        0.0000000000000000        0.0000000000000000     
 PAO| ======================= Iteration:        29 =============================

     Lanczos converged:  T threshold:   0.100E-02
     Est. extremal eigenvalues:    0.275E+01   0.193E+00
     Est. condition number :    0.142E+02
     NS sqrt iter    1 1.00000000   0.702E+00       0.001       56.134
     NS sqrt iter    2 1.00000000   0.323E+00       0.002       73.660
     NS sqrt iter    3 1.00000000   0.695E-01       0.001       94.579
     NS sqrt iter    4 1.00000000   0.138E-02       0.001      106.083
     NS sqrt iter    5 1.00000000   0.204E-07       0.001       58.368
     Final NS sqrt iter    5 1.00000000   0.329E-08

     Est. extremal eigenvalues     -0.93173     1.61921  converged:  T
     TRS4 it   1 1.00000000   0.849E+00       0.000       16.128   0.100E-07
     TRS4 it   2 1.00000000   0.602E+00       0.001       32.256   0.100E-07
     TRS4 it   3 1.00000000   0.410E+00       0.001       32.256   0.100E-07
     TRS4 it   4 1.00000000   0.207E+00       0.001       32.256   0.100E-07
     TRS4 it   5 1.00000000   0.659E-01       0.001       32.256   0.100E-07
     TRS4 it   6 1.00000000   0.841E-02       0.001       32.256   0.100E-07
     TRS4 it   7 1.00000000   0.181E-03       0.001       32.256   0.100E-07
     TRS4 it   8 1.00000000   0.117E-06       0.001       32.256   0.100E-07
     TRS4 it   9 1.00000000   0.586E-13       0.001       32.256   0.100E-07
     Final TRS4 iteration    9 1.00000000   0.586E-13
     Chemical potential (mu):       0.00505
 
 PAO| energy:  -7.7399995472116556      penalty:   1.2232387693756382E-005
 PAO|LS| adapt:  T T F
 PAO|LS| adapt: scan_steps:    0.0000000000000000       0.28890645615586003        0.0000000000000000     
 PAO|LS| adapt: energies:   -7.7399896865636206       -7.7399995472116556        0.0000000000000000     
 PAO| ======================= Iteration:        30 =============================

     Lanczos converged:  T threshold:   0.100E-02
     Est. extremal eigenvalues:    0.275E+01   0.193E+00
     Est. condition number :    0.142E+02
     NS sqrt iter    1 1.00000000   0.702E+00       0.002       35.439
     NS sqrt iter    2 1.00000000   0.323E+00       0.001      106.059
     NS sqrt iter    3 1.00000000   0.694E-01       0.001      110.592
     NS sqrt iter    4 1.00000000   0.138E-02       0.001      110.592
     NS sqrt iter    5 1.00000000   0.204E-07       0.001       58.368
     Final NS sqrt iter    5 1.00000000   0.322E-08

     Est. extremal eigenvalues     -0.93173     1.61906  converged:  T
     TRS4 it   1 1.00000000   0.849E+00       0.000       16.128   0.100E-07
     TRS4 it   2 1.00000000   0.602E+00       0.001       32.256   0.100E-07
     TRS4 it   3 1.00000000   0.410E+00       0.001       32.256   0.100E-07
     TRS4 it   4 1.00000000   0.207E+00       0.001       32.256   0.100E-07
     TRS4 it   5 1.00000000   0.658E-01       0.001       32.256   0.100E-07
     TRS4 it   6 1.00000000   0.838E-02       0.001       32.256   0.100E-07
     TRS4 it   7 1.00000000   0.180E-03       0.001       32.256   0.100E-07
     TRS4 it   8 1.00000000   0.114E-06       0.001       32.256   0.100E-07
     TRS4 it   9 1.00000000   0.572E-13       0.001       32.256   0.100E-07
     Final TRS4 iteration    9 1.00000000   0.572E-13
     Chemical potential (mu):       0.00523
 
 PAO| energy:  -7.7400061690275352      penalty:   1.1668191025331396E-005
 PAO|LS| adapt:  T T F
 PAO|LS| adapt: scan_steps:    0.0000000000000000       0.57781291231172005        0.0000000000000000     
 PAO|LS| adapt: energies:   -7.7399896865636206       -7.7400061690275352        0.0000000000000000     
 PAO| ======================= Iteration:        31 =============================

     Lanczos converged:  T threshold:   0.100E-02
     Est. extremal eigenvalues:    0.275E+01   0.193E+00
     Est. condition number :    0.142E+02
     NS sqrt iter    1 1.00000000   0.701E+00       0.001       49.390
     NS sqrt iter    2 1.00000000   0.323E+00       0.001      110.592
     NS sqrt iter    3 1.00000000   0.692E-01       0.001      110.592
     NS sqrt iter    4 1.00000000   0.137E-02       0.001      110.592
     NS sqrt iter    5 1.00000000   0.202E-07       0.001       56.576
     Final NS sqrt iter    5 1.00000000   0.504E-08

     Est. extremal eigenvalues     -0.93174     1.61877  converged:  T
     TRS4 it   1 1.00000000   0.849E+00       0.000       16.128   0.100E-07
     TRS4 it   2 1.00000000   0.601E+00       0.001       32.256   0.100E-07
     TRS4 it   3 1.00000000   0.410E+00       0.001       32.256   0.100E-07
     TRS4 it   4 1.00000000   0.206E+00       0.001       32.256   0.100E-07
     TRS4 it   5 1.00000000   0.656E-01       0.001       32.256   0.100E-07
     TRS4 it   6 1.00000000   0.831E-02       0.001       32.256   0.100E-07
     TRS4 it   7 1.00000000   0.177E-03       0.001       32.256   0.100E-07
     TRS4 it   8 1.00000000   0.110E-06       0.001       32.256   0.100E-07
     TRS4 it   9 1.00000000   0.530E-13       0.001       32.256   0.100E-07
     Final TRS4 iteration    9 1.00000000   0.530E-13
     Chemical potential (mu):       0.00559
 
 PAO| energy:  -7.7400097142620501      penalty:   1.0584115004884921E-005
 PAO|LS| Need extra step
 PAO|LS| adapt:  T T F
 PAO|LS| adapt: scan_steps:    0.0000000000000000        1.1556258246234401        0.0000000000000000     
 PAO|LS| adapt: energies:   -7.7399896865636206       -7.7400097142620501        0.0000000000000000     
 PAO| ======================= Iteration:        32 =============================

     Lanczos converged:  T threshold:   0.100E-02
     Est. extremal eigenvalues:    0.274E+01   0.193E+00
     Est. condition number :    0.142E+02
     NS sqrt iter    1 1.00000000   0.700E+00       0.001       55.021
     NS sqrt iter    2 1.00000000   0.322E+00       0.001      108.032
     NS sqrt iter    3 1.00000000   0.689E-01       0.001      107.489
     NS sqrt iter    4 1.00000000   0.136E-02       0.001      110.592
     NS sqrt iter    5 1.00000000   0.202E-07       0.001       56.576
     Final NS sqrt iter    5 1.00000000   0.361E-08

     Est. extremal eigenvalues     -0.93175     1.61815  converged:  T
     TRS4 it   1 1.00000000   0.849E+00       0.000       16.128   0.100E-07
     TRS4 it   2 1.00000000   0.601E+00       0.001       32.256   0.100E-07
     TRS4 it   3 1.00000000   0.409E+00       0.001       32.256   0.100E-07
     TRS4 it   4 1.00000000   0.206E+00       0.001       32.256   0.100E-07
     TRS4 it   5 1.00000000   0.651E-01       0.001       32.256   0.100E-07
     TRS4 it   6 1.00000000   0.819E-02       0.001       32.256   0.100E-07
     TRS4 it   7 1.00000000   0.171E-03       0.001       32.256   0.100E-07
     TRS4 it   8 1.00000000   0.102E-06       0.001       32.256   0.100E-07
     TRS4 it   9 1.00000000   0.449E-13       0.001       32.256   0.100E-07
     Final TRS4 iteration    9 1.00000000   0.449E-13
     Chemical potential (mu):       0.00631
 
 PAO| energy:  -7.7399780068762656      penalty:   8.5902882464566554E-006
 PAO|LS| Need extra step
 PAO|LS| adapt:  T T T
 PAO|LS| adapt: scan_steps:    0.0000000000000000        1.1556258246234401        2.3112516492468802     
 PAO|LS| adapt: energies:   -7.7399896865636206       -7.7400097142620501       -7.7399780068762656     
 PAO|LS| adapt: suggested step_size:    1.0251790636285283     
 PAO|LS| adapt: predicted energy  -7.7400100438621147     
 PAO| ======================= Iteration:        33 =============================

     Lanczos converged:  T threshold:   0.100E-02
     Est. extremal eigenvalues:    0.275E+01   0.193E+00
     Est. condition number :    0.142E+02
     NS sqrt iter    1 1.00000000   0.702E+00       0.001       55.921
     NS sqrt iter    2 1.00000000   0.323E+00       0.001      110.592
     NS sqrt iter    3 1.00000000   0.692E-01       0.001      110.592
     NS sqrt iter    4 1.00000000   0.137E-02       0.001      110.592
     NS sqrt iter    5 1.00000000   0.201E-07       0.001       56.576
     Final NS sqrt iter    5 1.00000000   0.510E-08

     Est. extremal eigenvalues     -0.93174     1.61884  converged:  T
     TRS4 it   1 1.00000000   0.849E+00       0.000       16.128   0.100E-07
     TRS4 it   2 1.00000000   0.601E+00       0.001       32.256   0.100E-07
     TRS4 it   3 1.00000000   0.410E+00       0.001       32.256   0.100E-07
     TRS4 it   4 1.00000000   0.206E+00       0.001       32.256   0.100E-07
     TRS4 it   5 1.00000000   0.656E-01       0.001       32.256   0.100E-07
     TRS4 it   6 1.00000000   0.833E-02       0.001       32.256   0.100E-07
     TRS4 it   7 1.00000000   0.177E-03       0.001       32.256   0.100E-07
     TRS4 it   8 1.00000000   0.111E-06       0.001       32.256   0.100E-07
     TRS4 it   9 1.00000000   0.529E-13       0.001       32.256   0.100E-07
     Final TRS4 iteration    9 1.00000000   0.529E-13
     Chemical potential (mu):       0.00550
 
 PAO| energy:  -7.7400100462395818      penalty:   1.0823722739382079E-005
 PAO|CG| trace_G_new    9.7061257425691072E-005
[...]
     Est. condition number :    0.122E+02
     NS sqrt iter    1 1.00000000   0.633E+00       0.001       64.512
     NS sqrt iter    2 1.00000000   0.266E+00       0.001      110.592
     NS sqrt iter    3 1.00000000   0.431E-01       0.001      110.592
     NS sqrt iter    4 1.00000000   0.521E-03       0.001       99.991
     NS sqrt iter    5 1.00000000   0.135E-08       0.001       36.864
     Final NS sqrt iter    5 1.00000000   0.797E-10

     Est. extremal eigenvalues     -0.93159     1.54270  converged:  T
     TRS4 it   1 1.00000000   0.856E+00       0.000       16.128   0.100E-07
     TRS4 it   2 1.00000000   0.617E+00       0.001       32.256   0.100E-07
     TRS4 it   3 1.00000000   0.446E+00       0.001       32.256   0.100E-07
     TRS4 it   4 1.00000000   0.273E+00       0.001       32.256   0.100E-07
     TRS4 it   5 1.00000000   0.134E+00       0.001       32.256   0.100E-07
     TRS4 it   6 1.00000000   0.423E-01       0.001       32.256   0.100E-07
     TRS4 it   7 1.00000000   0.596E-02       0.001       32.256   0.100E-07
     TRS4 it   8 1.00000000   0.154E-03       0.001       30.963   0.100E-07
     TRS4 it   9 1.00000000   0.107E-06       0.001       30.252   0.100E-07
     TRS4 it  10 1.00000000   0.526E-13       0.001       32.256   0.100E-07
     Final TRS4 iteration   10 1.00000000   0.526E-13
     Chemical potential (mu):      -0.08102
 
 PAO| energy:  -7.7401207995979560      penalty:   3.4956993359246586E-011
 PAO|LS| Need extra step
 PAO|LS| adapt:  T T T
 PAO|LS| adapt: scan_steps:    0.0000000000000000       0.20000000000000001       0.40000000000000002     
 PAO|LS| adapt: energies:   -7.7401207995846697       -7.7401207995999250       -7.7401207995979560     
 PAO|LS| adapt: suggested step_size:   0.27713608002887635     
 PAO|LS| adapt: predicted energy  -7.7401207996012058     
 PAO| ======================= Iteration:       969 =============================

     Lanczos converged:  T threshold:   0.100E-02
     Est. extremal eigenvalues:    0.250E+01   0.205E+00
     Est. condition number :    0.122E+02
     NS sqrt iter    1 1.00000000   0.633E+00       0.001       64.512
     NS sqrt iter    2 1.00000000   0.266E+00       0.001      110.592
     NS sqrt iter    3 1.00000000   0.431E-01       0.001      110.592
     NS sqrt iter    4 1.00000000   0.521E-03       0.001      110.336
     NS sqrt iter    5 1.00000000   0.135E-08       0.001       36.864
     Final NS sqrt iter    5 1.00000000   0.797E-10

     Est. extremal eigenvalues     -0.93159     1.54270  converged:  T
     TRS4 it   1 1.00000000   0.856E+00       0.000       16.128   0.100E-07
     TRS4 it   2 1.00000000   0.617E+00       0.001       32.256   0.100E-07
     TRS4 it   3 1.00000000   0.446E+00       0.001       32.256   0.100E-07
     TRS4 it   4 1.00000000   0.273E+00       0.001       32.256   0.100E-07
     TRS4 it   5 1.00000000   0.134E+00       0.001       32.256   0.100E-07
     TRS4 it   6 1.00000000   0.423E-01       0.001       32.256   0.100E-07
     TRS4 it   7 1.00000000   0.596E-02       0.001       32.256   0.100E-07
     TRS4 it   8 1.00000000   0.154E-03       0.001       32.256   0.100E-07
     TRS4 it   9 1.00000000   0.107E-06       0.001       32.256   0.100E-07
     TRS4 it  10 1.00000000   0.513E-13       0.001       32.256   0.100E-07
     Final TRS4 iteration   10 1.00000000   0.513E-13
     Chemical potential (mu):      -0.08102
 
 PAO| energy:  -7.7401207996012014      penalty:   3.4988239235384193E-011
 PAO|CG| warming up with steepest descent
 PAO|CG| beta:    0.0000000000000000     
 PAO| norm of gradient:   6.8357819973681490E-006
 PAO| energy improvement:  -1.6531664925878431E-011
 PAO| step    969                   -7.740120800  0.427E-06  0.277E+00     0.072
 PAO| converged after          969  steps :-)
 PAO| Recalculating energy after mixing.

     Lanczos converged:  T threshold:   0.100E-02
     Est. extremal eigenvalues:    0.250E+01   0.205E+00
     Est. condition number :    0.122E+02
     NS sqrt iter    1 1.00000000   0.633E+00       0.001       64.512
     NS sqrt iter    2 1.00000000   0.266E+00       0.001      110.592
     NS sqrt iter    3 1.00000000   0.431E-01       0.001      110.592
     NS sqrt iter    4 1.00000000   0.521E-03       0.001      110.336
     NS sqrt iter    5 1.00000000   0.135E-08       0.001       36.864
     Final NS sqrt iter    5 1.00000000   0.797E-10

     Est. extremal eigenvalues     -0.93159     1.54270  converged:  T
     TRS4 it   1 1.00000000   0.856E+00       0.000       16.128   0.100E-07
     TRS4 it   2 1.00000000   0.617E+00       0.001       32.256   0.100E-07
     TRS4 it   3 1.00000000   0.446E+00       0.001       32.256   0.100E-07
     TRS4 it   4 1.00000000   0.273E+00       0.001       32.256   0.100E-07
     TRS4 it   5 1.00000000   0.134E+00       0.001       32.256   0.100E-07
     TRS4 it   6 1.00000000   0.423E-01       0.001       32.256   0.100E-07
     TRS4 it   7 1.00000000   0.596E-02       0.001       32.256   0.100E-07
     TRS4 it   8 1.00000000   0.154E-03       0.001       32.256   0.100E-07
     TRS4 it   9 1.00000000   0.107E-06       0.001       32.256   0.100E-07
     TRS4 it  10 1.00000000   0.513E-13       0.001       32.256   0.100E-07
     Final TRS4 iteration   10 1.00000000   0.513E-13
     Chemical potential (mu):      -0.08102
 
 PAO| energy:  -7.7401207995970696      penalty:   3.5023664803724401E-011
 PAO| Writing restart file.
     Est. extremal eigenvalues     -0.93159     1.54270  converged:  T
     TRS4 it   1 1.00000000   0.856E+00       0.000       16.128   0.100E-07
     TRS4 it   2 1.00000000   0.617E+00       0.001       32.256   0.100E-07
     TRS4 it   3 1.00000000   0.446E+00       0.001       32.256   0.100E-07
     TRS4 it   4 1.00000000   0.273E+00       0.001       32.256   0.100E-07
     TRS4 it   5 1.00000000   0.134E+00       0.001       32.256   0.100E-07
     TRS4 it   6 1.00000000   0.423E-01       0.001       32.256   0.100E-07
     TRS4 it   7 1.00000000   0.596E-02       0.001       32.256   0.100E-07
     TRS4 it   8 1.00000000   0.154E-03       0.001       32.256   0.100E-07
     TRS4 it   9 1.00000000   0.107E-06       0.001       32.256   0.100E-07
     TRS4 it  10 1.00000000   0.513E-13       0.001       32.256   0.100E-07
     Final TRS4 iteration   10 1.00000000   0.513E-13
     Chemical potential (mu):      -0.08102

 SCF     1       -34.448924831       -34.448924831    2.055532

*********************************************************
 Using MIXING_FRACTION=0.450 to mix KS matrix:  iscf=  2
 KS_nw=0.450*KS + 0.550*KS_old
*********************************************************
     Est. extremal eigenvalues     -0.93159     1.54270  converged:  T
     TRS4 it   1 1.00000000   0.856E+00       0.000       16.128   0.100E-07
     TRS4 it   2 1.00000000   0.617E+00       0.001       32.256   0.100E-07
     TRS4 it   3 1.00000000   0.446E+00       0.001       32.256   0.100E-07
     TRS4 it   4 1.00000000   0.273E+00       0.001       32.256   0.100E-07
     TRS4 it   5 1.00000000   0.134E+00       0.001       32.256   0.100E-07
     TRS4 it   6 1.00000000   0.423E-01       0.001       32.256   0.100E-07
     TRS4 it   7 1.00000000   0.596E-02       0.001       32.256   0.100E-07
     TRS4 it   8 1.00000000   0.154E-03       0.001       32.256   0.100E-07
     TRS4 it   9 1.00000000   0.107E-06       0.001       32.256   0.100E-07
     TRS4 it  10 1.00000000   0.521E-13       0.001       32.256   0.100E-07
     Final TRS4 iteration   10 1.00000000   0.521E-13
     Chemical potential (mu):      -0.08102

 SCF     2       -34.448924831        -0.000000000    2.066061

 PAO| Storing density matrix for ASPC guess in slot:           1

 ENERGY| Total FORCE_EVAL ( QS ) energy (a.u.):              -34.448924831182701


 -------------------------------------------------------------------------------
 -                                                                             -
 -                                DBCSR STATISTICS                             -
 -                                                                             -
 -------------------------------------------------------------------------------
 COUNTER                                    TOTAL       BLAS       SMM       ACC
 flops     5 x     5 x     4                32000       0.0%    100.0%      0.0%
 flops    13 x     5 x     4                33280       0.0%    100.0%      0.0%
 flops     5 x    13 x     4                33280       0.0%    100.0%      0.0%
 flops    13 x    13 x     4                64896       0.0%    100.0%      0.0%
 flops     4 x     4 x     5              7572480       0.0%    100.0%      0.0%
 flops     5 x     4 x     5              9248000       0.0%    100.0%      0.0%
 flops     4 x     4 x    13              9844224       0.0%    100.0%      0.0%
 flops    13 x     4 x     5             12022400       0.0%    100.0%      0.0%
 flops     5 x     4 x    13             12022400       0.0%    100.0%      0.0%
 flops     5 x     4 x     4             14530080       0.0%    100.0%      0.0%
 flops    13 x     4 x    13             15629120       0.0%    100.0%      0.0%
 flops    13 x     4 x     4             19265792       0.0%    100.0%      0.0%
 flops     4 x     4 x     4            984489600       0.0%    100.0%      0.0%
 flops inhomo. stacks                           0       0.0%      0.0%      0.0%
 flops total                         1.084788E+09       0.0%    100.0%      0.0%
 flops max/rank                      1.084788E+09       0.0%    100.0%      0.0%
 matmuls inhomo. stacks                         0       0.0%      0.0%      0.0%
 matmuls total                            8003818       0.0%    100.0%      0.0%
 number of processed stacks                 64232       0.0%    100.0%      0.0%
 average stack size                                     0.0     124.6       0.0
 marketing flops                     1.773342E+09
 -------------------------------------------------------------------------------
 # multiplications                          53704
 max memory usage/rank             321.282048E+06
 # max total images/rank                        1
 # max 3D layers                                1
 # MPI messages exchanged                       0
 MPI messages size (bytes):
  total size                         0.000000E+00
  min size                           0.000000E+00
  max size                           0.000000E+00
  average size                       0.000000E+00
 MPI breakdown and total messages size (bytes):
             size <=      128                   0                        0
       128 < size <=     8192                   0                        0
      8192 < size <=    32768                   0                        0
     32768 < size <=   131072                   0                        0
    131072 < size <=  4194304                   0                        0
   4194304 < size <= 16777216                   0                        0
  16777216 < size                               0                        0
 -------------------------------------------------------------------------------

 MEMORY| Estimated peak process memory [MiB]                                 307

 -------------------------------------------------------------------------------
 -                                                                             -
 -                           R E F E R E N C E S                               -
 -                                                                             -
 -------------------------------------------------------------------------------
 
 CP2K version 7.0 (Development Version), the CP2K developers group (2018).
 CP2K is freely available from https://www.cp2k.org/ .

 Schuett, O; VandeVondele, J. 
 Journal of Chemical Theory and Computation, 14, (2018). 
 Machine Learning Adaptive Basis Sets for Efficient Large Scale Density Functional Theory Simulation.
 https://dx.doi.org/10.1021/acs.jctc.8b00378


 Schuett, Ole; Messmer, Peter; Hutter, Juerg; VandeVondele, Joost. 
 Electronic Structure Calculations on Graphics Processing Units, John Wiley & Sons, Ltd, 173-190 (2016). 
 GPU-Accelerated Sparse Matrix-Matrix Multiplication for Linear Scaling Density Functional Theory.
 https://dx.doi.org/10.1002/9781118670712.ch8


 Borstnik, U; VandeVondele, J; Weber, V; Hutter, J. 
 PARALLEL COMPUTING, 40 (5-6), 47-58 (2014). 
 Sparse matrix multiplication: The distributed block-compressed sparse
 row library.
 https://dx.doi.org/10.1016/j.parco.2014.03.012


 Hutter, J; Iannuzzi, M; Schiffmann, F; VandeVondele, J. 
 WILEY INTERDISCIPLINARY REVIEWS-COMPUTATIONAL MOLECULAR SCIENCE, 4 (1), 15-25 (2014). 
 CP2K: atomistic simulations of condensed matter systems.
 https://dx.doi.org/10.1002/wcms.1159


 VandeVondele, J; Borstnik, U; Hutter, J. 
 JOURNAL OF CHEMICAL THEORY AND COMPUTATION, 8 (10), 3565-3573 (2012). 
 Linear Scaling Self-Consistent Field Calculations with Millions of Atoms
 in the Condensed Phase.
 https://dx.doi.org/10.1021/ct200897x


 VandeVondele, J; Hutter, J. 
 JOURNAL OF CHEMICAL PHYSICS, 127 (11), 114105 (2007). 
 Gaussian basis sets for accurate calculations on molecular systems in
 gas and condensed phases.
 https://dx.doi.org/10.1063/1.2770708


 Krack, M. 
 THEORETICAL CHEMISTRY ACCOUNTS, 114 (1-3), 145-152 (2005). 
 Pseudopotentials for H to Kr optimized for gradient-corrected
 exchange-correlation functionals.
 https://dx.doi.org/10.1007/s00214-005-0655-y


 VandeVondele, J; Krack, M; Mohamed, F; Parrinello, M; Chassaing, T;
 Hutter, J. COMPUTER PHYSICS COMMUNICATIONS, 167 (2), 103-128 (2005). 
 QUICKSTEP: Fast and accurate density functional calculations using a
 mixed Gaussian and plane waves approach.
 https://dx.doi.org/10.1016/j.cpc.2004.12.014


 Frigo, M; Johnson, SG. 
 PROCEEDINGS OF THE IEEE, 93 (2), 216-231 (2005). 
 The design and implementation of FFTW3.
 https://dx.doi.org/10.1109/JPROC.2004.840301


 Niklasson, AMN; Tymczak, CJ; Challacombe, M. 
 JOURNAL OF CHEMICAL PHYSICS, 118 (19), 8611-8620 (2003). 
 Trace resetting density matrix purification in O(N)
 self-consistent-field theory.
 https://dx.doi.org/10.1063/1.1559913


 Hartwigsen, C; Goedecker, S; Hutter, J. 
 PHYSICAL REVIEW B, 58 (7), 3641-3662 (1998). 
 Relativistic separable dual-space Gaussian pseudopotentials from H to Rn.
 https://dx.doi.org/10.1103/PhysRevB.58.3641


 Lippert, G; Hutter, J; Parrinello, M. 
 MOLECULAR PHYSICS, 92 (3), 477-487 (1997). 
 A hybrid Gaussian and plane wave density functional scheme.
 https://dx.doi.org/10.1080/002689797170220


 Perdew, JP; Burke, K; Ernzerhof, M. 
 PHYSICAL REVIEW LETTERS, 77 (18), 3865-3868 (1996). 
 Generalized gradient approximation made simple.
 https://dx.doi.org/10.1103/PhysRevLett.77.3865


 Goedecker, S; Teter, M; Hutter, J. 
 PHYSICAL REVIEW B, 54 (3), 1703-1710 (1996). 
 Separable dual-space Gaussian pseudopotentials.
 https://dx.doi.org/10.1103/PhysRevB.54.1703


 -------------------------------------------------------------------------------
 -                                                                             -
 -                                T I M I N G                                  -
 -                                                                             -
 -------------------------------------------------------------------------------
 SUBROUTINE                       CALLS  ASD         SELF TIME        TOTAL TIME
                                MAXIMUM       AVERAGE  MAXIMUM  AVERAGE  MAXIMUM
 CP2K                                 1  1.0    0.025    0.025   52.231   52.231
 qs_energies                          1  2.0    0.000    0.000   51.844   51.844
 ls_scf                               1  3.0    0.000    0.000   51.724   51.724
 ls_scf_main                          7  4.0    0.001    0.001   31.193   31.193
 ls_scf_dm_to_ks                     15  5.0    0.000    0.000   31.052   31.052
 qs_ks_update_qs_env                 16  6.0    0.000    0.000   23.367   23.367
 rebuild_ks_matrix                   16  7.0    0.000    0.000   23.366   23.366
 qs_ks_build_kohn_sham_matrix        16  8.0    0.002    0.002   23.366   23.366
 pao_update                           7  4.0    0.026    0.026   18.446   18.446
 pao_calc_energy                    975  5.0    0.010    0.010   16.730   16.730
 dbcsr_multiply_generic           53704  8.4    1.036    1.036   13.447   13.447
 qs_vxc_create                       16  9.0    0.000    0.000   13.290   13.290
 xc_vxc_pw_create                    16 10.0    0.222    0.222   13.289   13.289
 qs_rho_update_rho                   16  6.0    0.000    0.000    9.682    9.682
 calculate_rho_elec                  16  7.0    7.791    7.791    9.681    9.681
 xc_rho_set_and_dset_create          16 11.0    0.084    0.084    9.522    9.522
 pao_dm_trs4                        975  6.0    0.009    0.009    8.896    8.896
 pw_transfer                        305 10.6    0.023    0.023    8.719    8.719
 sum_up_and_integrate                16  9.0    0.042    0.042    8.619    8.619
 integrate_v_rspace                  16 10.0    7.544    7.544    8.577    8.577
 fft_wrap_pw1pw2                    273 11.7    0.003    0.003    8.527    8.527
 density_matrix_trs4                990  7.0    0.538    0.538    8.514    8.514
 fft_wrap_pw1pw2_200                177 12.8    0.699    0.699    8.158    8.158
 ls_scf_init_matrix_S               982  7.0    0.009    0.009    7.781    7.781
 pao_rebuild_S                      975  6.0    0.007    0.007    7.732    7.732
 matrix_sqrt_Newton_Schulz          982  8.0    0.344    0.344    6.991    6.991
 xc_functional_eval                  16 12.0    0.000    0.000    6.406    6.406
 pbe_lda_eval                        16 13.0    6.406    6.406    6.406    6.406
 multiply_cannon                  53704  9.4    2.428    2.428    5.266    5.266
 make_m2s                        107408  9.4    0.352    0.352    4.899    4.899
 fft3d_s                            274 13.6    4.688    4.688    4.700    4.700
 make_images                     107408 10.4    1.272    1.272    4.345    4.345
 arnoldi_extremal                  1972  8.5    0.012    0.012    2.136    2.136
 arnoldi_normal_ev                 1972  9.5    0.029    0.029    2.124    2.124
 pao_guess_initial_P                  1  4.0    0.000    0.000    2.005    2.005
 pao_read_preopt_dm                   1  5.0    0.000    0.000    2.005    2.005
 density_rs2pw                       16  8.0    0.001    0.001    1.860    1.860
 pao_calc_AB                       1282  5.8    0.002    0.002    1.678    1.678
 pao_calc_AB_direct                1282  6.8    0.060    0.060    1.675    1.675
 pw_gather_s                        129 13.1    1.548    1.548    1.548    1.548
 pw_scatter_s                       144 14.2    1.546    1.546    1.546    1.546
 pao_calc_grad_lnv_wrt_AB           306  7.0    0.019    0.019    1.545    1.545
 build_subspace                    1972 10.5    0.129    0.129    1.537    1.537
 dbcsr_create_new                410536 10.7    0.787    0.787    1.408    1.408
 dbcsr_finalize                  128609  9.6    0.259    0.259    1.392    1.392
 dbcsr_matrix_vector_mult         47301 11.5    0.247    0.247    1.360    1.360
 -------------------------------------------------------------------------------

 The number of warnings for this run is : 0
 
 -------------------------------------------------------------------------------
  **** **** ******  **  PROGRAM ENDED AT                 2019-02-14 01:06:00.515
 ***** ** ***  *** **   PROGRAM RAN ON                                      otto
 **    ****   ******    PROGRAM RAN BY                                       ole
 ***** **    ** ** **   PROGRAM PROCESS ID                                  5929
  **** **  *******  **  PROGRAM STOPPED IN /home/ole/git/pao_ml_equivar/2H2O_MD/
                                           frame_0025
