 DBCSR| CPU Multiplication driver                                           XSMM
 DBCSR| Multrec recursion limit                                              512
 DBCSR| Multiplication stack size                                           1000
 DBCSR| Maximum elements for images                                    UNLIMITED
 DBCSR| Multiplicative factor virtual images                                   1
 DBCSR| Use multiplication densification                                       T
 DBCSR| Multiplication size stacks                                             3


  **** **** ******  **  PROGRAM STARTED AT               2019-02-14 01:27:27.113
 ***** ** ***  *** **   PROGRAM STARTED ON                                  otto
 **    ****   ******    PROGRAM STARTED BY                                   ole
 ***** **    ** ** **   PROGRAM PROCESS ID                                  6187
  **** **  *******  **  PROGRAM STARTED IN /home/ole/git/pao_ml_equivar/2H2O_MD/
                                           frame_0650

 CP2K| version string:                    CP2K version 7.0 (Development Version)
 CP2K| source code revision number:                                git:8bf305913
 CP2K| cp2kflags: libint fftw3 libxc xsmm libderiv_max_am1=5 libint_max_am=6    
 CP2K| is freely available from                            https://www.cp2k.org/
 CP2K| Program compiled at                           So Jan 13 00:02:37 CET 2019
 CP2K| Program compiled on                                                  otto
 CP2K| Program compiled for                                                local
 CP2K| Data directory path                               /home/ole/git/cp2k/data
 CP2K| Input file name                                            2H2O_pao44.inp

 GLOBAL| Force Environment number                                              1
 GLOBAL| Basis set file name                                        BASIS_MOLOPT
 GLOBAL| Potential file name                                      GTH_POTENTIALS
 GLOBAL| MM Potential file name                                     MM_POTENTIAL
 GLOBAL| Coordinate file name                                         coords.xyz
 GLOBAL| Method name                                                        CP2K
 GLOBAL| Project name                                                 2H2O_pao44
 GLOBAL| Preferred FFT library                                             FFTW3
 GLOBAL| Preferred diagonalization lib.                                       SL
 GLOBAL| Run type                                                         ENERGY
 GLOBAL| All-to-all communication in single precision                          F
 GLOBAL| FFTs using library dependent lengths                                  F
 GLOBAL| Global print level                                                  LOW
 GLOBAL| MPI I/O enabled                                                       T
 GLOBAL| Total number of message passing processes                             1
 GLOBAL| Number of threads for this process                                    1
 GLOBAL| This output is from process                                           0
 GLOBAL| CPU model name :  Intel(R) Core(TM) i5-3320M CPU @ 2.60GHz

 MEMORY| system memory details [Kb]
 MEMORY|                        rank 0           min           max       average
 MEMORY| MemTotal              7860772       7860772       7860772       7860772
 MEMORY| MemFree               1967644       1967644       1967644       1967644
 MEMORY| Buffers                283188        283188        283188        283188
 MEMORY| Cached                2036272       2036272       2036272       2036272
 MEMORY| Slab                   257808        257808        257808        257808
 MEMORY| SReclaimable           135316        135316        135316        135316
 MEMORY| MemLikelyFree         4422420       4422420       4422420       4422420


 GENERATE|  Preliminary Number of Bonds generated:                             0
 GENERATE|  Achieved consistency in connectivity generation.

 *******************************************************************************
 *******************************************************************************
 **                                                                           **
 **     #####                         ##              ##                      **
 **    ##   ##            ##          ##              ##                      **
 **   ##     ##                       ##            ######                    **
 **   ##     ##  ##   ##  ##   #####  ##  ##   ####   ##    #####    #####    **
 **   ##     ##  ##   ##  ##  ##      ## ##   ##      ##   ##   ##  ##   ##   **
 **   ##  ## ##  ##   ##  ##  ##      ####     ###    ##   ######   ######    **
 **    ##  ###   ##   ##  ##  ##      ## ##      ##   ##   ##       ##        **
 **     #######   #####   ##   #####  ##  ##  ####    ##    #####   ##        **
 **           ##                                                    ##        **
 **                                                                           **
 **                                                ... make the atoms dance   **
 **                                                                           **
 **            Copyright (C) by CP2K developers group (2000 - 2018)           **
 **                                                                           **
 *******************************************************************************


 TOTAL NUMBERS AND MAXIMUM NUMBERS

  Total number of            - Atomic kinds:                                   2
                             - Atoms:                                          6
                             - Shell sets:                                     6
                             - Shells:                                        22
                             - Primitive Cartesian functions:                 42
                             - Cartesian basis functions:                     48
                             - Spherical basis functions:                     46

  Maximum angular momentum of- Orbital basis functions:                        2
                             - Local part of the GTH pseudopotential:          2
                             - Non-local part of the GTH pseudopotential:      0

 ------------------------------ Linear scaling SCF -----------------------------
 eps_scf:                                       0.100E-07
 eps_filter:                                    0.100E-07
 mixing_fraction:                               0.450E+00
 max_scf:                                              25
 fixed chemical potential (mu)                          F
 has unit metric:                                       F
 Computing inv(S):                                      T
 Computing sqrt(S):                                     T
 Computing s preconditioner                             F
 sign sqrt order:                                       3
 Extrapolation order:                                   1
 Use single precision matrices                          F
 S preconditioner type                               NONE
 Polarized Atomic Orbitals (PAO)                        T
 Purification method                      Trace resetting 4th order
 Cluster type                                      ATOMIC
 Computing Chebyshev                                FALSE
 Using PAO                                              T
 -------------------------------------------------------------------------------

 
 PAO|                                  EPS_PAO                           0.5E-06
 PAO|                                  MIXING                            0.5E+00
 PAO|                                  MAX_PAO                              1000
 PAO|                                  MAX_CYCLES                           1000
 PAO|                                  PARAMETERIZATION                   DIRECT
 PAO|                                  PRECONDITION                            F
 PAO|                                  REGULARIZATION                    0.0E+00
 PAO|                                  EPS_PGF                           0.1E-09
 PAO|                                  PENALTY_DISTANCE                  0.1E+00
 PAO|                                  PENALTY_STRENGTH                  0.5E-02
 PAO|                                  LINPOT_PRECONDITION_DELTA         0.0E+00
 PAO|                                  LINPOT_INITGUESS_DELT             0.0E+00
 PAO|                                  LINPOT_REGULARIZATION_DELTA       0.0E+00
 PAO|                                  LINPOT_REGULARIZATION_STRENGTH    0.0E+00
 PAO|                                  OPTIMIZER                              CG
 PAO|                                  CG_INIT_STEPS                           2
 PAO|                                  CG_RESET_LIMIT                    0.1E+00
 PAO|                                  CHECK_UNITARY_TOL                -0.1E+01
 PAO|                                  CHECK_GRADIENT_TOL               -0.1E+01
 PAO|                                  NUM_GRADIENT_ORDER                      2
 PAO|                                  NUM_GRADIENT_EPS                  0.1E-07
 PAO|                                  PRINT%RESTART%WRITE_CYCLES            100
 PAO|                                  RESTART_FILE 
 PAO|                                  PREOPT_DM_FILE 2H2O_ref_LS_DM_SPIN_1_RESTART.dm
 PAO|                                  MACHINE_LEARNING%METHOD        GAUSSIAN_P
 PAO|                                  MACHINE_LEARNING%PRIOR               ZERO
 PAO|                                  MACHINE_LEARNING%DESCRIPTOR     POTENTIAL
 PAO|                                  MACHINE_LEARNING%TOLERANCE        0.1E-01
 PAO|                                  MACHINE_LEARNING%GP_NOISE_VAR     0.1E+00
 PAO|                                  MACHINE_LEARNING%GP_SCALE         0.5E-01
 

 Calculating atomic Fock matrix for atomic kind: O

 Electronic structure
    Total number of core electrons                                          2.00
    Total number of valence electrons                                       6.00
    Total number of electrons                                               8.00
    Multiplicity                                                   not specified
    S   [  2.00] 2.00
    P      4.00


 *******************************************************************************
                  Iteration          Convergence                     Energy [au]
 *******************************************************************************
                          1        0.708315                     -15.576645311500
                          2        0.608879                     -15.587933561584
                          3        0.102828E-01                 -15.656849565404
                          4        0.113889E-02                 -15.656866888140
                          5        0.434197E-03                 -15.656867072159
                          6        0.263771E-03                 -15.656867091904
                          7        0.478536E-06                 -15.656867103452

 Energy components [Hartree]           Total Energy ::          -15.656867103452
                                        Band Energy ::           -3.000198112285
                                     Kinetic Energy ::           11.759971203220
                                   Potential Energy ::          -27.416838306672
                                      Virial (-V/T) ::            2.331369510426
                                        Core Energy ::          -26.140716385623
                                          XC Energy ::           -3.154051012914
                                     Coulomb Energy ::           13.637900295084
                       Total Pseudopotential Energy ::          -37.935781716540
                       Local Pseudopotential Energy ::          -39.218907440693
                    Nonlocal Pseudopotential Energy ::            1.283125724153
                                        Confinement ::            0.350941276976

 Orbital energies  State     L     Occupation   Energy[a.u.]          Energy[eV]

                       1     0          2.000      -0.864471          -23.523463

                       1     1          4.000      -0.317814           -8.648154


 Total Electron Density at R=0:                                         0.000068

 Calculating atomic Fock matrix for atomic kind: H

 Electronic structure
    Total number of core electrons                                          0.00
    Total number of valence electrons                                       1.00
    Total number of electrons                                               1.00
    Multiplicity                                                   not specified
    S      1.00


 *******************************************************************************
                  Iteration          Convergence                     Energy [au]
 *******************************************************************************
                          1        0.437545E-02                  -0.424159432110
                          2        0.531356E-03                  -0.424178438213
                          3        0.259176E-06                  -0.424178722480

 Energy components [Hartree]           Total Energy ::           -0.424178722480
                                        Band Energy ::           -0.199015229016
                                     Kinetic Energy ::            0.464007633961
                                   Potential Energy ::           -0.888186356441
                                      Virial (-V/T) ::            1.914163240935
                                        Core Energy ::           -0.479160803564
                                          XC Energy ::           -0.244352904054
                                     Coulomb Energy ::            0.299334985138
                       Total Pseudopotential Energy ::           -0.962295316385
                       Local Pseudopotential Energy ::           -0.962295316385
                    Nonlocal Pseudopotential Energy ::            0.000000000000
                                        Confinement ::            0.191268788606

 Orbital energies  State     L     Occupation   Energy[a.u.]          Energy[eV]

                       1     0          1.000      -0.199015           -5.415480


 Total Electron Density at R=0:                                         0.242907
 PAO| Made initial guess for matrix_X with norm:   4.8989794855663558     

     Lanczos converged:  T threshold:   0.100E-02
     Est. extremal eigenvalues:    0.347E+01   0.119E+00
     Est. condition number :    0.292E+02
     NS sqrt iter    1 1.00000000   0.848E+00       0.002       41.513
     NS sqrt iter    2 1.00000000   0.450E+00       0.001       81.817
     NS sqrt iter    3 1.00000000   0.171E+00       0.002       65.911
     NS sqrt iter    4 1.00000000   0.202E-01       0.001       77.029
     NS sqrt iter    5 1.00000000   0.497E-04       0.001       68.249
     Final NS sqrt iter    5 1.00000000   0.336E-08

 PAO| Read restart DM 2H2O_ref_LS_DM_SPIN_1_RESTART.dm with checksum:    54.771434182779160     
 PAO| Quickstep energy from restart density:  -34.448196413116449     
 PAO| ======================= Iteration:         1 =============================

     Lanczos converged:  T threshold:   0.100E-02
     Est. extremal eigenvalues:    0.347E+01   0.119E+00
     Est. condition number :    0.292E+02
     NS sqrt iter    1 1.00000000   0.848E+00       0.001       61.905
     NS sqrt iter    2 1.00000000   0.450E+00       0.001       88.493
     NS sqrt iter    3 1.00000000   0.171E+00       0.001      107.188
     NS sqrt iter    4 1.00000000   0.202E-01       0.001      102.936
     NS sqrt iter    5 1.00000000   0.497E-04       0.001       88.576
     Final NS sqrt iter    5 1.00000000   0.336E-08

     Est. extremal eigenvalues     -0.91189     1.79406  converged:  T
     TRS4 it   1 1.00000000   0.864E+00       0.000       16.128   0.100E-07
     TRS4 it   2 1.00000000   0.670E+00       0.001       32.256   0.100E-07
     TRS4 it   3 1.00000000   0.491E+00       0.001       32.256   0.100E-07
     TRS4 it   4 1.00000000   0.310E+00       0.001       32.256   0.100E-07
     TRS4 it   5 1.00000000   0.155E+00       0.001       32.256   0.100E-07
     TRS4 it   6 1.00000000   0.499E-01       0.001       32.256   0.100E-07
     TRS4 it   7 1.00000000   0.753E-02       0.001       32.256   0.100E-07
     TRS4 it   8 1.00000000   0.236E-03       0.001       32.256   0.100E-07
     TRS4 it   9 1.00000000   0.248E-06       0.001       32.256   0.100E-07
     TRS4 it  10 1.00000000   0.276E-12       0.001       32.256   0.100E-07
     Final TRS4 iteration   10 1.00000000   0.276E-12
     Chemical potential (mu):      -0.07001
 
 PAO| energy:  -7.5381042828371347      penalty:   5.9164567891575897E-033
 PAO|CG| warming up with steepest descent
 PAO|CG| beta:    0.0000000000000000     
 PAO| norm of gradient:  0.77459981973498671     
 PAO|LS| adapt:  T F F
 PAO|LS| adapt: scan_steps:    0.0000000000000000        0.0000000000000000        0.0000000000000000     
 PAO|LS| adapt: energies:   -7.5381042828371347        0.0000000000000000        0.0000000000000000     
 PAO| ======================= Iteration:         2 =============================

     Lanczos converged:  T threshold:   0.100E-02
     Est. extremal eigenvalues:    0.339E+01   0.134E+00
     Est. condition number :    0.253E+02
     NS sqrt iter    1 1.00000000   0.834E+00       0.001       64.392
     NS sqrt iter    2 1.00000000   0.435E+00       0.001      110.592
     NS sqrt iter    3 1.00000000   0.153E+00       0.001      110.592
     NS sqrt iter    4 1.00000000   0.139E-01       0.001      110.592
     NS sqrt iter    5 1.00000000   0.150E-04       0.001       82.944
     Final NS sqrt iter    5 1.00000000   0.348E-09

     Est. extremal eigenvalues     -0.91534     1.74683  converged:  T
     TRS4 it   1 1.00000000   0.861E+00       0.000       16.128   0.100E-07
     TRS4 it   2 1.00000000   0.653E+00       0.001       32.256   0.100E-07
     TRS4 it   3 1.00000000   0.474E+00       0.001       32.256   0.100E-07
     TRS4 it   4 1.00000000   0.288E+00       0.001       32.256   0.100E-07
     TRS4 it   5 1.00000000   0.135E+00       0.001       32.256   0.100E-07
     TRS4 it   6 1.00000000   0.385E-01       0.001       32.256   0.100E-07
     TRS4 it   7 1.00000000   0.458E-02       0.001       32.256   0.100E-07
     TRS4 it   8 1.00000000   0.878E-04       0.001       32.256   0.100E-07
     TRS4 it   9 1.00000000   0.343E-07       0.001       25.891   0.100E-07
     Final TRS4 iteration    9 1.00000000   0.343E-07
     Chemical potential (mu):      -0.05899
 
 PAO| energy:  -7.5922186967267073      penalty:   2.1604103215153210E-008
 PAO|LS| adapt:  T T F
 PAO|LS| adapt: scan_steps:    0.0000000000000000       0.10000000000000001        0.0000000000000000     
 PAO|LS| adapt: energies:   -7.5381042828371347       -7.5922186967267073        0.0000000000000000     
 PAO| ======================= Iteration:         3 =============================

     Lanczos converged:  T threshold:   0.100E-02
     Est. extremal eigenvalues:    0.331E+01   0.148E+00
     Est. condition number :    0.224E+02
     NS sqrt iter    1 1.00000000   0.818E+00       0.001       59.851
     NS sqrt iter    2 1.00000000   0.419E+00       0.001      110.592
     NS sqrt iter    3 1.00000000   0.136E+00       0.001      110.592
     NS sqrt iter    4 1.00000000   0.960E-02       0.001      110.592
     NS sqrt iter    5 1.00000000   0.469E-05       0.001       82.944
     Final NS sqrt iter    5 1.00000000   0.329E-10

     Est. extremal eigenvalues     -0.91853     1.71099  converged:  T
     TRS4 it   1 1.00000000   0.860E+00       0.000       16.128   0.100E-07
     TRS4 it   2 1.00000000   0.639E+00       0.001       32.256   0.100E-07
     TRS4 it   3 1.00000000   0.457E+00       0.001       32.256   0.100E-07
     TRS4 it   4 1.00000000   0.268E+00       0.001       32.256   0.100E-07
     TRS4 it   5 1.00000000   0.117E+00       0.001       32.256   0.100E-07
     TRS4 it   6 1.00000000   0.290E-01       0.001       32.256   0.100E-07
     TRS4 it   7 1.00000000   0.261E-02       0.001       32.256   0.100E-07
     TRS4 it   8 1.00000000   0.285E-04       0.001       32.256   0.100E-07
     TRS4 it   9 1.00000000   0.361E-08       0.001       32.256   0.100E-07
     Final TRS4 iteration    9 1.00000000   0.361E-08
     Chemical potential (mu):      -0.04710
 
 PAO| energy:  -7.6339809005859705      penalty:   3.4566505509610823E-007
 PAO|LS| adapt:  T T F
 PAO|LS| adapt: scan_steps:    0.0000000000000000       0.20000000000000001        0.0000000000000000     
 PAO|LS| adapt: energies:   -7.5381042828371347       -7.6339809005859705        0.0000000000000000     
 PAO| ======================= Iteration:         4 =============================

     Lanczos converged:  T threshold:   0.100E-02
     Est. extremal eigenvalues:    0.312E+01   0.167E+00
     Est. condition number :    0.187E+02
     NS sqrt iter    1 1.00000000   0.784E+00       0.001       64.512
     NS sqrt iter    2 1.00000000   0.386E+00       0.001      110.592
     NS sqrt iter    3 1.00000000   0.107E+00       0.001      110.592
     NS sqrt iter    4 1.00000000   0.473E-02       0.001      110.592
     NS sqrt iter    5 1.00000000   0.662E-06       0.001       69.260
     Final NS sqrt iter    5 1.00000000   0.760E-12

     Est. extremal eigenvalues     -0.92336     1.66177  converged:  T
     TRS4 it   1 1.00000000   0.859E+00       0.000       16.128   0.100E-07
     TRS4 it   2 1.00000000   0.615E+00       0.001       32.256   0.100E-07
     TRS4 it   3 1.00000000   0.428E+00       0.001       32.256   0.100E-07
     TRS4 it   4 1.00000000   0.232E+00       0.001       32.256   0.100E-07
     TRS4 it   5 1.00000000   0.862E-01       0.001       32.256   0.100E-07
     TRS4 it   6 1.00000000   0.155E-01       0.001       32.256   0.100E-07
     TRS4 it   7 1.00000000   0.718E-03       0.001       29.692   0.100E-07
     TRS4 it   8 1.00000000   0.210E-05       0.001       27.709   0.100E-07
     TRS4 it   9 1.00000000   0.197E-10       0.001       32.256   0.100E-07
     Final TRS4 iteration    9 1.00000000   0.197E-10
     Chemical potential (mu):      -0.02093
 
 PAO| energy:  -7.6791570900356065      penalty:   5.5306361108343342E-006
 PAO|LS| Need extra step
 PAO|LS| adapt:  T T F
 PAO|LS| adapt: scan_steps:    0.0000000000000000       0.40000000000000002        0.0000000000000000     
 PAO|LS| adapt: energies:   -7.5381042828371347       -7.6791570900356065        0.0000000000000000     
 PAO| ======================= Iteration:         5 =============================

     Lanczos converged:  T threshold:   0.100E-02
     Est. extremal eigenvalues:    0.278E+01   0.193E+00
     Est. condition number :    0.144E+02
     NS sqrt iter    1 1.00000000   0.722E+00       0.001       64.512
     NS sqrt iter    2 1.00000000   0.325E+00       0.001      110.592
     NS sqrt iter    3 1.00000000   0.674E-01       0.001      110.592
     NS sqrt iter    4 1.00000000   0.137E-02       0.001      110.592
     NS sqrt iter    5 1.00000000   0.236E-07       0.001       55.552
     Final NS sqrt iter    5 1.00000000   0.648E-09

     Est. extremal eigenvalues     -0.92398     1.60860  converged:  T
     TRS4 it   1 1.00000000   0.860E+00       0.000       16.128   0.100E-07
     TRS4 it   2 1.00000000   0.584E+00       0.001       32.256   0.100E-07
     TRS4 it   3 1.00000000   0.380E+00       0.001       32.256   0.100E-07
     TRS4 it   4 1.00000000   0.176E+00       0.001       32.256   0.100E-07
     TRS4 it   5 1.00000000   0.476E-01       0.001       32.256   0.100E-07
     TRS4 it   6 1.00000000   0.440E-02       0.001       32.256   0.100E-07
     TRS4 it   7 1.00000000   0.489E-04       0.001       32.256   0.100E-07
     TRS4 it   8 1.00000000   0.772E-08       0.001       32.256   0.100E-07
     Final TRS4 iteration    8 1.00000000   0.772E-08
     Chemical potential (mu):       0.02552
 
 PAO| energy:  -7.6233331590107101      penalty:   8.8490139607990182E-005
 PAO|LS| Need extra step
 PAO|LS| adapt:  T T T
 PAO|LS| adapt: scan_steps:    0.0000000000000000       0.40000000000000002       0.80000000000000004     
 PAO|LS| adapt: energies:   -7.5381042828371347       -7.6791570900356065       -7.6233331590107101     
 PAO|LS| adapt: suggested step_size:   0.48658095104854715     
 PAO|LS| adapt: predicted energy  -7.6837690882580478     
 PAO| ======================= Iteration:         6 =============================

     Lanczos converged:  T threshold:   0.100E-02
     Est. extremal eigenvalues:    0.305E+01   0.173E+00
     Est. condition number :    0.176E+02
     NS sqrt iter    1 1.00000000   0.770E+00       0.001       64.512
     NS sqrt iter    2 1.00000000   0.372E+00       0.001      110.592
     NS sqrt iter    3 1.00000000   0.966E-01       0.001      110.592
     NS sqrt iter    4 1.00000000   0.356E-02       0.001      110.592
     NS sqrt iter    5 1.00000000   0.315E-06       0.001       67.209
     Final NS sqrt iter    5 1.00000000   0.236E-09

     Est. extremal eigenvalues     -0.92460     1.64653  converged:  T
     TRS4 it   1 1.00000000   0.859E+00       0.000       16.128   0.100E-07
     TRS4 it   2 1.00000000   0.607E+00       0.001       32.256   0.100E-07
     TRS4 it   3 1.00000000   0.416E+00       0.001       32.256   0.100E-07
     TRS4 it   4 1.00000000   0.217E+00       0.001       32.256   0.100E-07
     TRS4 it   5 1.00000000   0.753E-01       0.001       32.256   0.100E-07
     TRS4 it   6 1.00000000   0.117E-01       0.001       32.256   0.100E-07
     TRS4 it   7 1.00000000   0.391E-03       0.001       32.256   0.100E-07
     TRS4 it   8 1.00000000   0.606E-06       0.001       32.256   0.100E-07
     TRS4 it   9 1.00000000   0.163E-11       0.001       32.256   0.100E-07
     Final TRS4 iteration    9 1.00000000   0.163E-11
     Chemical potential (mu):      -0.00895
 
 PAO| energy:  -7.6830263390927689      penalty:   1.2110315695788981E-005
 PAO|CG| warming up with steepest descent
 PAO|CG| beta:    0.0000000000000000     
 PAO| norm of gradient:  0.40750170918902229     
 PAO| energy improvement: -0.14492205625563415     
 PAO| step      6                   -7.683026339  0.255E-01  0.487E+00     0.089
 PAO|LS| adapt:  T F F
 PAO|LS| adapt: scan_steps:    0.0000000000000000        0.0000000000000000        0.0000000000000000     
 PAO|LS| adapt: energies:   -7.6830263390927689        0.0000000000000000        0.0000000000000000     
 PAO| ======================= Iteration:         7 =============================

     Lanczos converged:  T threshold:   0.100E-02
     Est. extremal eigenvalues:    0.295E+01   0.187E+00
     Est. condition number :    0.158E+02
     NS sqrt iter    1 1.00000000   0.749E+00       0.001       64.512
     NS sqrt iter    2 1.00000000   0.350E+00       0.001      110.592
     NS sqrt iter    3 1.00000000   0.812E-01       0.001      110.592
     NS sqrt iter    4 1.00000000   0.219E-02       0.001      110.592
     NS sqrt iter    5 1.00000000   0.837E-07       0.001       74.624
     Final NS sqrt iter    5 1.00000000   0.846E-09

     Est. extremal eigenvalues     -0.92689     1.65260  converged:  T
     TRS4 it   1 1.00000000   0.865E+00       0.001       16.128   0.100E-07
     TRS4 it   2 1.00000000   0.610E+00       0.001       32.256   0.100E-07
     TRS4 it   3 1.00000000   0.420E+00       0.001       32.256   0.100E-07
     TRS4 it   4 1.00000000   0.221E+00       0.001       32.256   0.100E-07
     TRS4 it   5 1.00000000   0.776E-01       0.001       32.256   0.100E-07
     TRS4 it   6 1.00000000   0.122E-01       0.001       32.256   0.100E-07
     TRS4 it   7 1.00000000   0.413E-03       0.001       32.256   0.100E-07
     TRS4 it   8 1.00000000   0.668E-06       0.001       32.256   0.100E-07
     TRS4 it   9 1.00000000   0.199E-11       0.001       32.256   0.100E-07
     Final TRS4 iteration    9 1.00000000   0.199E-11
     Chemical potential (mu):      -0.00860
 
 PAO| energy:  -7.6809479231161371      penalty:   1.8057693456421399E-005
 PAO|LS| adapt:  T F T
 PAO|LS| adapt: scan_steps:    0.0000000000000000        0.0000000000000000       0.48658095104854715     
 PAO|LS| adapt: energies:   -7.6830263390927689        0.0000000000000000       -7.6809479231161371     
 PAO| ======================= Iteration:         8 =============================

     Lanczos converged:  T threshold:   0.100E-02
     Est. extremal eigenvalues:    0.300E+01   0.180E+00
     Est. condition number :    0.167E+02
     NS sqrt iter    1 1.00000000   0.759E+00       0.001       64.512
     NS sqrt iter    2 1.00000000   0.361E+00       0.001      110.592
     NS sqrt iter    3 1.00000000   0.888E-01       0.001      110.592
     NS sqrt iter    4 1.00000000   0.281E-02       0.001      110.592
     NS sqrt iter    5 1.00000000   0.166E-06       0.001       79.360
     Final NS sqrt iter    5 1.00000000   0.108E-08

     Est. extremal eigenvalues     -0.92674     1.64911  converged:  T
     TRS4 it   1 1.00000000   0.862E+00       0.000       16.128   0.100E-07
     TRS4 it   2 1.00000000   0.608E+00       0.001       32.256   0.100E-07
     TRS4 it   3 1.00000000   0.417E+00       0.001       32.256   0.100E-07
     TRS4 it   4 1.00000000   0.219E+00       0.001       32.256   0.100E-07
     TRS4 it   5 1.00000000   0.764E-01       0.001       32.256   0.100E-07
     TRS4 it   6 1.00000000   0.120E-01       0.001       32.256   0.100E-07
     TRS4 it   7 1.00000000   0.416E-03       0.001       32.256   0.100E-07
     TRS4 it   8 1.00000000   0.688E-06       0.001       32.256   0.100E-07
     TRS4 it   9 1.00000000   0.211E-11       0.001       32.256   0.100E-07
     Final TRS4 iteration    9 1.00000000   0.211E-11
     Chemical potential (mu):      -0.00957
 
 PAO| energy:  -7.7024155631337443      penalty:   1.3102476734449026E-005
 PAO|LS| adapt:  T T T
 PAO|LS| adapt: scan_steps:    0.0000000000000000       0.24329047552427358       0.48658095104854715     
 PAO|LS| adapt: energies:   -7.6830263390927689       -7.7024155631337443       -7.6809479231161371     
 PAO|LS| adapt: suggested step_size:   0.23710230099175242     
 PAO|LS| adapt: predicted energy  -7.7024287794349453     
 PAO| ======================= Iteration:         9 =============================

     Lanczos converged:  T threshold:   0.100E-02
     Est. extremal eigenvalues:    0.300E+01   0.180E+00
     Est. condition number :    0.167E+02
     NS sqrt iter    1 1.00000000   0.760E+00       0.001       55.530
     NS sqrt iter    2 1.00000000   0.361E+00       0.001      103.380
     NS sqrt iter    3 1.00000000   0.890E-01       0.001      110.592
     NS sqrt iter    4 1.00000000   0.283E-02       0.001      110.592
     NS sqrt iter    5 1.00000000   0.169E-06       0.001       79.488
     Final NS sqrt iter    5 1.00000000   0.109E-08

     Est. extremal eigenvalues     -0.92671     1.64903  converged:  T
     TRS4 it   1 1.00000000   0.861E+00       0.001       16.128   0.100E-07
     TRS4 it   2 1.00000000   0.608E+00       0.001       24.264   0.100E-07
     TRS4 it   3 1.00000000   0.417E+00       0.001       29.150   0.100E-07
     TRS4 it   4 1.00000000   0.219E+00       0.001       23.415   0.100E-07
     TRS4 it   5 1.00000000   0.764E-01       0.001       32.256   0.100E-07
     TRS4 it   6 1.00000000   0.120E-01       0.001       32.256   0.100E-07
     TRS4 it   7 1.00000000   0.416E-03       0.001       32.256   0.100E-07
     TRS4 it   8 1.00000000   0.687E-06       0.001       32.256   0.100E-07
     TRS4 it   9 1.00000000   0.211E-11       0.001       32.256   0.100E-07
     Final TRS4 iteration    9 1.00000000   0.211E-11
     Chemical potential (mu):      -0.00957
 
 PAO| energy:  -7.7024391190629151      penalty:   1.3040824597931065E-005
 PAO|CG| trace_G_new    3.9292369102310522E-002
 PAO|CG| trace_G_prev   0.16605764299197451     
 PAO|CG| trace_G_mix   -1.6571032909468825E-003
 PAO|CG| trace_D   0.16605764299197451     
 PAO|CG| trace_D_Gnew   1.6571032909468825E-003
 PAO|CG| beta:   0.24659793825470880     
 PAO| norm of gradient:  0.19822302868816860     
 PAO| energy improvement:  -1.9412779970146232E-002
 PAO| step      9                   -7.702439119  0.124E-01  0.237E+00     0.055
 PAO|LS| adapt:  T F F
 PAO|LS| adapt: scan_steps:    0.0000000000000000        0.0000000000000000        0.0000000000000000     
 PAO|LS| adapt: energies:   -7.7024391190629151        0.0000000000000000        0.0000000000000000     
 PAO| ======================= Iteration:        10 =============================

     Lanczos converged:  T threshold:   0.100E-02
     Est. extremal eigenvalues:    0.295E+01   0.186E+00
     Est. condition number :    0.159E+02
     NS sqrt iter    1 1.00000000   0.750E+00       0.001       44.069
     NS sqrt iter    2 1.00000000   0.352E+00       0.001       99.288
     NS sqrt iter    3 1.00000000   0.828E-01       0.001      110.592
     NS sqrt iter    4 1.00000000   0.229E-02       0.001      110.592
     NS sqrt iter    5 1.00000000   0.910E-07       0.001       75.136
     Final NS sqrt iter    5 1.00000000   0.863E-09

     Est. extremal eigenvalues     -0.92757     1.64901  converged:  T
     TRS4 it   1 1.00000000   0.862E+00       0.000       16.128   0.100E-07
     TRS4 it   2 1.00000000   0.608E+00       0.001       32.256   0.100E-07
     TRS4 it   3 1.00000000   0.416E+00       0.001       32.256   0.100E-07
     TRS4 it   4 1.00000000   0.216E+00       0.001       32.256   0.100E-07
     TRS4 it   5 1.00000000   0.744E-01       0.001       32.256   0.100E-07
     TRS4 it   6 1.00000000   0.113E-01       0.001       32.256   0.100E-07
     TRS4 it   7 1.00000000   0.364E-03       0.001       32.256   0.100E-07
     TRS4 it   8 1.00000000   0.521E-06       0.001       32.256   0.100E-07
     TRS4 it   9 1.00000000   0.121E-11       0.001       32.256   0.100E-07
     Final TRS4 iteration    9 1.00000000   0.121E-11
     Chemical potential (mu):      -0.00645
 
 PAO| energy:  -7.7077586137522163      penalty:   1.3703163048608155E-005
 PAO|LS| adapt:  T T F
 PAO|LS| adapt: scan_steps:    0.0000000000000000       0.23710230099175242        0.0000000000000000     
 PAO|LS| adapt: energies:   -7.7024391190629151       -7.7077586137522163        0.0000000000000000     
 PAO| ======================= Iteration:        11 =============================

     Lanczos converged:  T threshold:   0.100E-02
     Est. extremal eigenvalues:    0.291E+01   0.192E+00
     Est. condition number :    0.152E+02
     NS sqrt iter    1 1.00000000   0.741E+00       0.001       64.512
     NS sqrt iter    2 1.00000000   0.342E+00       0.001      104.637
     NS sqrt iter    3 1.00000000   0.770E-01       0.002       72.668
     NS sqrt iter    4 1.00000000   0.185E-02       0.001       95.712
     NS sqrt iter    5 1.00000000   0.485E-07       0.001       69.888
     Final NS sqrt iter    5 1.00000000   0.339E-09

     Est. extremal eigenvalues     -0.92738     1.65017  converged:  T
     TRS4 it   1 1.00000000   0.862E+00       0.000       16.128   0.100E-07
     TRS4 it   2 1.00000000   0.608E+00       0.001       32.256   0.100E-07
     TRS4 it   3 1.00000000   0.415E+00       0.001       32.256   0.100E-07
     TRS4 it   4 1.00000000   0.214E+00       0.001       32.256   0.100E-07
     TRS4 it   5 1.00000000   0.725E-01       0.001       32.256   0.100E-07
     TRS4 it   6 1.00000000   0.107E-01       0.001       32.256   0.100E-07
     TRS4 it   7 1.00000000   0.319E-03       0.001       32.256   0.100E-07
     TRS4 it   8 1.00000000   0.393E-06       0.001       32.256   0.100E-07
     TRS4 it   9 1.00000000   0.681E-12       0.001       32.256   0.100E-07
     Final TRS4 iteration    9 1.00000000   0.681E-12
     Chemical potential (mu):      -0.00317
 
 PAO| energy:  -7.7055734250001775      penalty:   1.5180698818284947E-005
 PAO|LS| adapt:  T T T
 PAO|LS| adapt: scan_steps:    0.0000000000000000       0.23710230099175242       0.47420460198350484     
 PAO|LS| adapt: energies:   -7.7024391190629151       -7.7077586137522163       -7.7055734250001775     
 PAO|LS| adapt: suggested step_size:   0.28661479246096866     
 PAO|LS| adapt: predicted energy  -7.7079222428010823     
 PAO| ======================= Iteration:        12 =============================

     Lanczos converged:  T threshold:   0.100E-02
     Est. extremal eigenvalues:    0.294E+01   0.187E+00
     Est. condition number :    0.157E+02
     NS sqrt iter    1 1.00000000   0.748E+00       0.001       64.512
     NS sqrt iter    2 1.00000000   0.350E+00       0.001      104.152
     NS sqrt iter    3 1.00000000   0.816E-01       0.001       92.007
     NS sqrt iter    4 1.00000000   0.220E-02       0.001      110.592
     NS sqrt iter    5 1.00000000   0.799E-07       0.001       59.912
     Final NS sqrt iter    5 1.00000000   0.765E-09

     Est. extremal eigenvalues     -0.92762     1.64915  converged:  T
     TRS4 it   1 1.00000000   0.862E+00       0.000       16.128   0.100E-07
     TRS4 it   2 1.00000000   0.608E+00       0.001       32.256   0.100E-07
     TRS4 it   3 1.00000000   0.416E+00       0.001       32.256   0.100E-07
     TRS4 it   4 1.00000000   0.216E+00       0.001       32.256   0.100E-07
     TRS4 it   5 1.00000000   0.740E-01       0.001       32.256   0.100E-07
     TRS4 it   6 1.00000000   0.112E-01       0.001       32.256   0.100E-07
     TRS4 it   7 1.00000000   0.354E-03       0.001       32.256   0.100E-07
     TRS4 it   8 1.00000000   0.491E-06       0.001       32.256   0.100E-07
     TRS4 it   9 1.00000000   0.107E-11       0.001       32.256   0.100E-07
     Final TRS4 iteration    9 1.00000000   0.107E-11
     Chemical potential (mu):      -0.00577
 
 PAO| energy:  -7.7079071446429896      penalty:   1.3936342983286732E-005
 PAO|CG| trace_G_new    1.4769202653342106E-002
 PAO|CG| trace_G_prev    3.9292369102310522E-002
 PAO|CG| trace_G_mix   -6.0225542351392673E-004
 PAO|CG| trace_D    4.8573148057060721E-002
 PAO|CG| trace_D_Gnew   2.7819351192587532E-004
 PAO|CG| beta:   0.39120720964499289     
 PAO| norm of gradient:  0.12152860837408658     
 PAO| energy improvement:  -5.4680255800745314E-003
 PAO| step     12                   -7.707907145  0.760E-02  0.287E+00     0.054
 PAO|LS| adapt:  T F F
 PAO|LS| adapt: scan_steps:    0.0000000000000000        0.0000000000000000        0.0000000000000000     
 PAO|LS| adapt: energies:   -7.7079071446429896        0.0000000000000000        0.0000000000000000     
 PAO| ======================= Iteration:        13 =============================

     Lanczos converged:  T threshold:   0.100E-02
     Est. extremal eigenvalues:    0.290E+01   0.192E+00
     Est. condition number :    0.151E+02
     NS sqrt iter    1 1.00000000   0.740E+00       0.001       64.512
     NS sqrt iter    2 1.00000000   0.341E+00       0.001      110.592
     NS sqrt iter    3 1.00000000   0.766E-01       0.001      110.592
     NS sqrt iter    4 1.00000000   0.183E-02       0.001      100.399
     NS sqrt iter    5 1.00000000   0.460E-07       0.001       67.584
     Final NS sqrt iter    5 1.00000000   0.330E-08

     Est. extremal eigenvalues     -0.92821     1.64230  converged:  T
     TRS4 it   1 1.00000000   0.861E+00       0.000       16.128   0.100E-07
     TRS4 it   2 1.00000000   0.604E+00       0.001       32.256   0.100E-07
     TRS4 it   3 1.00000000   0.411E+00       0.001       32.256   0.100E-07
     TRS4 it   4 1.00000000   0.210E+00       0.001       32.256   0.100E-07
     TRS4 it   5 1.00000000   0.698E-01       0.001       32.256   0.100E-07
     TRS4 it   6 1.00000000   0.990E-02       0.001       32.256   0.100E-07
     TRS4 it   7 1.00000000   0.274E-03       0.001       32.256   0.100E-07
     TRS4 it   8 1.00000000   0.289E-06       0.001       32.256   0.100E-07
     TRS4 it   9 1.00000000   0.369E-12       0.001       32.256   0.100E-07
     Final TRS4 iteration    9 1.00000000   0.369E-12
     Chemical potential (mu):      -0.00092
 
 PAO| energy:  -7.7104988253234747      penalty:   1.4459020709190314E-005
 PAO|LS| adapt:  T T F
 PAO|LS| adapt: scan_steps:    0.0000000000000000       0.28661479246096866        0.0000000000000000     
 PAO|LS| adapt: energies:   -7.7079071446429896       -7.7104988253234747        0.0000000000000000     
 PAO| ======================= Iteration:        14 =============================

     Lanczos converged:  T threshold:   0.100E-02
     Est. extremal eigenvalues:    0.286E+01   0.197E+00
     Est. condition number :    0.145E+02
     NS sqrt iter    1 1.00000000   0.731E+00       0.001       54.756
     NS sqrt iter    2 1.00000000   0.333E+00       0.001      110.592
     NS sqrt iter    3 1.00000000   0.720E-01       0.001      110.592
     NS sqrt iter    4 1.00000000   0.152E-02       0.001      110.592
     NS sqrt iter    5 1.00000000   0.265E-07       0.001       57.984
     Final NS sqrt iter    5 1.00000000   0.367E-08

     Est. extremal eigenvalues     -0.92821     1.63609  converged:  T
     TRS4 it   1 1.00000000   0.861E+00       0.000       16.128   0.100E-07
     TRS4 it   2 1.00000000   0.601E+00       0.001       32.256   0.100E-07
     TRS4 it   3 1.00000000   0.406E+00       0.001       32.256   0.100E-07
     TRS4 it   4 1.00000000   0.205E+00       0.001       32.256   0.100E-07
     TRS4 it   5 1.00000000   0.659E-01       0.001       32.256   0.100E-07
     TRS4 it   6 1.00000000   0.877E-02       0.001       32.256   0.100E-07
     TRS4 it   7 1.00000000   0.212E-03       0.001       32.256   0.100E-07
     TRS4 it   8 1.00000000   0.170E-06       0.001       32.256   0.100E-07
     TRS4 it   9 1.00000000   0.127E-12       0.001       32.256   0.100E-07
     Final TRS4 iteration    9 1.00000000   0.127E-12
     Chemical potential (mu):       0.00381
 
 PAO| energy:  -7.7099265997516913      penalty:   1.5606279068538629E-005
 PAO|LS| adapt:  T T T
 PAO|LS| adapt: scan_steps:    0.0000000000000000       0.28661479246096866       0.57322958492193732     
 PAO|LS| adapt: energies:   -7.7079071446429896       -7.7104988253234747       -7.7099265997516913     
 PAO|LS| adapt: suggested step_size:   0.37808490262142902     
 PAO|LS| adapt: predicted energy  -7.7106599473120427     
 PAO| ======================= Iteration:        15 =============================

     Lanczos converged:  T threshold:   0.100E-02
     Est. extremal eigenvalues:    0.289E+01   0.194E+00
     Est. condition number :    0.149E+02
     NS sqrt iter    1 1.00000000   0.737E+00       0.001       64.512
     NS sqrt iter    2 1.00000000   0.339E+00       0.001      110.592
     NS sqrt iter    3 1.00000000   0.751E-01       0.001      110.592
     NS sqrt iter    4 1.00000000   0.172E-02       0.001      110.592
     NS sqrt iter    5 1.00000000   0.385E-07       0.001       64.256
     Final NS sqrt iter    5 1.00000000   0.210E-08

     Est. extremal eigenvalues     -0.92827     1.64025  converged:  T
     TRS4 it   1 1.00000000   0.861E+00       0.000       16.128   0.100E-07
     TRS4 it   2 1.00000000   0.603E+00       0.001       32.256   0.100E-07
     TRS4 it   3 1.00000000   0.409E+00       0.001       32.256   0.100E-07
     TRS4 it   4 1.00000000   0.208E+00       0.001       32.256   0.100E-07
     TRS4 it   5 1.00000000   0.685E-01       0.001       32.256   0.100E-07
     TRS4 it   6 1.00000000   0.953E-02       0.001       32.256   0.100E-07
     TRS4 it   7 1.00000000   0.252E-03       0.001       32.256   0.100E-07
     TRS4 it   8 1.00000000   0.244E-06       0.001       32.256   0.100E-07
     TRS4 it   9 1.00000000   0.262E-12       0.001       31.917   0.100E-07
     Final TRS4 iteration    9 1.00000000   0.262E-12
     Chemical potential (mu):       0.00060
 
 PAO| energy:  -7.7106558601513164      penalty:   1.4751631815777095E-005
 PAO|CG| trace_G_new    3.2307657674885849E-003
 PAO|CG| trace_G_prev    1.4769202653342106E-002
 PAO|CG| trace_G_mix    1.1428564746436678E-004
 PAO|CG| trace_D    2.1985324264864943E-002
 PAO|CG| trace_D_Gnew   3.4680820780898854E-005
 PAO|CG| beta:   0.21101207649276810     
 PAO| norm of gradient:   5.6839825540624112E-002
 PAO| energy improvement:  -2.7487155083267822E-003
 PAO| step     15                   -7.710655860  0.355E-02  0.378E+00     0.055
 PAO|LS| adapt:  T F F
 PAO|LS| adapt: scan_steps:    0.0000000000000000        0.0000000000000000        0.0000000000000000     
 PAO|LS| adapt: energies:   -7.7106558601513164        0.0000000000000000        0.0000000000000000     
 PAO| ======================= Iteration:        16 =============================

     Lanczos converged:  T threshold:   0.100E-02
     Est. extremal eigenvalues:    0.288E+01   0.195E+00
     Est. condition number :    0.148E+02
     NS sqrt iter    1 1.00000000   0.735E+00       0.001       64.512
     NS sqrt iter    2 1.00000000   0.337E+00       0.001      110.445
     NS sqrt iter    3 1.00000000   0.745E-01       0.001      109.135
     NS sqrt iter    4 1.00000000   0.167E-02       0.001      110.592
     NS sqrt iter    5 1.00000000   0.349E-07       0.001       63.744
     Final NS sqrt iter    5 1.00000000   0.410E-09

     Est. extremal eigenvalues     -0.92829     1.64029  converged:  T
     TRS4 it   1 1.00000000   0.862E+00       0.000       16.128   0.100E-07
     TRS4 it   2 1.00000000   0.603E+00       0.001       23.046   0.100E-07
     TRS4 it   3 1.00000000   0.408E+00       0.001       32.256   0.100E-07
     TRS4 it   4 1.00000000   0.207E+00       0.001       32.256   0.100E-07
     TRS4 it   5 1.00000000   0.673E-01       0.001       32.256   0.100E-07
     TRS4 it   6 1.00000000   0.922E-02       0.001       32.256   0.100E-07
     TRS4 it   7 1.00000000   0.238E-03       0.001       32.256   0.100E-07
     TRS4 it   8 1.00000000   0.219E-06       0.001       32.256   0.100E-07
     TRS4 it   9 1.00000000   0.213E-12       0.001       32.256   0.100E-07
     Final TRS4 iteration    9 1.00000000   0.213E-12
     Chemical potential (mu):       0.00136
 
 PAO| energy:  -7.7107933940751714      penalty:   1.4656888352018710E-005
 PAO|LS| adapt:  T T F
 PAO|LS| adapt: scan_steps:    0.0000000000000000       0.37808490262142902        0.0000000000000000     
 PAO|LS| adapt: energies:   -7.7106558601513164       -7.7107933940751714        0.0000000000000000     
 PAO| ======================= Iteration:        17 =============================

     Lanczos converged:  T threshold:   0.100E-02
     Est. extremal eigenvalues:    0.287E+01   0.195E+00
     Est. condition number :    0.147E+02
     NS sqrt iter    1 1.00000000   0.732E+00       0.001       64.512
     NS sqrt iter    2 1.00000000   0.336E+00       0.001      110.592
     NS sqrt iter    3 1.00000000   0.738E-01       0.001      110.592
     NS sqrt iter    4 1.00000000   0.162E-02       0.001      110.592
     NS sqrt iter    5 1.00000000   0.317E-07       0.001       62.848
     Final NS sqrt iter    5 1.00000000   0.797E-09

     Est. extremal eigenvalues     -0.92822     1.64045  converged:  T
     TRS4 it   1 1.00000000   0.862E+00       0.001       16.128   0.100E-07
     TRS4 it   2 1.00000000   0.602E+00       0.001       26.164   0.100E-07
     TRS4 it   3 1.00000000   0.407E+00       0.001       32.256   0.100E-07
     TRS4 it   4 1.00000000   0.205E+00       0.001       32.256   0.100E-07
     TRS4 it   5 1.00000000   0.662E-01       0.001       32.256   0.100E-07
     TRS4 it   6 1.00000000   0.893E-02       0.001       32.256   0.100E-07
     TRS4 it   7 1.00000000   0.225E-03       0.001       32.256   0.100E-07
     TRS4 it   8 1.00000000   0.198E-06       0.001       32.256   0.100E-07
     TRS4 it   9 1.00000000   0.175E-12       0.001       32.256   0.100E-07
     Final TRS4 iteration    9 1.00000000   0.175E-12
     Chemical potential (mu):       0.00212
 
 PAO| energy:  -7.7087570055906562      penalty:   1.4720290363654388E-005
 PAO|LS| adapt:  T T T
 PAO|LS| adapt: scan_steps:    0.0000000000000000       0.37808490262142902       0.75616980524285804     
 PAO|LS| adapt: energies:   -7.7106558601513164       -7.7107933940751714       -7.7087570055906562     
 PAO|LS| adapt: suggested step_size:   0.21296211836397977     
 PAO|LS| adapt: predicted energy  -7.7110007179789983     
 PAO| ======================= Iteration:        18 =============================

     Lanczos converged:  T threshold:   0.100E-02
     Est. extremal eigenvalues:    0.288E+01   0.194E+00
     Est. condition number :    0.148E+02
     NS sqrt iter    1 1.00000000   0.736E+00       0.001       46.844
     NS sqrt iter    2 1.00000000   0.338E+00       0.001      110.574
     NS sqrt iter    3 1.00000000   0.748E-01       0.001      110.592
     NS sqrt iter    4 1.00000000   0.169E-02       0.001      110.592
     NS sqrt iter    5 1.00000000   0.364E-07       0.001       63.872
     Final NS sqrt iter    5 1.00000000   0.420E-09

     Est. extremal eigenvalues     -0.92829     1.64026  converged:  T
     TRS4 it   1 1.00000000   0.861E+00       0.001       16.128   0.100E-07
     TRS4 it   2 1.00000000   0.603E+00       0.001       32.256   0.100E-07
     TRS4 it   3 1.00000000   0.408E+00       0.001       32.256   0.100E-07
     TRS4 it   4 1.00000000   0.207E+00       0.001       32.256   0.100E-07
     TRS4 it   5 1.00000000   0.678E-01       0.001       32.256   0.100E-07
     TRS4 it   6 1.00000000   0.935E-02       0.001       32.256   0.100E-07
     TRS4 it   7 1.00000000   0.244E-03       0.001       32.256   0.100E-07
     TRS4 it   8 1.00000000   0.229E-06       0.001       32.256   0.100E-07
     TRS4 it   9 1.00000000   0.233E-12       0.001       32.256   0.100E-07
     Final TRS4 iteration    9 1.00000000   0.233E-12
     Chemical potential (mu):       0.00103
 
 PAO| energy:  -7.7109997372802441      penalty:   1.4679309355003909E-005
 PAO|CG| trace_G_new    9.0960853020229679E-004
 PAO|CG| trace_G_prev    3.2307657674885849E-003
 PAO|CG| trace_G_mix    2.2487807082768001E-006
 PAO|CG| trace_D    4.1950502916433168E-003
 PAO|CG| trace_D_Gnew  -3.3100361638553039E-006
 PAO|CG| beta:   0.28084974733384965     
 PAO| norm of gradient:   3.0159717011309907E-002
 PAO| energy improvement:  -3.4387712892769429E-004
 PAO| step     18                   -7.710999737  0.188E-02  0.213E+00     0.056
 PAO|LS| adapt:  T F F
 PAO|LS| adapt: scan_steps:    0.0000000000000000        0.0000000000000000        0.0000000000000000     
 PAO|LS| adapt: energies:   -7.7109997372802441        0.0000000000000000        0.0000000000000000     
 PAO| ======================= Iteration:        19 =============================

     Lanczos converged:  T threshold:   0.100E-02
     Est. extremal eigenvalues:    0.288E+01   0.194E+00
     Est. condition number :    0.149E+02
     NS sqrt iter    1 1.00000000   0.736E+00       0.001       48.971
     NS sqrt iter    2 1.00000000   0.338E+00       0.001       97.917
     NS sqrt iter    3 1.00000000   0.750E-01       0.001      110.592
     NS sqrt iter    4 1.00000000   0.170E-02       0.001      110.592
     NS sqrt iter    5 1.00000000   0.367E-07       0.001       63.872
     Final NS sqrt iter    5 1.00000000   0.428E-09

     Est. extremal eigenvalues     -0.92829     1.64031  converged:  T
     TRS4 it   1 1.00000000   0.861E+00       0.000       16.128   0.100E-07
     TRS4 it   2 1.00000000   0.603E+00       0.001       32.256   0.100E-07
     TRS4 it   3 1.00000000   0.408E+00       0.001       32.256   0.100E-07
     TRS4 it   4 1.00000000   0.207E+00       0.001       32.256   0.100E-07
     TRS4 it   5 1.00000000   0.677E-01       0.001       32.256   0.100E-07
     TRS4 it   6 1.00000000   0.934E-02       0.001       32.256   0.100E-07
     TRS4 it   7 1.00000000   0.245E-03       0.001       32.256   0.100E-07
     TRS4 it   8 1.00000000   0.233E-06       0.001       32.256   0.100E-07
     TRS4 it   9 1.00000000   0.241E-12       0.001       32.256   0.100E-07
     Final TRS4 iteration    9 1.00000000   0.241E-12
     Chemical potential (mu):       0.00071
 
 PAO| energy:  -7.7111478919946839      penalty:   1.4417580603395705E-005
 PAO|LS| adapt:  T T F
 PAO|LS| adapt: scan_steps:    0.0000000000000000       0.21296211836397977        0.0000000000000000     
 PAO|LS| adapt: energies:   -7.7109997372802441       -7.7111478919946839        0.0000000000000000     
 PAO| ======================= Iteration:        20 =============================

     Lanczos converged:  T threshold:   0.100E-02
     Est. extremal eigenvalues:    0.288E+01   0.194E+00
     Est. condition number :    0.149E+02
     NS sqrt iter    1 1.00000000   0.735E+00       0.001       64.512
     NS sqrt iter    2 1.00000000   0.339E+00       0.001      110.592
     NS sqrt iter    3 1.00000000   0.753E-01       0.001      109.125
     NS sqrt iter    4 1.00000000   0.171E-02       0.002       58.600
     NS sqrt iter    5 1.00000000   0.371E-07       0.002       35.764
     Final NS sqrt iter    5 1.00000000   0.211E-08

     Est. extremal eigenvalues     -0.92829     1.64037  converged:  T
     TRS4 it   1 1.00000000   0.861E+00       0.000       16.128   0.100E-07
     TRS4 it   2 1.00000000   0.603E+00       0.001       32.256   0.100E-07
     TRS4 it   3 1.00000000   0.408E+00       0.001       32.256   0.100E-07
     TRS4 it   4 1.00000000   0.207E+00       0.001       32.256   0.100E-07
     TRS4 it   5 1.00000000   0.676E-01       0.001       32.256   0.100E-07
     TRS4 it   6 1.00000000   0.933E-02       0.001       32.256   0.100E-07
     TRS4 it   7 1.00000000   0.246E-03       0.001       32.256   0.100E-07
     TRS4 it   8 1.00000000   0.237E-06       0.001       32.256   0.100E-07
     TRS4 it   9 1.00000000   0.249E-12       0.001       32.256   0.100E-07
     Final TRS4 iteration    9 1.00000000   0.249E-12
     Chemical potential (mu):       0.00039
 
 PAO| energy:  -7.7112038345390932      penalty:   1.4169408917187186E-005
 PAO|LS| adapt:  T T F
 PAO|LS| adapt: scan_steps:    0.0000000000000000       0.42592423672795954        0.0000000000000000     
 PAO|LS| adapt: energies:   -7.7109997372802441       -7.7112038345390932        0.0000000000000000     
 PAO| ======================= Iteration:        21 =============================

     Lanczos converged:  T threshold:   0.100E-02
     Est. extremal eigenvalues:    0.288E+01   0.194E+00
     Est. condition number :    0.149E+02
     NS sqrt iter    1 1.00000000   0.735E+00       0.001       46.909
     NS sqrt iter    2 1.00000000   0.339E+00       0.001       97.267
     NS sqrt iter    3 1.00000000   0.758E-01       0.001      110.592
     NS sqrt iter    4 1.00000000   0.174E-02       0.001      110.592
     NS sqrt iter    5 1.00000000   0.378E-07       0.001       64.128
     Final NS sqrt iter    5 1.00000000   0.309E-08

     Est. extremal eigenvalues     -0.92828     1.64051  converged:  T
     TRS4 it   1 1.00000000   0.861E+00       0.000       16.128   0.100E-07
     TRS4 it   2 1.00000000   0.602E+00       0.001       32.256   0.100E-07
     TRS4 it   3 1.00000000   0.408E+00       0.001       32.256   0.100E-07
     TRS4 it   4 1.00000000   0.206E+00       0.001       32.256   0.100E-07
     TRS4 it   5 1.00000000   0.673E-01       0.001       32.256   0.100E-07
     TRS4 it   6 1.00000000   0.932E-02       0.001       32.256   0.100E-07
     TRS4 it   7 1.00000000   0.249E-03       0.001       32.256   0.100E-07
     TRS4 it   8 1.00000000   0.245E-06       0.001       32.256   0.100E-07
     TRS4 it   9 1.00000000   0.267E-12       0.001       32.256   0.100E-07
     Final TRS4 iteration    9 1.00000000   0.267E-12
     Chemical potential (mu):      -0.00026
 
 PAO| energy:  -7.7110348633732704      penalty:   1.3713465087205600E-005
 PAO|LS| Need extra step
 PAO|LS| adapt:  T T T
 PAO|LS| adapt: scan_steps:    0.0000000000000000       0.42592423672795954       0.85184847345591908     
 PAO|LS| adapt: energies:   -7.7109997372802441       -7.7112038345390932       -7.7110348633732704     
 PAO|LS| adapt: suggested step_size:   0.44597559108017926     
 PAO|LS| adapt: predicted energy  -7.7112042479493184     
 PAO| ======================= Iteration:        22 =============================

     Lanczos converged:  T threshold:   0.100E-02
     Est. extremal eigenvalues:    0.288E+01   0.194E+00
     Est. condition number :    0.149E+02
     NS sqrt iter    1 1.00000000   0.735E+00       0.001       64.512
     NS sqrt iter    2 1.00000000   0.339E+00       0.001       92.288
     NS sqrt iter    3 1.00000000   0.753E-01       0.002       68.681
     NS sqrt iter    4 1.00000000   0.171E-02       0.001      110.592
     NS sqrt iter    5 1.00000000   0.371E-07       0.001       63.872
     Final NS sqrt iter    5 1.00000000   0.212E-08

     Est. extremal eigenvalues     -0.92829     1.64038  converged:  T
     TRS4 it   1 1.00000000   0.861E+00       0.000       16.128   0.100E-07
     TRS4 it   2 1.00000000   0.603E+00       0.001       32.256   0.100E-07
     TRS4 it   3 1.00000000   0.408E+00       0.001       32.256   0.100E-07
     TRS4 it   4 1.00000000   0.207E+00       0.001       32.256   0.100E-07
     TRS4 it   5 1.00000000   0.676E-01       0.001       32.256   0.100E-07
     TRS4 it   6 1.00000000   0.933E-02       0.001       32.256   0.100E-07
     TRS4 it   7 1.00000000   0.246E-03       0.001       32.256   0.100E-07
     TRS4 it   8 1.00000000   0.237E-06       0.001       32.256   0.100E-07
     TRS4 it   9 1.00000000   0.250E-12       0.001       32.256   0.100E-07
     Final TRS4 iteration    9 1.00000000   0.250E-12
     Chemical potential (mu):       0.00036
 
 PAO| energy:  -7.7112043140515665      penalty:   1.4146736219401462E-005
 PAO|CG| trace_G_new    2.4764292092300041E-004
 PAO|CG| trace_G_prev    9.0960853020229679E-004
 PAO|CG| trace_G_mix    6.4716358180734057E-006
 PAO|CG| trace_D    1.2423589981982806E-003
 PAO|CG| trace_D_Gnew  -3.2826959020706532E-006
 PAO|CG| beta:   0.26513744880040929     
 PAO| norm of gradient:   1.5736674392100782E-002
 PAO| energy improvement:  -2.0457677132235119E-004
 PAO| step     22                   -7.711204314  0.984E-03  0.446E+00     0.071
 PAO|LS| adapt:  T F F
 PAO|LS| adapt: scan_steps:    0.0000000000000000        0.0000000000000000        0.0000000000000000     
 PAO|LS| adapt: energies:   -7.7112043140515665        0.0000000000000000        0.0000000000000000     
 PAO| ======================= Iteration:        23 =============================

     Lanczos converged:  T threshold:   0.100E-02
     Est. extremal eigenvalues:    0.288E+01   0.194E+00
     Est. condition number :    0.149E+02
     NS sqrt iter    1 1.00000000   0.735E+00       0.001       58.971
     NS sqrt iter    2 1.00000000   0.338E+00       0.001      110.086
     NS sqrt iter    3 1.00000000   0.753E-01       0.001      110.592
     NS sqrt iter    4 1.00000000   0.171E-02       0.001      110.592
     NS sqrt iter    5 1.00000000   0.371E-07       0.001       63.872
     Final NS sqrt iter    5 1.00000000   0.213E-08

     Est. extremal eigenvalues     -0.92829     1.64074  converged:  T
     TRS4 it   1 1.00000000   0.862E+00       0.000       16.128   0.100E-07
     TRS4 it   2 1.00000000   0.603E+00       0.001       32.256   0.100E-07
     TRS4 it   3 1.00000000   0.408E+00       0.001       32.256   0.100E-07
     TRS4 it   4 1.00000000   0.207E+00       0.001       32.256   0.100E-07
     TRS4 it   5 1.00000000   0.677E-01       0.001       32.256   0.100E-07
     TRS4 it   6 1.00000000   0.939E-02       0.001       32.256   0.100E-07
     TRS4 it   7 1.00000000   0.250E-03       0.001       32.256   0.100E-07
     TRS4 it   8 1.00000000   0.244E-06       0.001       30.675   0.100E-07
     TRS4 it   9 1.00000000   0.264E-12       0.001       32.256   0.100E-07
     Final TRS4 iteration    9 1.00000000   0.264E-12
     Chemical potential (mu):       0.00012
 
 PAO| energy:  -7.7112470734643006      penalty:   1.3512093271585392E-005
 PAO|LS| adapt:  T T F
 PAO|LS| adapt: scan_steps:    0.0000000000000000       0.44597559108017926        0.0000000000000000     
 PAO|LS| adapt: energies:   -7.7112043140515665       -7.7112470734643006        0.0000000000000000     
 PAO| ======================= Iteration:        24 =============================

     Lanczos converged:  T threshold:   0.100E-02
     Est. extremal eigenvalues:    0.288E+01   0.194E+00
     Est. condition number :    0.149E+02
     NS sqrt iter    1 1.00000000   0.735E+00       0.001       64.512
     NS sqrt iter    2 1.00000000   0.338E+00       0.001      110.592
     NS sqrt iter    3 1.00000000   0.753E-01       0.001      110.592
     NS sqrt iter    4 1.00000000   0.171E-02       0.001      110.592
     NS sqrt iter    5 1.00000000   0.370E-07       0.001       64.000
     Final NS sqrt iter    5 1.00000000   0.213E-08

     Est. extremal eigenvalues     -0.92828     1.64110  converged:  T
     TRS4 it   1 1.00000000   0.862E+00       0.000       16.128   0.100E-07
     TRS4 it   2 1.00000000   0.603E+00       0.001       32.256   0.100E-07
     TRS4 it   3 1.00000000   0.408E+00       0.001       32.256   0.100E-07
     TRS4 it   4 1.00000000   0.207E+00       0.001       32.256   0.100E-07
     TRS4 it   5 1.00000000   0.679E-01       0.001       32.256   0.100E-07
     TRS4 it   6 1.00000000   0.944E-02       0.001       32.256   0.100E-07
     TRS4 it   7 1.00000000   0.253E-03       0.001       32.256   0.100E-07
     TRS4 it   8 1.00000000   0.250E-06       0.001       32.256   0.100E-07
     TRS4 it   9 1.00000000   0.279E-12       0.001       32.256   0.100E-07
     Final TRS4 iteration    9 1.00000000   0.279E-12
     Chemical potential (mu):      -0.00011
 
 PAO| energy:  -7.7111529235848550      penalty:   1.2903679236666141E-005
 PAO|LS| adapt:  T T T
 PAO|LS| adapt: scan_steps:    0.0000000000000000       0.44597559108017926       0.89195118216035851     
 PAO|LS| adapt: energies:   -7.7112043140515665       -7.7112470734643006       -7.7111529235848550     
 PAO|LS| adapt: suggested step_size:   0.36227457487217424     
 PAO|LS| adapt: predicted energy  -7.7112494847141377     
 PAO| ======================= Iteration:        25 =============================

     Lanczos converged:  T threshold:   0.100E-02
     Est. extremal eigenvalues:    0.288E+01   0.194E+00
     Est. condition number :    0.149E+02
     NS sqrt iter    1 1.00000000   0.735E+00       0.001       44.291
     NS sqrt iter    2 1.00000000   0.338E+00       0.001      105.704
     NS sqrt iter    3 1.00000000   0.753E-01       0.001      110.592
     NS sqrt iter    4 1.00000000   0.171E-02       0.001      110.592
     NS sqrt iter    5 1.00000000   0.371E-07       0.001       63.872
     Final NS sqrt iter    5 1.00000000   0.212E-08

     Est. extremal eigenvalues     -0.92829     1.64067  converged:  T
     TRS4 it   1 1.00000000   0.862E+00       0.000       16.128   0.100E-07
     TRS4 it   2 1.00000000   0.603E+00       0.001       32.256   0.100E-07
     TRS4 it   3 1.00000000   0.408E+00       0.001       32.256   0.100E-07
     TRS4 it   4 1.00000000   0.207E+00       0.001       32.256   0.100E-07
     TRS4 it   5 1.00000000   0.677E-01       0.001       32.256   0.100E-07
     TRS4 it   6 1.00000000   0.938E-02       0.001       32.256   0.100E-07
     TRS4 it   7 1.00000000   0.249E-03       0.001       32.256   0.100E-07
     TRS4 it   8 1.00000000   0.242E-06       0.001       32.256   0.100E-07
     TRS4 it   9 1.00000000   0.262E-12       0.001       32.256   0.100E-07
     Final TRS4 iteration    9 1.00000000   0.262E-12
     Chemical potential (mu):       0.00017
 
 PAO| energy:  -7.7112494500610174      penalty:   1.3629189104662860E-005
 PAO|CG| trace_G_new    8.3543840998018983E-005
 PAO|CG| trace_G_prev    2.4764292092300041E-004
 PAO|CG| trace_G_mix    2.6834088644334119E-007
 PAO|CG| trace_D    3.3671883947527007E-004
 PAO|CG| trace_D_Gnew  -3.8421010282536592E-007
 PAO|CG| beta:   0.33627248378914282     
 PAO| norm of gradient:   9.1402319991354137E-003
 PAO| energy improvement:  -4.5136009450885695E-005
 PAO| step     25                   -7.711249450  0.571E-03  0.362E+00     0.054
 PAO|LS| adapt:  T F F
 PAO|LS| adapt: scan_steps:    0.0000000000000000        0.0000000000000000        0.0000000000000000     
 PAO|LS| adapt: energies:   -7.7112494500610174        0.0000000000000000        0.0000000000000000     
 PAO| ======================= Iteration:        26 =============================

     Lanczos converged:  T threshold:   0.100E-02
     Est. extremal eigenvalues:    0.288E+01   0.194E+00
     Est. condition number :    0.149E+02
     NS sqrt iter    1 1.00000000   0.735E+00       0.001       64.512
     NS sqrt iter    2 1.00000000   0.338E+00       0.001       96.732
     NS sqrt iter    3 1.00000000   0.752E-01       0.001      104.986
     NS sqrt iter    4 1.00000000   0.171E-02       0.001      110.592
     NS sqrt iter    5 1.00000000   0.369E-07       0.001       63.872
     Final NS sqrt iter    5 1.00000000   0.435E-09

     Est. extremal eigenvalues     -0.92829     1.64072  converged:  T
     TRS4 it   1 1.00000000   0.862E+00       0.000       16.128   0.100E-07
     TRS4 it   2 1.00000000   0.603E+00       0.001       32.256   0.100E-07
     TRS4 it   3 1.00000000   0.408E+00       0.001       31.938   0.100E-07
     TRS4 it   4 1.00000000   0.207E+00       0.001       32.256   0.100E-07
     TRS4 it   5 1.00000000   0.677E-01       0.001       31.354   0.100E-07
     TRS4 it   6 1.00000000   0.937E-02       0.001       32.256   0.100E-07
     TRS4 it   7 1.00000000   0.248E-03       0.001       32.256   0.100E-07
     TRS4 it   8 1.00000000   0.240E-06       0.001       32.256   0.100E-07
     TRS4 it   9 1.00000000   0.257E-12       0.001       32.256   0.100E-07
     Final TRS4 iteration    9 1.00000000   0.257E-12
     Chemical potential (mu):       0.00028
 
 PAO| energy:  -7.7112598219264781      penalty:   1.3062902923087387E-005
 PAO|LS| adapt:  T T F
 PAO|LS| adapt: scan_steps:    0.0000000000000000       0.36227457487217424        0.0000000000000000     
 PAO|LS| adapt: energies:   -7.7112494500610174       -7.7112598219264781        0.0000000000000000     
 PAO| ======================= Iteration:        27 =============================

     Lanczos converged:  T threshold:   0.100E-02
     Est. extremal eigenvalues:    0.288E+01   0.194E+00
     Est. condition number :    0.148E+02
     NS sqrt iter    1 1.00000000   0.735E+00       0.001       64.512
     NS sqrt iter    2 1.00000000   0.338E+00       0.001      110.592
     NS sqrt iter    3 1.00000000   0.751E-01       0.001      110.592
     NS sqrt iter    4 1.00000000   0.170E-02       0.001      110.592
     NS sqrt iter    5 1.00000000   0.367E-07       0.001       63.872
     Final NS sqrt iter    5 1.00000000   0.430E-09

     Est. extremal eigenvalues     -0.92829     1.64076  converged:  T
     TRS4 it   1 1.00000000   0.862E+00       0.000       16.128   0.100E-07
     TRS4 it   2 1.00000000   0.603E+00       0.001       32.256   0.100E-07
     TRS4 it   3 1.00000000   0.408E+00       0.001       32.256   0.100E-07
     TRS4 it   4 1.00000000   0.207E+00       0.001       32.256   0.100E-07
     TRS4 it   5 1.00000000   0.676E-01       0.001       32.256   0.100E-07
     TRS4 it   6 1.00000000   0.936E-02       0.001       32.256   0.100E-07
     TRS4 it   7 1.00000000   0.247E-03       0.001       32.256   0.100E-07
     TRS4 it   8 1.00000000   0.238E-06       0.001       32.256   0.100E-07
     TRS4 it   9 1.00000000   0.253E-12       0.001       32.256   0.100E-07
     Final TRS4 iteration    9 1.00000000   0.253E-12
     Chemical potential (mu):       0.00040
 
 PAO| energy:  -7.7112302465090439      penalty:   1.2511270790117435E-005
 PAO|LS| adapt:  T T T
 PAO|LS| adapt: scan_steps:    0.0000000000000000       0.36227457487217424       0.72454914974434848     
 PAO|LS| adapt: energies:   -7.7112494500610174       -7.7112598219264781       -7.7112302465090439     
 PAO|LS| adapt: suggested step_size:   0.27519783118559032     
 PAO|LS| adapt: predicted energy  -7.7112609758735742     
 PAO| ======================= Iteration:        28 =============================

     Lanczos converged:  T threshold:   0.100E-02
     Est. extremal eigenvalues:    0.288E+01   0.194E+00
     Est. condition number :    0.149E+02
     NS sqrt iter    1 1.00000000   0.735E+00       0.001       64.512
     NS sqrt iter    2 1.00000000   0.338E+00       0.001      110.592
     NS sqrt iter    3 1.00000000   0.752E-01       0.001      109.783
     NS sqrt iter    4 1.00000000   0.171E-02       0.001      109.495
     NS sqrt iter    5 1.00000000   0.369E-07       0.001       63.872
     Final NS sqrt iter    5 1.00000000   0.436E-09

     Est. extremal eigenvalues     -0.92829     1.64071  converged:  T
     TRS4 it   1 1.00000000   0.862E+00       0.000       16.128   0.100E-07
     TRS4 it   2 1.00000000   0.603E+00       0.001       32.256   0.100E-07
     TRS4 it   3 1.00000000   0.408E+00       0.001       32.256   0.100E-07
     TRS4 it   4 1.00000000   0.207E+00       0.001       30.896   0.100E-07
     TRS4 it   5 1.00000000   0.677E-01       0.001       32.256   0.100E-07
     TRS4 it   6 1.00000000   0.937E-02       0.001       32.256   0.100E-07
     TRS4 it   7 1.00000000   0.248E-03       0.001       32.256   0.100E-07
     TRS4 it   8 1.00000000   0.241E-06       0.001       32.256   0.100E-07
     TRS4 it   9 1.00000000   0.257E-12       0.001       32.256   0.100E-07
     Final TRS4 iteration    9 1.00000000   0.257E-12
     Chemical potential (mu):       0.00025
 
 PAO| energy:  -7.7112609721440908      penalty:   1.3197672524101240E-005
 PAO|CG| trace_G_new    3.2614434950503853E-005
 PAO|CG| trace_G_prev    8.3543840998018983E-005
 PAO|CG| trace_G_mix    1.0887477167628973E-007
 PAO|CG| trace_D    1.2187813095684258E-004
 PAO|CG| trace_D_Gnew  -3.7818557183177820E-008
 PAO|CG| beta:   0.38908386052777177     
 PAO| norm of gradient:   5.7109049152042320E-003
 PAO| energy improvement:  -1.1522083073423062E-005
 PAO| step     28                   -7.711260972  0.357E-03  0.275E+00     0.055
 PAO|LS| adapt:  T F F
 PAO|LS| adapt: scan_steps:    0.0000000000000000        0.0000000000000000        0.0000000000000000     
 PAO|LS| adapt: energies:   -7.7112609721440908        0.0000000000000000        0.0000000000000000     
 PAO| ======================= Iteration:        29 =============================

     Lanczos converged:  T threshold:   0.100E-02
     Est. extremal eigenvalues:    0.288E+01   0.194E+00
     Est. condition number :    0.149E+02
     NS sqrt iter    1 1.00000000   0.735E+00       0.001       63.107
     NS sqrt iter    2 1.00000000   0.338E+00       0.001      110.592
     NS sqrt iter    3 1.00000000   0.751E-01       0.001      110.592
     NS sqrt iter    4 1.00000000   0.171E-02       0.001      109.685
     NS sqrt iter    5 1.00000000   0.369E-07       0.001       52.768
     Final NS sqrt iter    5 1.00000000   0.385E-09

     Est. extremal eigenvalues     -0.92829     1.64083  converged:  T
     TRS4 it   1 1.00000000   0.862E+00       0.001       16.128   0.100E-07
     TRS4 it   2 1.00000000   0.603E+00       0.001       32.256   0.100E-07
     TRS4 it   3 1.00000000   0.408E+00       0.001       32.256   0.100E-07
     TRS4 it   4 1.00000000   0.207E+00       0.001       32.256   0.100E-07
     TRS4 it   5 1.00000000   0.676E-01       0.001       32.256   0.100E-07
     TRS4 it   6 1.00000000   0.935E-02       0.001       32.256   0.100E-07
     TRS4 it   7 1.00000000   0.247E-03       0.001       32.256   0.100E-07
     TRS4 it   8 1.00000000   0.238E-06       0.001       32.256   0.100E-07
     TRS4 it   9 1.00000000   0.252E-12       0.001       32.256   0.100E-07
     Final TRS4 iteration    9 1.00000000   0.252E-12
     Chemical potential (mu):       0.00038
 
 PAO| energy:  -7.7112689281721574      penalty:   1.2739942799993894E-005
 PAO|LS| adapt:  T T F
 PAO|LS| adapt: scan_steps:    0.0000000000000000       0.27519783118559032        0.0000000000000000     
 PAO|LS| adapt: energies:   -7.7112609721440908       -7.7112689281721574        0.0000000000000000     
 PAO| ======================= Iteration:        30 =============================

     Lanczos converged:  T threshold:   0.100E-02
     Est. extremal eigenvalues:    0.288E+01   0.194E+00
     Est. condition number :    0.149E+02
     NS sqrt iter    1 1.00000000   0.734E+00       0.001       64.512
     NS sqrt iter    2 1.00000000   0.338E+00       0.001       96.680
     NS sqrt iter    3 1.00000000   0.751E-01       0.001       75.565
     NS sqrt iter    4 1.00000000   0.171E-02       0.001      110.592
     NS sqrt iter    5 1.00000000   0.369E-07       0.001       64.000
     Final NS sqrt iter    5 1.00000000   0.382E-09

     Est. extremal eigenvalues     -0.92830     1.64095  converged:  T
     TRS4 it   1 1.00000000   0.862E+00       0.000       16.128   0.100E-07
     TRS4 it   2 1.00000000   0.603E+00       0.001       32.256   0.100E-07
     TRS4 it   3 1.00000000   0.408E+00       0.001       32.256   0.100E-07
     TRS4 it   4 1.00000000   0.207E+00       0.001       32.256   0.100E-07
     TRS4 it   5 1.00000000   0.675E-01       0.001       32.256   0.100E-07
     TRS4 it   6 1.00000000   0.932E-02       0.001       32.256   0.100E-07
     TRS4 it   7 1.00000000   0.246E-03       0.001       32.256   0.100E-07
     TRS4 it   8 1.00000000   0.236E-06       0.001       32.256   0.100E-07
     TRS4 it   9 1.00000000   0.246E-12       0.001       32.256   0.100E-07
     Final TRS4 iteration    9 1.00000000   0.246E-12
     Chemical potential (mu):       0.00051
 
 PAO| energy:  -7.7112748366508690      penalty:   1.2291283051398270E-005
 PAO|LS| adapt:  T T F
 PAO|LS| adapt: scan_steps:    0.0000000000000000       0.55039566237118065        0.0000000000000000     
 PAO|LS| adapt: energies:   -7.7112609721440908       -7.7112748366508690        0.0000000000000000     
 PAO| ======================= Iteration:        31 =============================

     Lanczos converged:  T threshold:   0.100E-02
     Est. extremal eigenvalues:    0.288E+01   0.194E+00
     Est. condition number :    0.149E+02
     NS sqrt iter    1 1.00000000   0.734E+00       0.001       64.512
     NS sqrt iter    2 1.00000000   0.338E+00       0.001      110.592
     NS sqrt iter    3 1.00000000   0.749E-01       0.001      110.592
     NS sqrt iter    4 1.00000000   0.170E-02       0.001       81.633
     NS sqrt iter    5 1.00000000   0.369E-07       0.002       32.027
     Final NS sqrt iter    5 1.00000000   0.375E-09

     Est. extremal eigenvalues     -0.92830     1.64119  converged:  T
     TRS4 it   1 1.00000000   0.862E+00       0.000       16.128   0.100E-07
     TRS4 it   2 1.00000000   0.603E+00       0.001       32.256   0.100E-07
     TRS4 it   3 1.00000000   0.408E+00       0.001       32.256   0.100E-07
     TRS4 it   4 1.00000000   0.206E+00       0.001       32.256   0.100E-07
     TRS4 it   5 1.00000000   0.673E-01       0.001       32.256   0.100E-07
     TRS4 it   6 1.00000000   0.928E-02       0.001       32.256   0.100E-07
     TRS4 it   7 1.00000000   0.243E-03       0.001       32.256   0.100E-07
     TRS4 it   8 1.00000000   0.230E-06       0.001       32.256   0.100E-07
     TRS4 it   9 1.00000000   0.235E-12       0.001       32.256   0.100E-07
     Final TRS4 iteration    9 1.00000000   0.235E-12
     Chemical potential (mu):       0.00077
 
 PAO| energy:  -7.7112805051379771      penalty:   1.1420962066701114E-005
 PAO|LS| Need extra step
 PAO|LS| adapt:  T T F
 PAO|LS| adapt: scan_steps:    0.0000000000000000        1.1007913247423613        0.0000000000000000     
 PAO|LS| adapt: energies:   -7.7112609721440908       -7.7112805051379771        0.0000000000000000     
 PAO| ======================= Iteration:        32 =============================

     Lanczos converged:  T threshold:   0.100E-02
     Est. extremal eigenvalues:    0.288E+01   0.194E+00
     Est. condition number :    0.149E+02
     NS sqrt iter    1 1.00000000   0.733E+00       0.001       64.512
     NS sqrt iter    2 1.00000000   0.337E+00       0.001       83.579
     NS sqrt iter    3 1.00000000   0.747E-01       0.001      103.114
     NS sqrt iter    4 1.00000000   0.169E-02       0.001      110.592
     NS sqrt iter    5 1.00000000   0.370E-07       0.001       64.384
     Final NS sqrt iter    5 1.00000000   0.342E-09

     Est. extremal eigenvalues     -0.92831     1.64167  converged:  T
     TRS4 it   1 1.00000000   0.863E+00       0.000       16.128   0.100E-07
     TRS4 it   2 1.00000000   0.603E+00       0.001       32.256   0.100E-07
     TRS4 it   3 1.00000000   0.408E+00       0.001       32.256   0.100E-07
     TRS4 it   4 1.00000000   0.206E+00       0.001       32.256   0.100E-07
     TRS4 it   5 1.00000000   0.670E-01       0.001       32.256   0.100E-07
     TRS4 it   6 1.00000000   0.919E-02       0.001       32.256   0.100E-07
     TRS4 it   7 1.00000000   0.238E-03       0.001       32.256   0.100E-07
     TRS4 it   8 1.00000000   0.220E-06       0.001       32.256   0.100E-07
     TRS4 it   9 1.00000000   0.215E-12       0.001       32.256   0.100E-07
     Final TRS4 iteration    9 1.00000000   0.215E-12
     Chemical potential (mu):       0.00128
 
 PAO| energy:  -7.7112671936549146      penalty:   9.7868484640388929E-006
 PAO|LS| Need extra step
 PAO|LS| adapt:  T T T
 PAO|LS| adapt: scan_steps:    0.0000000000000000        1.1007913247423613        2.2015826494847226     
 PAO|LS| adapt: energies:   -7.7112609721440908       -7.7112805051379771       -7.7112671936549146     
 PAO|LS| adapt: suggested step_size:    1.2050491144516942     
 PAO|LS| adapt: predicted energy  -7.7112806524504043     
 PAO| ======================= Iteration:        33 =============================

     Lanczos converged:  T threshold:   0.100E-02
     Est. extremal eigenvalues:    0.288E+01   0.194E+00
     Est. condition number :    0.149E+02
     NS sqrt iter    1 1.00000000   0.734E+00       0.001       64.512
     NS sqrt iter    2 1.00000000   0.338E+00       0.001      110.592
     NS sqrt iter    3 1.00000000   0.749E-01       0.001      107.594
     NS sqrt iter    4 1.00000000   0.170E-02       0.002       68.784
     NS sqrt iter    5 1.00000000   0.369E-07       0.001       53.049
     Final NS sqrt iter    5 1.00000000   0.374E-09

     Est. extremal eigenvalues     -0.92830     1.64124  converged:  T
     TRS4 it   1 1.00000000   0.862E+00       0.000       16.128   0.100E-07
     TRS4 it   2 1.00000000   0.603E+00       0.001       32.256   0.100E-07
     TRS4 it   3 1.00000000   0.408E+00       0.001       32.256   0.100E-07
     TRS4 it   4 1.00000000   0.206E+00       0.001       32.256   0.100E-07
     TRS4 it   5 1.00000000   0.673E-01       0.001       32.256   0.100E-07
     TRS4 it   6 1.00000000   0.927E-02       0.001       32.256   0.100E-07
     TRS4 it   7 1.00000000   0.243E-03       0.001       32.256   0.100E-07
     TRS4 it   8 1.00000000   0.229E-06       0.001       32.256   0.100E-07
     TRS4 it   9 1.00000000   0.233E-12       0.001       32.256   0.100E-07
     Final TRS4 iteration    9 1.00000000   0.233E-12
     Chemical potential (mu):       0.00081
 
 PAO| energy:  -7.7112806545169921      penalty:   1.1260131526700520E-005
 PAO|CG| trace_G_new    8.9977827066693489E-005
[...]
 PAO| ======================= Iteration:       999 =============================

     Lanczos converged:  T threshold:   0.100E-02
     Est. extremal eigenvalues:    0.266E+01   0.219E+00
     Est. condition number :    0.122E+02
     NS sqrt iter    1 1.00000000   0.671E+00       0.001       64.512
     NS sqrt iter    2 1.00000000   0.288E+00       0.001      110.236
     NS sqrt iter    3 1.00000000   0.500E-01       0.001      105.410
     NS sqrt iter    4 1.00000000   0.575E-03       0.001      110.592
     NS sqrt iter    5 1.00000000   0.114E-08       0.001       36.213
     Final NS sqrt iter    5 1.00000000   0.842E-10

     Est. extremal eigenvalues     -0.92841     1.55258  converged:  T
     TRS4 it   1 1.00000000   0.864E+00       0.000       16.128   0.100E-07
     TRS4 it   2 1.00000000   0.620E+00       0.001       32.256   0.100E-07
     TRS4 it   3 1.00000000   0.449E+00       0.001       32.256   0.100E-07
     TRS4 it   4 1.00000000   0.276E+00       0.001       32.256   0.100E-07
     TRS4 it   5 1.00000000   0.133E+00       0.001       32.256   0.100E-07
     TRS4 it   6 1.00000000   0.393E-01       0.001       32.256   0.100E-07
     TRS4 it   7 1.00000000   0.503E-02       0.001       32.256   0.100E-07
     TRS4 it   8 1.00000000   0.110E-03       0.001       32.256   0.100E-07
     TRS4 it   9 1.00000000   0.543E-07       0.001       32.256   0.100E-07
     Final TRS4 iteration    9 1.00000000   0.543E-07
     Chemical potential (mu):      -0.07253
 
 PAO| energy:  -7.7123271891706988      penalty:   4.2737917581147525E-011
 PAO|CG| trace_G_new    2.1959012183686418E-010
 PAO|CG| trace_G_prev    2.2374191903434681E-010
 PAO|CG| trace_G_mix    2.1746315756198987E-010
 PAO|CG| trace_D    2.3639125092560826E-010
 PAO|CG| trace_D_Gnew  -2.2376309574146076E-010
 PAO|CG| beta:    9.5063289170582502E-003
 PAO| norm of gradient:   1.4818573542580412E-005
 PAO| energy improvement:  -5.3468340865947539E-013
 PAO| step    999                   -7.712327189  0.926E-06  0.171E+00     0.058
 PAO|LS| adapt:  T F F
 PAO|LS| adapt: scan_steps:    0.0000000000000000        0.0000000000000000        0.0000000000000000     
 PAO|LS| adapt: energies:   -7.7123271891706988        0.0000000000000000        0.0000000000000000     
 PAO| ======================= Iteration:      1000 =============================

     Lanczos converged:  T threshold:   0.100E-02
     Est. extremal eigenvalues:    0.266E+01   0.219E+00
     Est. condition number :    0.122E+02
     NS sqrt iter    1 1.00000000   0.671E+00       0.001       64.512
     NS sqrt iter    2 1.00000000   0.288E+00       0.001      110.592
     NS sqrt iter    3 1.00000000   0.500E-01       0.001      110.592
     NS sqrt iter    4 1.00000000   0.575E-03       0.001      110.592
     NS sqrt iter    5 1.00000000   0.114E-08       0.001       36.864
     Final NS sqrt iter    5 1.00000000   0.842E-10

     Est. extremal eigenvalues     -0.92841     1.55258  converged:  T
     TRS4 it   1 1.00000000   0.864E+00       0.001       16.128   0.100E-07
     TRS4 it   2 1.00000000   0.620E+00       0.001       30.547   0.100E-07
     TRS4 it   3 1.00000000   0.449E+00       0.001       32.256   0.100E-07
     TRS4 it   4 1.00000000   0.276E+00       0.001       32.256   0.100E-07
     TRS4 it   5 1.00000000   0.133E+00       0.001       32.256   0.100E-07
     TRS4 it   6 1.00000000   0.393E-01       0.001       32.256   0.100E-07
     TRS4 it   7 1.00000000   0.503E-02       0.001       32.256   0.100E-07
     TRS4 it   8 1.00000000   0.110E-03       0.001       32.256   0.100E-07
     TRS4 it   9 1.00000000   0.543E-07       0.001       32.256   0.100E-07
     Final TRS4 iteration    9 1.00000000   0.543E-07
     Chemical potential (mu):      -0.07253
 
 PAO| energy:  -7.7123271891710212      penalty:   4.2886656533109570E-011

 *** WARNING in pao_main.F:279 :: PAO not converged! ***

 PAO| Writing restart file.
     Est. extremal eigenvalues     -0.92841     1.55258  converged:  T
     TRS4 it   1 1.00000000   0.864E+00       0.001       16.128   0.100E-07
     TRS4 it   2 1.00000000   0.620E+00       0.001       32.256   0.100E-07
     TRS4 it   3 1.00000000   0.449E+00       0.001       32.256   0.100E-07
     TRS4 it   4 1.00000000   0.276E+00       0.001       32.256   0.100E-07
     TRS4 it   5 1.00000000   0.133E+00       0.001       32.256   0.100E-07
     TRS4 it   6 1.00000000   0.393E-01       0.001       32.256   0.100E-07
     TRS4 it   7 1.00000000   0.503E-02       0.001       32.256   0.100E-07
     TRS4 it   8 1.00000000   0.110E-03       0.001       32.256   0.100E-07
     TRS4 it   9 1.00000000   0.543E-07       0.001       32.256   0.100E-07
     Final TRS4 iteration    9 1.00000000   0.543E-07
     Chemical potential (mu):      -0.07253

 SCF     1       -34.447707622       -34.447707622    2.290322

*********************************************************
 Using MIXING_FRACTION=0.450 to mix KS matrix:  iscf=  2
 KS_nw=0.450*KS + 0.550*KS_old
*********************************************************
     Est. extremal eigenvalues     -0.92812     1.55260  converged:  T
     TRS4 it   1 1.00000000   0.864E+00       0.000       16.128   0.100E-07
     TRS4 it   2 1.00000000   0.620E+00       0.001       32.256   0.100E-07
     TRS4 it   3 1.00000000   0.449E+00       0.001       32.256   0.100E-07
     TRS4 it   4 1.00000000   0.276E+00       0.001       32.256   0.100E-07
     TRS4 it   5 1.00000000   0.133E+00       0.001       32.256   0.100E-07
     TRS4 it   6 1.00000000   0.393E-01       0.001       32.256   0.100E-07
     TRS4 it   7 1.00000000   0.503E-02       0.001       32.256   0.100E-07
     TRS4 it   8 1.00000000   0.110E-03       0.001       32.256   0.100E-07
     TRS4 it   9 1.00000000   0.541E-07       0.001       32.256   0.100E-07
     Final TRS4 iteration    9 1.00000000   0.541E-07
     Chemical potential (mu):      -0.07241

 SCF     2       -34.447707963        -0.000000342    2.298077

*********************************************************
 Using MIXING_FRACTION=0.450 to mix KS matrix:  iscf=  3
 KS_nw=0.450*KS + 0.550*KS_old
*********************************************************
     Est. extremal eigenvalues     -0.92805     1.55258  converged:  T
     TRS4 it   1 1.00000000   0.864E+00       0.000       16.128   0.100E-07
     TRS4 it   2 1.00000000   0.620E+00       0.001       32.256   0.100E-07
     TRS4 it   3 1.00000000   0.449E+00       0.001       32.256   0.100E-07
     TRS4 it   4 1.00000000   0.276E+00       0.001       32.256   0.100E-07
     TRS4 it   5 1.00000000   0.133E+00       0.001       32.256   0.100E-07
     TRS4 it   6 1.00000000   0.393E-01       0.001       32.256   0.100E-07
     TRS4 it   7 1.00000000   0.502E-02       0.001       32.256   0.100E-07
     TRS4 it   8 1.00000000   0.109E-03       0.001       32.256   0.100E-07
     TRS4 it   9 1.00000000   0.536E-07       0.001       32.256   0.100E-07
     Final TRS4 iteration    9 1.00000000   0.536E-07
     Chemical potential (mu):      -0.07242

 SCF     3       -34.447707980        -0.000000017    2.314334

 PAO| Storing density matrix for ASPC guess in slot:           1

 ENERGY| Total FORCE_EVAL ( QS ) energy (a.u.):              -34.447707980291788


 -------------------------------------------------------------------------------
 -                                                                             -
 -                                DBCSR STATISTICS                             -
 -                                                                             -
 -------------------------------------------------------------------------------
 COUNTER                                    TOTAL       BLAS       SMM       ACC
 flops     5 x     5 x     4                 8000       0.0%    100.0%      0.0%
 flops    13 x     5 x     4                 8320       0.0%    100.0%      0.0%
 flops     5 x    13 x     4                 8320       0.0%    100.0%      0.0%
 flops    13 x    13 x     4                16224       0.0%    100.0%      0.0%
 flops     4 x     4 x     5              7695360       0.0%    100.0%      0.0%
 flops     5 x     4 x     5              9398400       0.0%    100.0%      0.0%
 flops     4 x     4 x    13             10003968       0.0%    100.0%      0.0%
 flops    13 x     4 x     5             12217920       0.0%    100.0%      0.0%
 flops     5 x     4 x    13             12217920       0.0%    100.0%      0.0%
 flops     5 x     4 x     4             15729280       0.0%    100.0%      0.0%
 flops    13 x     4 x    13             15883296       0.0%    100.0%      0.0%
 flops    13 x     4 x     4             21181056       0.0%    100.0%      0.0%
 flops     4 x     4 x     4            977007232       0.0%    100.0%      0.0%
 flops inhomo. stacks                           0       0.0%      0.0%      0.0%
 flops total                         1.081375E+09       0.0%    100.0%      0.0%
 flops max/rank                      1.081375E+09       0.0%    100.0%      0.0%
 matmuls inhomo. stacks                         0       0.0%      0.0%      0.0%
 matmuls total                            7960053       0.0%    100.0%      0.0%
 number of processed stacks                 63749       0.0%    100.0%      0.0%
 average stack size                                     0.0     124.9       0.0
 marketing flops                     1.757629E+09
 -------------------------------------------------------------------------------
 # multiplications                          53010
 max memory usage/rank             321.138688E+06
 # max total images/rank                        1
 # max 3D layers                                1
 # MPI messages exchanged                       0
 MPI messages size (bytes):
  total size                         0.000000E+00
  min size                           0.000000E+00
  max size                           0.000000E+00
  average size                       0.000000E+00
 MPI breakdown and total messages size (bytes):
             size <=      128                   0                        0
       128 < size <=     8192                   0                        0
      8192 < size <=    32768                   0                        0
     32768 < size <=   131072                   0                        0
    131072 < size <=  4194304                   0                        0
   4194304 < size <= 16777216                   0                        0
  16777216 < size                               0                        0
 -------------------------------------------------------------------------------

 MEMORY| Estimated peak process memory [MiB]                                 307

 -------------------------------------------------------------------------------
 -                                                                             -
 -                           R E F E R E N C E S                               -
 -                                                                             -
 -------------------------------------------------------------------------------
 
 CP2K version 7.0 (Development Version), the CP2K developers group (2018).
 CP2K is freely available from https://www.cp2k.org/ .

 Schuett, O; VandeVondele, J. 
 Journal of Chemical Theory and Computation, 14, (2018). 
 Machine Learning Adaptive Basis Sets for Efficient Large Scale Density Functional Theory Simulation.
 https://dx.doi.org/10.1021/acs.jctc.8b00378


 Schuett, Ole; Messmer, Peter; Hutter, Juerg; VandeVondele, Joost. 
 Electronic Structure Calculations on Graphics Processing Units, John Wiley & Sons, Ltd, 173-190 (2016). 
 GPU-Accelerated Sparse Matrix-Matrix Multiplication for Linear Scaling Density Functional Theory.
 https://dx.doi.org/10.1002/9781118670712.ch8


 Borstnik, U; VandeVondele, J; Weber, V; Hutter, J. 
 PARALLEL COMPUTING, 40 (5-6), 47-58 (2014). 
 Sparse matrix multiplication: The distributed block-compressed sparse
 row library.
 https://dx.doi.org/10.1016/j.parco.2014.03.012


 Hutter, J; Iannuzzi, M; Schiffmann, F; VandeVondele, J. 
 WILEY INTERDISCIPLINARY REVIEWS-COMPUTATIONAL MOLECULAR SCIENCE, 4 (1), 15-25 (2014). 
 CP2K: atomistic simulations of condensed matter systems.
 https://dx.doi.org/10.1002/wcms.1159


 VandeVondele, J; Borstnik, U; Hutter, J. 
 JOURNAL OF CHEMICAL THEORY AND COMPUTATION, 8 (10), 3565-3573 (2012). 
 Linear Scaling Self-Consistent Field Calculations with Millions of Atoms
 in the Condensed Phase.
 https://dx.doi.org/10.1021/ct200897x


 VandeVondele, J; Hutter, J. 
 JOURNAL OF CHEMICAL PHYSICS, 127 (11), 114105 (2007). 
 Gaussian basis sets for accurate calculations on molecular systems in
 gas and condensed phases.
 https://dx.doi.org/10.1063/1.2770708


 Krack, M. 
 THEORETICAL CHEMISTRY ACCOUNTS, 114 (1-3), 145-152 (2005). 
 Pseudopotentials for H to Kr optimized for gradient-corrected
 exchange-correlation functionals.
 https://dx.doi.org/10.1007/s00214-005-0655-y


 VandeVondele, J; Krack, M; Mohamed, F; Parrinello, M; Chassaing, T;
 Hutter, J. COMPUTER PHYSICS COMMUNICATIONS, 167 (2), 103-128 (2005). 
 QUICKSTEP: Fast and accurate density functional calculations using a
 mixed Gaussian and plane waves approach.
 https://dx.doi.org/10.1016/j.cpc.2004.12.014


 Frigo, M; Johnson, SG. 
 PROCEEDINGS OF THE IEEE, 93 (2), 216-231 (2005). 
 The design and implementation of FFTW3.
 https://dx.doi.org/10.1109/JPROC.2004.840301


 Niklasson, AMN; Tymczak, CJ; Challacombe, M. 
 JOURNAL OF CHEMICAL PHYSICS, 118 (19), 8611-8620 (2003). 
 Trace resetting density matrix purification in O(N)
 self-consistent-field theory.
 https://dx.doi.org/10.1063/1.1559913


 Hartwigsen, C; Goedecker, S; Hutter, J. 
 PHYSICAL REVIEW B, 58 (7), 3641-3662 (1998). 
 Relativistic separable dual-space Gaussian pseudopotentials from H to Rn.
 https://dx.doi.org/10.1103/PhysRevB.58.3641


 Lippert, G; Hutter, J; Parrinello, M. 
 MOLECULAR PHYSICS, 92 (3), 477-487 (1997). 
 A hybrid Gaussian and plane wave density functional scheme.
 https://dx.doi.org/10.1080/002689797170220


 Perdew, JP; Burke, K; Ernzerhof, M. 
 PHYSICAL REVIEW LETTERS, 77 (18), 3865-3868 (1996). 
 Generalized gradient approximation made simple.
 https://dx.doi.org/10.1103/PhysRevLett.77.3865


 Goedecker, S; Teter, M; Hutter, J. 
 PHYSICAL REVIEW B, 54 (3), 1703-1710 (1996). 
 Separable dual-space Gaussian pseudopotentials.
 https://dx.doi.org/10.1103/PhysRevB.54.1703


 -------------------------------------------------------------------------------
 -                                                                             -
 -                                T I M I N G                                  -
 -                                                                             -
 -------------------------------------------------------------------------------
 SUBROUTINE                       CALLS  ASD         SELF TIME        TOTAL TIME
                                MAXIMUM       AVERAGE  MAXIMUM  AVERAGE  MAXIMUM
 CP2K                                 1  1.0    0.028    0.028   28.515   28.515
 qs_energies                          1  2.0    0.000    0.000   28.084   28.084
 ls_scf                               1  3.0    0.000    0.000   27.961   27.961
 pao_update                           1  4.0    0.028    0.028   18.711   18.711
 pao_calc_energy                   1000  5.0    0.011    0.011   16.949   16.949
 dbcsr_multiply_generic           53010  8.4    1.044    1.044   13.432   13.432
 pao_dm_trs4                       1000  6.0    0.011    0.011    8.798    8.798
 density_matrix_trs4               1003  7.0    0.529    0.529    8.278    8.278
 pao_rebuild_S                     1000  6.0    0.008    0.008    8.043    8.043
 ls_scf_init_matrix_S              1001  7.0    0.010    0.010    8.043    8.043
 matrix_sqrt_Newton_Schulz         1001  8.0    0.365    0.365    7.211    7.211
 ls_scf_main                          1  4.0    0.000    0.000    6.903    6.903
 ls_scf_dm_to_ks                      3  5.0    0.000    0.000    6.874    6.874
 qs_ks_update_qs_env                  4  6.0    0.000    0.000    6.573    6.573
 rebuild_ks_matrix                    4  7.0    0.000    0.000    6.573    6.573
 qs_ks_build_kohn_sham_matrix         4  8.0    0.001    0.001    6.573    6.573
 multiply_cannon                  53010  9.4    2.444    2.444    5.277    5.277
 make_m2s                        106020  9.4    0.349    0.349    4.855    4.855
 make_images                     106020 10.4    1.262    1.262    4.304    4.304
 qs_vxc_create                        4  9.0    0.000    0.000    3.791    3.791
 xc_vxc_pw_create                     4 10.0    0.072    0.072    3.791    3.791
 xc_rho_set_and_dset_create           4 11.0    0.023    0.023    2.637    2.637
 qs_rho_update_rho                    4  6.0    0.000    0.000    2.614    2.614
 calculate_rho_elec                   4  7.0    2.037    2.037    2.613    2.613
 pw_transfer                         77 10.6    0.007    0.007    2.596    2.596
 fft_wrap_pw1pw2                     69 11.6    0.001    0.001    2.526    2.526
 fft_wrap_pw1pw2_200                 45 12.7    0.256    0.256    2.414    2.414
 pao_guess_initial_P                  1  4.0    0.000    0.000    2.315    2.315
 pao_read_preopt_dm                   1  5.0    0.000    0.000    2.315    2.315
 sum_up_and_integrate                 4  9.0    0.014    0.014    2.286    2.286
 integrate_v_rspace                   4 10.0    1.964    1.964    2.271    2.271
 arnoldi_extremal                  2004  8.5    0.014    0.014    2.231    2.231
 arnoldi_normal_ev                 2004  9.5    0.034    0.034    2.216    2.216
 pao_calc_AB                       1312  5.8    0.003    0.003    1.720    1.720
 pao_calc_AB_direct                1312  6.8    0.063    0.063    1.718    1.718
 xc_functional_eval                   4 12.0    0.000    0.000    1.663    1.663
 pbe_lda_eval                         4 13.0    1.663    1.663    1.663    1.663
 build_subspace                    2004 10.5    0.134    0.134    1.593    1.593
 pao_calc_grad_lnv_wrt_AB           311  7.0    0.019    0.019    1.581    1.581
 dbcsr_matrix_vector_mult         48092 11.5    0.255    0.255    1.413    1.413
 dbcsr_create_new                405363 10.7    0.785    0.785    1.396    1.396
 dbcsr_finalize                  125145  9.7    0.260    0.260    1.393    1.393
 fft3d_s                             70 13.5    1.301    1.301    1.314    1.314
 matrix_qs_to_ls                   2004  7.5    0.018    0.018    1.075    1.075
 dbcsr_merge_all                 117496 10.7    0.514    0.514    0.975    0.975
 multiply_cannon_multrec          53010 10.4    0.754    0.754    0.971    0.971
 dbcsr_add_d                      44046  8.1    0.032    0.032    0.909    0.909
 dbcsr_special_finalize          106020 11.4    0.127    0.127    0.890    0.890
 dbcsr_add_anytype                44046  9.1    0.227    0.227    0.877    0.877
 make_images_pack                106020 11.4    0.585    0.585    0.754    0.754
 dbcsr_copy                      154698  9.1    0.296    0.296    0.733    0.733
 setup_buffer_matrices           106020 10.4    0.269    0.269    0.711    0.711
 quick_finalize                  110647 12.4    0.352    0.352    0.704    0.704
 -------------------------------------------------------------------------------

 The number of warnings for this run is : 1
 
 -------------------------------------------------------------------------------
  **** **** ******  **  PROGRAM ENDED AT                 2019-02-14 01:27:55.693
 ***** ** ***  *** **   PROGRAM RAN ON                                      otto
 **    ****   ******    PROGRAM RAN BY                                       ole
 ***** **    ** ** **   PROGRAM PROCESS ID                                  6187
  **** **  *******  **  PROGRAM STOPPED IN /home/ole/git/pao_ml_equivar/2H2O_MD/
                                           frame_0650
