       6
 i =      650, time =      130.000, E =       -34.4479981868
  O         2.5295881586        4.2550438016        3.7378100336
  H         1.9464219183        4.8149667383        4.3230756680
  H         1.8346221395        3.8307093314        3.1967421875
  O         5.3424823526        4.2642604868        4.2734589574
  H         4.9640742126        3.9248768444        5.0879659347
  H         4.5445532299        4.2790551209        3.6856226037
