 DBCSR| CPU Multiplication driver                                           XSMM (U)
 DBCSR| Multrec recursion limit                                              512 (U)
 DBCSR| Multiplication stack size                                           1000 (D)
 DBCSR| Maximum elements for images                                    UNLIMITED (U)
 DBCSR| Multiplicative factor virtual images                                   1 (U)
 DBCSR| Use multiplication densification                                       T (D)
 DBCSR| Multiplication size stacks                                             3 (U)
 DBCSR| Use memory pool for CPU allocation                                     F (U)
 DBCSR| Number of 3D layers                                               SINGLE (U)
 DBCSR| Use MPI memory allocation                                              F (U)
 DBCSR| Use RMA algorithm                                                      F (U)
 DBCSR| Use Communication thread                                               T (U)
 DBCSR| Communication thread load                                             87 (D)
 DBCSR| MPI: My process id                                                     0
 DBCSR| MPI: Number of processes                                              32
 DBCSR| OMP: Current number of threads                                         1
 DBCSR| OMP: Max number of threads                                             1
 DBCSR| Split modifier for TAS multiplication algorithm                  1.0E+00 (U)


  **** **** ******  **  PROGRAM STARTED AT               2024-09-23 17:36:18.517
 ***** ** ***  *** **   PROGRAM STARTED ON                                moritz
 **    ****   ******    PROGRAM STARTED BY                                   ole
 ***** **    ** ** **   PROGRAM PROCESS ID                                156634
  **** **  *******  **  PROGRAM STARTED IN /home/ole/git/pao_ml_equivar/64H2O_MD
                                           /Frame2000

 CP2K| version string:                 CP2K version 2024.3 (Development Version)
 CP2K| source code revision number:                                  git:3f890bb
 CP2K| cp2kflags: omp libint fftw3 libxc libgrpp pexsi elpa parallel scalapack c
 CP2K|            osma quip deepmd xsmm plumed2 spglib libdftd4 sirius libvori l
 CP2K|            libbqb libvdwxc hdf5
 CP2K| is freely available from                            https://www.cp2k.org/
 CP2K| Program compiled at                          Mo 23 Sep 2024 17:17:04 CEST
 CP2K| Program compiled on                                                moritz
 CP2K| Program compiled for                                                local
 CP2K| Data directory path                               /home/ole/git/cp2k/data
 CP2K| Input file name                                             64H2O_ref.inp

 GLOBAL| Force Environment number                                              1
 GLOBAL| Basis set file name                                        BASIS_MOLOPT
 GLOBAL| Potential file name                                      GTH_POTENTIALS
 GLOBAL| MM Potential file name                                     MM_POTENTIAL
 GLOBAL| Coordinate file name                                         coords.xyz
 GLOBAL| Method name                                                        CP2K
 GLOBAL| Project name                                                  64H2O_ref
 GLOBAL| Run type                                                         ENERGY
 GLOBAL| FFT library                                                       FFTW3
 GLOBAL| Diagonalization library                                            ELPA
 GLOBAL| DGEMM library                                                      BLAS
 GLOBAL| Minimum number of eigenvectors for ELPA usage                        16
 GLOBAL| Orthonormality check for eigenvectors                          DISABLED
 GLOBAL| Matrix multiplication library                                     COSMA
 GLOBAL| All-to-all communication in single precision                          F
 GLOBAL| FFTs using library dependent lengths                                  F
 GLOBAL| Grid backend                                                       AUTO
 GLOBAL| Global print level                                                  LOW
 GLOBAL| MPI I/O enabled                                                       T
 GLOBAL| Total number of message passing processes                            32
 GLOBAL| Number of threads for this process                                    1
 GLOBAL| This output is from process                                           0
 GLOBAL| Stack size for threads created by OpenMP (OMP_STACKSIZE)        default
 GLOBAL| CPU model name           AMD Ryzen Threadripper 3970X 32-Core Processor
 GLOBAL| CPUID                                                              1002

 MEMORY| system memory details [Kb]
 MEMORY|                        rank 0           min           max       average
 MEMORY| MemTotal            131752136     131752136     131752136     131752136
 MEMORY| MemFree             118531212     118531212     118531212     118531212
 MEMORY| Buffers                259676        259676        259676        259676
 MEMORY| Cached                7044852       7044852       7044856       7044855
 MEMORY| Slab                   702412        702412        702412        702412
 MEMORY| SReclaimable           268668        268668        268668        268668
 MEMORY| MemLikelyFree       126104408     126104408     126104412     126104411


 GENERATE|  Preliminary Number of Bonds generated:                             0
 GENERATE|  Achieved consistency in connectivity generation.

 *******************************************************************************
 *******************************************************************************
 **                                                                           **
 **     #####                         ##              ##                      **
 **    ##   ##            ##          ##              ##                      **
 **   ##     ##                       ##            ######                    **
 **   ##     ##  ##   ##  ##   #####  ##  ##   ####   ##    #####    #####    **
 **   ##     ##  ##   ##  ##  ##      ## ##   ##      ##   ##   ##  ##   ##   **
 **   ##  ## ##  ##   ##  ##  ##      ####     ###    ##   ######   ######    **
 **    ##  ###   ##   ##  ##  ##      ## ##      ##   ##   ##       ##        **
 **     #######   #####   ##   #####  ##  ##  ####    ##    #####   ##        **
 **           ##                                                    ##        **
 **                                                                           **
 **                                                ... make the atoms dance   **
 **                                                                           **
 **            Copyright (C) by CP2K developers group (2000-2024)             **
 **                      J. Chem. Phys. 152, 194103 (2020)                    **
 **                                                                           **
 *******************************************************************************


 TOTAL NUMBERS AND MAXIMUM NUMBERS

  Total number of            - Atomic kinds:                                   2
                             - Atoms:                                        192
                             - Shell sets:                                   192
                             - Shells:                                       704
                             - Primitive Cartesian functions:               1344
                             - Cartesian basis functions:                   1536
                             - Spherical basis functions:                   1472

  Maximum angular momentum of- Orbital basis functions:                        2
                             - Local part of the GTH pseudopotential:          2
                             - Non-local part of the GTH pseudopotential:      0

 ------------------------------ Linear scaling SCF -----------------------------
 eps_scf:                                                              0.100E-07
 eps_filter:                                                           0.100E-11
 mixing_fraction:                                                      0.450E+00
 max_scf:                                                                     25
 fixed chemical potential (mu)                                                 F
 has unit metric:                                                              F
 Computing inv(S):                                                             T
 Computing sqrt(S):                                                            T
 Computing S preconditioner                                                    F
 S sqrt method:                                                     NEWTONSCHULZ
 S sqrt order:                                                                 3
 Extrapolation order:                                                          1
 S preconditioner type                                                      NONE
 Polarized Atomic Orbitals (PAO)                                               F
 Purification method                                   Trace resetting 4th order
 Cluster type                                                             ATOMIC
 Computing Chebyshev                                                       FALSE
 Using PAO                                                                     F
 -------------------------------------------------------------------------------


     Lanczos converged:  F threshold:   0.100E-02
     Est. extremal eigenvalues:    0.854E+01   0.578E-02
     Est. condition number :    0.148E+04

 Order=           3
     NS sqrt iter    1 1.00000000   0.221E+01       0.065     6192.452
     NS sqrt iter    2 1.00000000   0.116E+01       0.099     8052.797
     NS sqrt iter    3 1.00000000   0.574E+00       0.098     8124.710
     NS sqrt iter    4 1.00000000   0.330E+00       0.099     8033.790
     NS sqrt iter    5 1.00000000   0.224E+00       0.099     8075.121
     NS sqrt iter    6 1.00000000   0.103E+00       0.099     8044.718
     NS sqrt iter    7 1.00000000   0.127E-01       0.098     8122.072
     NS sqrt iter    8 1.00000000   0.637E-04       0.099     8046.177
     NS sqrt iter    9 1.00000000   0.314E-10       0.059     5769.606
     Symmetrizing Results
     Final NS sqrt iter    9 1.00000000   0.763E-11



 Guess for atomic kind: O

 Electronic structure
    Total number of core electrons                                          2.00
    Total number of valence electrons                                       6.00
    Total number of electrons                                               8.00
    Multiplicity                                                   not specified
    S   [  2.00] 2.00
    P      4.00


 *******************************************************************************
                  Iteration          Convergence                     Energy [au]
 *******************************************************************************
                          1        0.708315                     -15.576645311500
                          2        0.608879                     -15.587933561584
                          3        0.102828E-01                 -15.656849565404
                          4        0.113889E-02                 -15.656866888140
                          5        0.434197E-03                 -15.656867072159
                          6        0.263771E-03                 -15.656867091904
                          7        0.478536E-06                 -15.656867103452

 Energy components [Hartree]           Total Energy ::          -15.656867103452
                                        Band Energy ::           -3.000198112285
                                     Kinetic Energy ::           11.759971203220
                                   Potential Energy ::          -27.416838306672
                                      Virial (-V/T) ::            2.331369510426
                                        Core Energy ::          -26.140716385623
                                          XC Energy ::           -3.154051012914
                                     Coulomb Energy ::           13.637900295084
                       Total Pseudopotential Energy ::          -37.935781716540
                       Local Pseudopotential Energy ::          -39.218907440693
                    Nonlocal Pseudopotential Energy ::            1.283125724153
                                        Confinement ::            0.350941276976

 Orbital energies  State     L     Occupation   Energy[a.u.]          Energy[eV]

                       1     0          2.000      -0.864471          -23.523463

                       1     1          4.000      -0.317814           -8.648154


 Total Electron Density at R=0:                                         0.000068

 Guess for atomic kind: H

 Electronic structure
    Total number of core electrons                                          0.00
    Total number of valence electrons                                       1.00
    Total number of electrons                                               1.00
    Multiplicity                                                   not specified
    S      1.00


 *******************************************************************************
                  Iteration          Convergence                     Energy [au]
 *******************************************************************************
                          1        0.437545E-02                  -0.424159432110
                          2        0.531356E-03                  -0.424178438213
                          3        0.259176E-06                  -0.424178722480

 Energy components [Hartree]           Total Energy ::           -0.424178722480
                                        Band Energy ::           -0.199015229016
                                     Kinetic Energy ::            0.464007633961
                                   Potential Energy ::           -0.888186356441
                                      Virial (-V/T) ::            1.914163240935
                                        Core Energy ::           -0.479160803564
                                          XC Energy ::           -0.244352904054
                                     Coulomb Energy ::            0.299334985138
                       Total Pseudopotential Energy ::           -0.962295316385
                       Local Pseudopotential Energy ::           -0.962295316385
                    Nonlocal Pseudopotential Energy ::            0.000000000000
                                        Confinement ::            0.191268788606

 Orbital energies  State     L     Occupation   Energy[a.u.]          Energy[eV]

                       1     0          1.000      -0.199015           -5.415480


 Total Electron Density at R=0:                                         0.242907
 Re-scaling the density matrix to get the right number of electrons
                  # Electrons              Trace(P)               Scaling factor
                          512               512.001                        1.000
 Energy with the initial guess:     -1095.561470399

     Est. extremal eigenvalues     -0.94115     5.19016  converged:  F
     TRS4 it   1 1.00000000   0.566E+02       0.019     5354.481   0.100E-11
     TRS4 it   2 1.00000000   0.538E+02       0.019     5374.412   0.100E-11
     TRS4 it   3 1.00000000   0.336E+02       0.036     5531.173   0.100E-11
     TRS4 it   4 1.00000000   0.177E+02       0.036     5576.436   0.100E-11
     TRS4 it   5 1.00000000   0.107E+02       0.036     5528.253   0.100E-11
     TRS4 it   6 1.00000000   0.488E+01       0.036     5609.854   0.100E-11
     TRS4 it   7 1.00000000   0.145E+01       0.035     5658.175   0.100E-11
     TRS4 it   8 1.00000000   0.221E+00       0.036     5601.867   0.100E-11
     TRS4 it   9 1.00000000   0.963E-02       0.036     5511.443   0.100E-11
     TRS4 it  10 1.00000000   0.280E-04       0.036     5573.669   0.100E-11
     TRS4 it  11 1.00000000   0.815E-10       0.036     5513.268   0.100E-11
     Final TRS4 iteration   11 1.00000000   0.815E-10
     Chemical potential (mu):      -0.10637

 SCF     1     -1097.944160751     -1097.944160751    2.060512

*********************************************************
 Using MIXING_FRACTION=0.450 to mix KS matrix:  iscf=  2
 KS_nw=0.450*KS + 0.550*KS_old
*********************************************************
     Est. extremal eigenvalues     -0.83999     5.27059  converged:  T
     TRS4 it   1 1.00000000   0.560E+02       0.018     5424.379   0.100E-11
     TRS4 it   2 1.00000000   0.540E+02       0.018     5472.479   0.100E-11
     TRS4 it   3 1.00000000   0.348E+02       0.037     5436.991   0.100E-11
     TRS4 it   4 1.00000000   0.186E+02       0.037     5495.583   0.100E-11
     TRS4 it   5 1.00000000   0.121E+02       0.036     5517.257   0.100E-11
     TRS4 it   6 1.00000000   0.636E+01       0.036     5617.175   0.100E-11
     TRS4 it   7 1.00000000   0.257E+01       0.038     5348.347   0.100E-11
     TRS4 it   8 1.00000000   0.717E+00       0.036     5524.490   0.100E-11
     TRS4 it   9 1.00000000   0.110E+00       0.036     5536.155   0.100E-11
     TRS4 it  10 1.00000000   0.620E-02       0.036     5634.803   0.100E-11
     TRS4 it  11 1.00000000   0.124E-04       0.037     5472.009   0.100E-11
     TRS4 it  12 1.00000000   0.453E-10       0.036     5503.754   0.100E-11
     Final TRS4 iteration   12 1.00000000   0.453E-10
     Chemical potential (mu):      -0.01747

 SCF     2     -1102.974846314        -5.030685563    2.094808

*********************************************************
 Using MIXING_FRACTION=0.450 to mix KS matrix:  iscf=  3
 KS_nw=0.450*KS + 0.550*KS_old
*********************************************************
     Est. extremal eigenvalues     -0.84939     5.26232  converged:  T
     TRS4 it   1 1.00000000   0.561E+02       0.019     5288.981   0.100E-11
     TRS4 it   2 1.00000000   0.540E+02       0.019     5356.608   0.100E-11
     TRS4 it   3 1.00000000   0.346E+02       0.037     5471.323   0.100E-11
     TRS4 it   4 1.00000000   0.185E+02       0.036     5550.761   0.100E-11
     TRS4 it   5 1.00000000   0.119E+02       0.036     5578.222   0.100E-11
     TRS4 it   6 1.00000000   0.614E+01       0.036     5539.746   0.100E-11
     TRS4 it   7 1.00000000   0.239E+01       0.036     5588.368   0.100E-11
     TRS4 it   8 1.00000000   0.623E+00       0.036     5575.678   0.100E-11
     TRS4 it   9 1.00000000   0.836E-01       0.035     5657.227   0.100E-11
     TRS4 it  10 1.00000000   0.345E-02       0.037     5418.301   0.100E-11
     TRS4 it  11 1.00000000   0.411E-05       0.036     5513.867   0.100E-11
     TRS4 it  12 1.00000000   0.127E-10       0.037     5452.848   0.100E-11
     Final TRS4 iteration   12 1.00000000   0.127E-10
     Chemical potential (mu):      -0.02598

 SCF     3     -1103.142260049        -0.167413736    2.088585

*********************************************************
 Using MIXING_FRACTION=0.450 to mix KS matrix:  iscf=  4
 KS_nw=0.450*KS + 0.550*KS_old
*********************************************************
     Est. extremal eigenvalues     -0.84571     5.26709  converged:  T
     TRS4 it   1 1.00000000   0.561E+02       0.018     5453.535   0.100E-11
     TRS4 it   2 1.00000000   0.540E+02       0.019     5337.203   0.100E-11
     TRS4 it   3 1.00000000   0.347E+02       0.037     5438.032   0.100E-11
     TRS4 it   4 1.00000000   0.185E+02       0.036     5577.087   0.100E-11
     TRS4 it   5 1.00000000   0.120E+02       0.036     5549.620   0.100E-11
     TRS4 it   6 1.00000000   0.624E+01       0.037     5434.486   0.100E-11
     TRS4 it   7 1.00000000   0.246E+01       0.036     5554.349   0.100E-11
     TRS4 it   8 1.00000000   0.663E+00       0.036     5571.293   0.100E-11
     TRS4 it   9 1.00000000   0.952E-01       0.036     5544.790   0.100E-11
     TRS4 it  10 1.00000000   0.465E-02       0.036     5643.188   0.100E-11
     TRS4 it  11 1.00000000   0.916E-05       0.036     5500.991   0.100E-11
     TRS4 it  12 1.00000000   0.815E-10       0.036     5651.523   0.100E-11
     Final TRS4 iteration   12 1.00000000   0.815E-10
     Chemical potential (mu):      -0.01932

 SCF     4     -1103.150869500        -0.008609451    2.087002

*********************************************************
 Using MIXING_FRACTION=0.450 to mix KS matrix:  iscf=  5
 KS_nw=0.450*KS + 0.550*KS_old
*********************************************************
     Est. extremal eigenvalues     -0.84450     5.26789  converged:  T
     TRS4 it   1 1.00000000   0.561E+02       0.019     5242.691   0.100E-11
     TRS4 it   2 1.00000000   0.540E+02       0.019     5222.178   0.100E-11
     TRS4 it   3 1.00000000   0.347E+02       0.037     5482.105   0.100E-11
     TRS4 it   4 1.00000000   0.185E+02       0.036     5522.030   0.100E-11
     TRS4 it   5 1.00000000   0.120E+02       0.036     5533.603   0.100E-11
     TRS4 it   6 1.00000000   0.623E+01       0.036     5603.352   0.100E-11
     TRS4 it   7 1.00000000   0.246E+01       0.036     5550.553   0.100E-11
     TRS4 it   8 1.00000000   0.661E+00       0.036     5534.232   0.100E-11
     TRS4 it   9 1.00000000   0.947E-01       0.036     5512.611   0.100E-11
     TRS4 it  10 1.00000000   0.462E-02       0.036     5515.748   0.100E-11
     TRS4 it  11 1.00000000   0.932E-05       0.036     5502.776   0.100E-11
     TRS4 it  12 1.00000000   0.919E-10       0.036     5635.265   0.100E-11
     Final TRS4 iteration   12 1.00000000   0.919E-10
     Chemical potential (mu):      -0.01845

 SCF     5     -1103.151543387        -0.000673887    2.091716

*********************************************************
 Using MIXING_FRACTION=0.450 to mix KS matrix:  iscf=  6
 KS_nw=0.450*KS + 0.550*KS_old
*********************************************************
     Est. extremal eigenvalues     -0.84396     5.26859  converged:  T
     TRS4 it   1 1.00000000   0.561E+02       0.019     5288.797   0.100E-11
     TRS4 it   2 1.00000000   0.540E+02       0.019     5281.101   0.100E-11
     TRS4 it   3 1.00000000   0.347E+02       0.036     5613.968   0.100E-11
     TRS4 it   4 1.00000000   0.186E+02       0.036     5534.544   0.100E-11
     TRS4 it   5 1.00000000   0.120E+02       0.036     5619.530   0.100E-11
     TRS4 it   6 1.00000000   0.624E+01       0.036     5591.752   0.100E-11
     TRS4 it   7 1.00000000   0.247E+01       0.036     5595.392   0.100E-11
     TRS4 it   8 1.00000000   0.666E+00       0.036     5585.073   0.100E-11
     TRS4 it   9 1.00000000   0.962E-01       0.036     5638.960   0.100E-11
     TRS4 it  10 1.00000000   0.480E-02       0.036     5583.470   0.100E-11
     TRS4 it  11 1.00000000   0.105E-04       0.036     5508.863   0.100E-11
     TRS4 it  12 1.00000000   0.127E-09       0.036     5550.260   0.100E-11
     Final TRS4 iteration   12 1.00000000   0.127E-09
     Chemical potential (mu):      -0.01734

 SCF     6     -1103.151641352        -0.000097965    2.085849

*********************************************************
 Using MIXING_FRACTION=0.450 to mix KS matrix:  iscf=  7
 KS_nw=0.450*KS + 0.550*KS_old
*********************************************************
     Est. extremal eigenvalues     -0.84353     5.26892  converged:  T
     TRS4 it   1 1.00000000   0.561E+02       0.019     5327.096   0.100E-11
     TRS4 it   2 1.00000000   0.540E+02       0.019     5283.159   0.100E-11
     TRS4 it   3 1.00000000   0.347E+02       0.036     5536.665   0.100E-11
     TRS4 it   4 1.00000000   0.186E+02       0.036     5598.088   0.100E-11
     TRS4 it   5 1.00000000   0.120E+02       0.036     5572.002   0.100E-11
     TRS4 it   6 1.00000000   0.624E+01       0.036     5537.712   0.100E-11
     TRS4 it   7 1.00000000   0.247E+01       0.036     5590.881   0.100E-11
     TRS4 it   8 1.00000000   0.667E+00       0.036     5539.573   0.100E-11
     TRS4 it   9 1.00000000   0.964E-01       0.036     5544.710   0.100E-11
     TRS4 it  10 1.00000000   0.483E-02       0.036     5578.853   0.100E-11
     TRS4 it  11 1.00000000   0.107E-04       0.036     5544.951   0.100E-11
     TRS4 it  12 1.00000000   0.133E-09       0.036     5532.639   0.100E-11
     Final TRS4 iteration   12 1.00000000   0.133E-09
     Chemical potential (mu):      -0.01697

 SCF     7     -1103.151661881        -0.000020528    2.088788

*********************************************************
 Using MIXING_FRACTION=0.450 to mix KS matrix:  iscf=  8
 KS_nw=0.450*KS + 0.550*KS_old
*********************************************************
     Est. extremal eigenvalues     -0.84336     5.26909  converged:  T
     TRS4 it   1 1.00000000   0.561E+02       0.019     5311.493   0.100E-11
     TRS4 it   2 1.00000000   0.540E+02       0.019     5333.205   0.100E-11
     TRS4 it   3 1.00000000   0.347E+02       0.036     5634.888   0.100E-11
     TRS4 it   4 1.00000000   0.186E+02       0.036     5623.589   0.100E-11
     TRS4 it   5 1.00000000   0.120E+02       0.035     5677.973   0.100E-11
     TRS4 it   6 1.00000000   0.624E+01       0.036     5504.885   0.100E-11
     TRS4 it   7 1.00000000   0.247E+01       0.036     5626.212   0.100E-11
     TRS4 it   8 1.00000000   0.668E+00       0.036     5638.318   0.100E-11
     TRS4 it   9 1.00000000   0.967E-01       0.036     5506.477   0.100E-11
     TRS4 it  10 1.00000000   0.486E-02       0.036     5590.929   0.100E-11
     TRS4 it  11 1.00000000   0.110E-04       0.036     5606.316   0.100E-11
     TRS4 it  12 1.00000000   0.143E-09       0.035     5693.630   0.100E-11
     Final TRS4 iteration   12 1.00000000   0.143E-09
     Chemical potential (mu):      -0.01670

 SCF     8     -1103.151666812        -0.000004931    2.082203


 SCF run converged in     8 steps.

 Writing restart DM 64H2O_ref_LS_DM_SPIN_1_RESTART.dm with checksum:       0.61780890E+04

 ENERGY| Total FORCE_EVAL ( QS ) energy [a.u.]:            -1103.151666812233998

 -------------------------------------------------------------------------------
 -                                                                             -
 -                                DBCSR STATISTICS                             -
 -                                                                             -
 -------------------------------------------------------------------------------
 COUNTER                                    TOTAL       BLAS       SMM       ACC
 flops     5 x     5 x     5          79265786250       0.0%    100.0%      0.0%     
 flops     5 x    13 x     5         102639169750       0.0%    100.0%      0.0%     
 flops    13 x     5 x     5         102651377400       0.0%    100.0%      0.0%     
 flops     5 x     5 x    13         103157403050       0.0%    100.0%      0.0%     
 flops     5 x    13 x    13         133622232900       0.0%    100.0%      0.0%     
 flops    13 x     5 x    13         133640069160       0.0%    100.0%      0.0%     
 flops    13 x    13 x     5         134771975390       0.0%    100.0%      0.0%     
 flops    13 x    13 x    13         175511514906       0.0%    100.0%      0.0%     
 flops inhomo. stacks                           0       0.0%      0.0%      0.0%
 flops total                       965.259529E+09       0.0%    100.0%      0.0%
 flops max/rank                     30.965376E+09       0.0%    100.0%      0.0%
 matmuls inhomo. stacks                         0       0.0%      0.0%      0.0%
 matmuls total                         1069432007       0.0%    100.0%      0.0%
 number of processed stacks               1514442       0.0%    100.0%      0.0%
 average stack size                                     0.0     706.2       0.0
 marketing flops                     1.569237E+12
 -------------------------------------------------------------------------------
 # multiplications                            246
 max memory usage/rank             617.660416E+06
 # max total images/rank                        2
 # max 3D layers                                1
 # MPI messages exchanged                  102336
 MPI messages size (bytes):
  total size                        42.318692E+09
  min size                           0.000000E+00
  max size                         541.696000E+03
  average size                     413.526938E+03
 MPI breakdown and total messages size (bytes):
             size <=      128                 312                        0
       128 < size <=     8192                  42                   279312
      8192 < size <=    32768                  62                   841968
     32768 < size <=   131072                  30                  3807168
    131072 < size <=  4194304              101890              42313760672
   4194304 < size <= 16777216                   0                        0
  16777216 < size                               0                        0
 -------------------------------------------------------------------------------

 *** WARNING in dbcsr_mm.F:301 :: Using a non-square number of MPI ranks ***
 *** might lead to poor performance. Used ranks: 32 Suggested: 36 64     ***

 -------------------------------------------------------------------------------
 -                                                                             -
 -                      DBCSR MESSAGE PASSING PERFORMANCE                      -
 -                                                                             -
 -------------------------------------------------------------------------------
 ROUTINE             CALLS      AVE VOLUME [Bytes]
 MP_Bcast                9                     12.
 MP_Allreduce         1762                     34.
 MP_Alltoall           546                  34827.
 MP_ISend             8604                 170559.
 MP_IRecv             8238                 178755.
 -------------------------------------------------------------------------------

 -------------------------------------------------------------------------------
 -                                                                             -
 -                                DBM STATISTICS                               -
 -                                                                             -
 -------------------------------------------------------------------------------
    M  x    N  x    K                                          COUNT     PERCENT
 -------------------------------------------------------------------------------

 -------------------------------------------------------------------------------
 -                                                                             -
 -                                GRID STATISTICS                              -
 -                                                                             -
 -------------------------------------------------------------------------------
 LP    KERNEL             BACKEND                              COUNT     PERCENT
 2     collocate ortho    CPU                                7376634      28.83%
 2     integrate ortho    CPU                                7376634      28.83%
 3     collocate ortho    CPU                                4738311      18.52%
 3     integrate ortho    CPU                                4738311      18.52%
 4     collocate ortho    CPU                                 673236       2.63%
 4     integrate ortho    CPU                                 673236       2.63%
 0     collocate general  CPU                                   6144       0.02%
 -------------------------------------------------------------------------------

 MEMORY| Estimated peak process memory [MiB]                                 590

 -------------------------------------------------------------------------------
 -                                                                             -
 -                         MESSAGE PASSING PERFORMANCE                         -
 -                                                                             -
 -------------------------------------------------------------------------------

 ROUTINE             CALLS      AVE VOLUME [Bytes]
 MP_Group                5
 MP_Bcast             2357                 165394.
 MP_Allreduce         6331                    940.
 MP_Sync                 5
 MP_Alltoall           244                9937908.
 MP_SendRecv           837                  18832.
 MP_ISendRecv          837                  18832.
 MP_Wait              2391
 MP_ISend             1406                 108579.
 MP_IRecv             1406                 108603.
 -------------------------------------------------------------------------------


 -------------------------------------------------------------------------------
 -                                                                             -
 -                           R E F E R E N C E S                               -
 -                                                                             -
 -------------------------------------------------------------------------------
 
 CP2K version 2024.3 (Development Version), the CP2K developers group (2024).
 CP2K is freely available from https://www.cp2k.org/ .
 
 T. D. Kuehne, M. Iannuzzi, M. Del Ben, V. V. Rybkin, P. Seewald, F. Stein, T. 
 Laino, R. Z. Khaliullin, O. Schuett, F. Schiffmann, D. Golze, J. Wilhelm, S. 
 Chulkov, M. H. Bani-Hashemian, V. Weber, U. Borstnik, M. Taillefumier, A. S. 
 Jakobovits, A. Lazzaro, H. Pabst, T. Mueller, R. Schade, M. Guidon, S. 
 Andermatt, N. Holmberg, G. K. Schenter, A. Hehn, A. Bussy, F. Belleflamme, G. 
 Tabacchi, A. Gloess, M. Lass, I. Bethune, C. J. Mundy, C. Plessl, M. Watkins, 
 J. VandeVondele, M. Krack, J. Hutter.
 J. Chem. Phys. 152, 194103 (2020).
 CP2K: An electronic structure and molecular dynamics software package - 
 Quickstep: Efficient and accurate electronic structure calculations.
 https://doi.org/10.1063/5.0007045

 O. Schuett, P. Messmer, J. Hutter, J. VandeVondele.
 Electronic Structure Calculations on Graphics Processing Units, 173-190 (2016).
 GPU-Accelerated Sparse Matrix-Matrix Multiplication for Linear Scaling Density 
 Functional Theory.
 https://doi.org/10.1002/9781118670712.ch8

 A. Heinecke, G. Henry, M. Hutchinson, H. Pabst.
 Proceedings of Intl. Supercomputing Conference, 981-991 (2016).
 LIBXSMM: Accelerating Small Matrix Multiplications by Runtime Code Generation.
 https://doi.org/10.1109/SC.2016.83

 J. Hutter, M. Iannuzzi, F. Schiffmann, J. VandeVondele.
 WIREs Comput Mol Sci. 4, 15-25 (2014).
 CP2K: atomistic simulations of condensed matter systems.
 https://doi.org/10.1002/wcms.1159

 U. Borstnik, J. VandeVondele, V. Weber, J. Hutter.
 Parallel Comput. 40, 47-58 (2014).
 Sparse matrix multiplication: The distributed block-compressed sparse row 
 library.
 https://doi.org/10.1016/j.parco.2014.03.012

 A. Marek, V. Blum, R. Johanni, V. Havu, B. Lang, T. Auckenthaler, A. Heinecke, 
 H. Bungartz, H. Lederer.
 J. Phys. Condens. Matter 26, 213201 (2014).
 The ELPA library: scalable parallel eigenvalue solutions for electronic 
 structure theory and computational science.
 https://doi.org/10.1088/0953-8984/26/21/213201

 J. VandeVondele, U. Borstnik, J. Hutter.
 J. Chem. Theory Comput. 8, 3565-3573 (2012).
 Linear Scaling Self-Consistent Field Calculations with Millions of Atoms in the 
 Condensed Phase.
 https://doi.org/10.1021/ct200897x

 J. VandeVondele, J. Hutter.
 J. Chem. Phys. 127, 114105 (2007).
 Gaussian basis sets for accurate calculations on molecular systems in gas and 
 condensed phases.
 https://doi.org/10.1063/1.2770708

 J. VandeVondele, M. Krack, F. Mohamed, M. Parrinello, T. Chassaing, J. Hutter.
 Comput. Phys. Commun. 167, 103-128 (2005).
 QUICKSTEP: Fast and accurate density functional calculations using a mixed 
 Gaussian and plane waves approach.
 https://doi.org/10.1016/j.cpc.2004.12.014

 M. Krack.
 Theor. Chem. Acc. 114, 145-152 (2005).
 Pseudopotentials for H to Kr optimized for gradient-corrected 
 exchange-correlation functionals.
 https://doi.org/10.1007/s00214-005-0655-y

 M. Frigo, S. G. Johnson.
 Proc. IEEE 93, 216-231 (2005).
 The design and implementation of FFTW3.
 https://doi.org/10.1109/JPROC.2004.840301

 A. M. N. Niklasson, C. J. Tymczak, M. Challacombe.
 J. Chem. Phys. 118, 8611-8620 (2003).
 Trace resetting density matrix purification in O(N) self-consistent-field 
 theory.
 https://doi.org/10.1063/1.1559913

 C. Hartwigsen, S. Goedecker, J. Hutter.
 Phys. Rev. B 58, 3641-3662 (1998).
 Relativistic separable dual-space Gaussian pseudopotentials from H to Rn.
 https://doi.org/10.1103/PhysRevB.58.3641

 G. Lippert, J. Hutter, M. Parrinello.
 Mol. Phys. 92, 477-487 (1997).
 A hybrid Gaussian and plane wave density functional scheme.
 https://doi.org/10.1080/002689797170220

 S. Goedecker, M. Teter, J. Hutter.
 Phys. Rev. B 54, 1703-1710 (1996).
 Separable dual-space Gaussian pseudopotentials.
 https://doi.org/10.1103/PhysRevB.54.1703

 J. P. Perdew, K. Burke, M. Ernzerhof.
 Phys. Rev. Lett. 77, 3865-3868 (1996).
 Generalized gradient approximation made simple.
 https://doi.org/10.1103/PhysRevLett.77.3865


 -------------------------------------------------------------------------------
 -                                                                             -
 -                                T I M I N G                                  -
 -                                                                             -
 -------------------------------------------------------------------------------
 SUBROUTINE                       CALLS  ASD         SELF TIME        TOTAL TIME
                                MAXIMUM       AVERAGE  MAXIMUM  AVERAGE  MAXIMUM
 CP2K                                 1  1.0    0.013    0.017   20.503   20.504
 qs_energies                          1  2.0    0.000    0.000   20.345   20.346
 ls_scf                               1  3.0    0.000    0.000   19.218   19.219
 ls_scf_main                          1  4.0    0.000    0.000   16.680   16.680
 ls_scf_dm_to_ks                      8  5.0    0.000    0.000   12.422   12.426
 qs_ks_update_qs_env                  9  6.1    0.000    0.000    7.825    7.826
 rebuild_ks_matrix                    9  7.1    0.000    0.000    7.818    7.820
 qs_ks_build_kohn_sham_matrix         9  8.1    0.002    0.002    7.818    7.820
 qs_rho_update_rho_low                9  6.1    0.000    0.000    6.149    6.154
 calculate_rho_elec                   9  7.1    0.003    0.003    6.149    6.153
 sum_up_and_integrate                 9  9.1    0.000    0.000    5.923    5.924
 integrate_v_rspace                   9 10.1    0.000    0.000    5.915    5.916
 grid_collocate_task_list             9  8.1    5.445    5.538    5.445    5.538
 grid_integrate_task_list             9 11.1    5.200    5.314    5.200    5.314
 dbcsr_multiply_generic             246  6.2    0.012    0.013    4.641    4.647
 density_matrix_trs4                  8  5.0    0.004    0.005    4.252    4.255
 multiply_cannon                    246  7.2    0.018    0.022    3.767    3.844
 multiply_cannon_loop               246  8.2    0.019    0.022    3.692    3.755
 ls_scf_init_scf                      1  4.0    0.000    0.000    2.475    2.476
 multiply_cannon_multrec           1968  9.2    2.098    2.146    2.104    2.152
 mp_waitall_1                     16729 10.5    1.725    1.819    1.725    1.819
 fft_wrap_pw1pw2                    172 11.3    0.003    0.003    1.757    1.784
 fft_wrap_pw1pw2_200                100 12.8    0.102    0.110    1.685    1.732
 qs_vxc_create                        9  9.1    0.000    0.000    1.549    1.578
 xc_vxc_pw_create                     9 10.1    0.013    0.018    1.548    1.578
 ls_scf_initial_guess                 1  5.0    0.000    0.000    1.556    1.557
 ls_scf_qs_atomic_guess               1  6.0    0.000    0.000    1.556    1.557
 multiply_cannon_metrocomm3        1968  9.2    0.005    0.006    1.348    1.475
 fft3d_ps                           172 13.3    0.714    0.812    1.319    1.373
 xc_pw_derive                        54 12.1    0.001    0.001    1.097    1.172
 qs_energies_init_hamiltonians        1  3.0    0.000    0.000    1.127    1.127
 build_core_hamiltonian_matrix        1  4.0    0.000    0.000    0.727    0.938
 ls_scf_init_matrix_S                 1  5.0    0.000    0.000    0.919    0.920
 matrix_sqrt_Newton_Schulz            1  6.0    0.001    0.001    0.895    0.896
 xc_rho_set_and_dset_create           9 11.1    0.020    0.026    0.781    0.800
 xc_pw_divergence                     9 11.1    0.000    0.000    0.735    0.774
 density_rs2pw                        9  8.1    0.000    0.000    0.671    0.754
 mp_waitany                        1406 12.5    0.587    0.732    0.587    0.732
 make_m2s                           492  7.2    0.005    0.007    0.675    0.686
 build_core_ppl                       1  5.0    0.501    0.685    0.501    0.685
 make_images                        492  8.2    0.039    0.040    0.664    0.677
 transfer_rs2pw                      46  9.0    0.001    0.001    0.517    0.656
 mp_alltoall_z22v                   172 15.3    0.429    0.652    0.429    0.652
 potential_pw2rs                      9 11.1    0.001    0.001    0.596    0.598
 transfer_rs2pw_200                  10  9.8    0.029    0.039    0.414    0.552
 qs_env_update_s_mstruct              1  4.0    0.000    0.000    0.380    0.474
 yz_to_x                             64 14.2    0.061    0.090    0.280    0.423
 arnoldi_extremal                     9  6.1    0.000    0.000    0.419    0.420
 arnoldi_normal_ev                    9  7.1    0.000    0.001    0.418    0.419
 -------------------------------------------------------------------------------

 The number of warnings for this run is : 1
 
 -------------------------------------------------------------------------------
  **** **** ******  **  PROGRAM ENDED AT                 2024-09-23 17:36:39.580
 ***** ** ***  *** **   PROGRAM RAN ON                                    moritz
 **    ****   ******    PROGRAM RAN BY                                       ole
 ***** **    ** ** **   PROGRAM PROCESS ID                                156634
  **** **  *******  **  PROGRAM STOPPED IN /home/ole/git/pao_ml_equivar/64H2O_MD
                                           /Frame2000
