 DBCSR| CPU Multiplication driver                                           XSMM (U)
 DBCSR| Multrec recursion limit                                              512 (U)
 DBCSR| Multiplication stack size                                           1000 (D)
 DBCSR| Maximum elements for images                                    UNLIMITED (U)
 DBCSR| Multiplicative factor virtual images                                   1 (U)
 DBCSR| Use multiplication densification                                       T (D)
 DBCSR| Multiplication size stacks                                             3 (U)
 DBCSR| Use memory pool for CPU allocation                                     F (U)
 DBCSR| Number of 3D layers                                               SINGLE (U)
 DBCSR| Use MPI memory allocation                                              F (U)
 DBCSR| Use RMA algorithm                                                      F (U)
 DBCSR| Use Communication thread                                               T (U)
 DBCSR| Communication thread load                                             87 (D)
 DBCSR| MPI: My process id                                                     0
 DBCSR| MPI: Number of processes                                              32
 DBCSR| OMP: Current number of threads                                         1
 DBCSR| OMP: Max number of threads                                             1
 DBCSR| Split modifier for TAS multiplication algorithm                  1.0E+00 (U)


  **** **** ******  **  PROGRAM STARTED AT               2024-09-24 00:45:07.536
 ***** ** ***  *** **   PROGRAM STARTED ON                                moritz
 **    ****   ******    PROGRAM STARTED BY                                   ole
 ***** **    ** ** **   PROGRAM PROCESS ID                                165509
  **** **  *******  **  PROGRAM STARTED IN /home/ole/git/pao_ml_equivar/64H2O_MD
                                           /Frame2000

 CP2K| version string:                 CP2K version 2024.3 (Development Version)
 CP2K| source code revision number:                                  git:3f890bb
 CP2K| cp2kflags: omp libint fftw3 libxc libgrpp pexsi elpa parallel scalapack c
 CP2K|            osma quip deepmd xsmm plumed2 spglib libdftd4 sirius libvori l
 CP2K|            libbqb libvdwxc hdf5
 CP2K| is freely available from                            https://www.cp2k.org/
 CP2K| Program compiled at                          Mo 23 Sep 2024 17:17:04 CEST
 CP2K| Program compiled on                                                moritz
 CP2K| Program compiled for                                                local
 CP2K| Data directory path                               /home/ole/git/cp2k/data
 CP2K| Input file name                                           64H2O_pao44.inp

 GLOBAL| Force Environment number                                              1
 GLOBAL| Basis set file name                                        BASIS_MOLOPT
 GLOBAL| Potential file name                                      GTH_POTENTIALS
 GLOBAL| MM Potential file name                                     MM_POTENTIAL
 GLOBAL| Coordinate file name                                         coords.xyz
 GLOBAL| Method name                                                        CP2K
 GLOBAL| Project name                                                64H2O_pao44
 GLOBAL| Run type                                                         ENERGY
 GLOBAL| FFT library                                                       FFTW3
 GLOBAL| Diagonalization library                                            ELPA
 GLOBAL| DGEMM library                                                      BLAS
 GLOBAL| Minimum number of eigenvectors for ELPA usage                        16
 GLOBAL| Orthonormality check for eigenvectors                          DISABLED
 GLOBAL| Matrix multiplication library                                     COSMA
 GLOBAL| All-to-all communication in single precision                          F
 GLOBAL| FFTs using library dependent lengths                                  F
 GLOBAL| Grid backend                                                       AUTO
 GLOBAL| Global print level                                                  LOW
 GLOBAL| MPI I/O enabled                                                       T
 GLOBAL| Total number of message passing processes                            32
 GLOBAL| Number of threads for this process                                    1
 GLOBAL| This output is from process                                           0
 GLOBAL| Stack size for threads created by OpenMP (OMP_STACKSIZE)        default
 GLOBAL| CPU model name           AMD Ryzen Threadripper 3970X 32-Core Processor
 GLOBAL| CPUID                                                              1002

 MEMORY| system memory details [Kb]
 MEMORY|                        rank 0           min           max       average
 MEMORY| MemTotal            131752136     131752136     131752136     131752136
 MEMORY| MemFree             114321076     114321076     114321076     114321076
 MEMORY| Buffers               1996168       1996168       1996168       1996168
 MEMORY| Cached                8630436       8630432       8630436       8630432
 MEMORY| Slab                  1641432       1641432       1641432       1641432
 MEMORY| SReclaimable          1143732       1143732       1143732       1143732
 MEMORY| MemLikelyFree       126091412     126091408     126091412     126091408


 GENERATE|  Preliminary Number of Bonds generated:                             0
 GENERATE|  Achieved consistency in connectivity generation.

 *******************************************************************************
 *******************************************************************************
 **                                                                           **
 **     #####                         ##              ##                      **
 **    ##   ##            ##          ##              ##                      **
 **   ##     ##                       ##            ######                    **
 **   ##     ##  ##   ##  ##   #####  ##  ##   ####   ##    #####    #####    **
 **   ##     ##  ##   ##  ##  ##      ## ##   ##      ##   ##   ##  ##   ##   **
 **   ##  ## ##  ##   ##  ##  ##      ####     ###    ##   ######   ######    **
 **    ##  ###   ##   ##  ##  ##      ## ##      ##   ##   ##       ##        **
 **     #######   #####   ##   #####  ##  ##  ####    ##    #####   ##        **
 **           ##                                                    ##        **
 **                                                                           **
 **                                                ... make the atoms dance   **
 **                                                                           **
 **            Copyright (C) by CP2K developers group (2000-2024)             **
 **                      J. Chem. Phys. 152, 194103 (2020)                    **
 **                                                                           **
 *******************************************************************************


 TOTAL NUMBERS AND MAXIMUM NUMBERS

  Total number of            - Atomic kinds:                                   2
                             - Atoms:                                        192
                             - Shell sets:                                   192
                             - Shells:                                       704
                             - Primitive Cartesian functions:               1344
                             - Cartesian basis functions:                   1536
                             - Spherical basis functions:                   1472

  Maximum angular momentum of- Orbital basis functions:                        2
                             - Local part of the GTH pseudopotential:          2
                             - Non-local part of the GTH pseudopotential:      0

 ------------------------------ Linear scaling SCF -----------------------------
 eps_scf:                                                              0.100E-07
 eps_filter:                                                           0.100E-11
 mixing_fraction:                                                      0.450E+00
 max_scf:                                                                     25
 fixed chemical potential (mu)                                                 F
 has unit metric:                                                              F
 Computing inv(S):                                                             T
 Computing sqrt(S):                                                            T
 Computing S preconditioner                                                    F
 S sqrt method:                                                     NEWTONSCHULZ
 S sqrt order:                                                                 3
 Extrapolation order:                                                          1
 S preconditioner type                                                      NONE
 Polarized Atomic Orbitals (PAO)                                               T
 Purification method                                   Trace resetting 4th order
 Cluster type                                                             ATOMIC
 Computing Chebyshev                                                       FALSE
 Using PAO                                                                     T
 -------------------------------------------------------------------------------

 
 PAO|                                  EPS_PAO                           0.5E-06
 PAO|                                  MIXING                            0.5E+00
 PAO|                                  MAX_PAO                              1500
 PAO|                                  MAX_CYCLES                           1000
 PAO|                                  PARAMETERIZATION              EQUIVARIANT
 PAO|                                  PRECONDITION                            F
 PAO|                                  REGULARIZATION                    0.0E+00
 PAO|                                  EPS_PGF                           0.1E-09
 PAO|                                  PENALTY_DISTANCE                  0.1E+00
 PAO|                                  PENALTY_STRENGTH                  0.5E-02
 PAO|                                  LINPOT_PRECONDITION_DELTA         0.0E+00
 PAO|                                  LINPOT_INITGUESS_DELT             0.0E+00
 PAO|                                  LINPOT_REGULARIZATION_DELTA       0.0E+00
 PAO|                                  LINPOT_REGULARIZATION_STRENGTH    0.0E+00
 PAO|                                  OPTIMIZER                              CG
 PAO|                                  CG_INIT_STEPS                           2
 PAO|                                  CG_RESET_LIMIT                    0.1E+00
 PAO|                                  CHECK_UNITARY_TOL                -0.1E+01
 PAO|                                  CHECK_GRADIENT_TOL               -0.1E+01
 PAO|                                  NUM_GRADIENT_ORDER                      2
 PAO|                                  NUM_GRADIENT_EPS                  0.1E-07
 PAO|                                  PRINT%RESTART%WRITE_CYCLES            100
 PAO|                                  RESTART_FILE 
 PAO|                                  PREOPT_DM_FILE 64H2O_ref_LS_DM_SPIN_1_RESTART.dm
 PAO|                                  MACHINE_LEARNING%METHOD       GAUSSIAN_PR
 PAO|                                  MACHINE_LEARNING%PRIOR               ZERO
 PAO|                                  MACHINE_LEARNING%DESCRIPTOR     POTENTIAL
 PAO|                                  MACHINE_LEARNING%TOLERANCE        0.1E-01
 PAO|                                  MACHINE_LEARNING%GP_NOISE_VAR     0.1E+00
 PAO|                                  MACHINE_LEARNING%GP_SCALE         0.5E-01
 

 Calculating atomic Fock matrix for atomic kind: O

 Electronic structure
    Total number of core electrons                                          2.00
    Total number of valence electrons                                       6.00
    Total number of electrons                                               8.00
    Multiplicity                                                   not specified
    S   [  2.00] 2.00
    P      4.00


 *******************************************************************************
                  Iteration          Convergence                     Energy [au]
 *******************************************************************************
                          1        0.708315                     -15.576645311500
                          2        0.608879                     -15.587933561584
                          3        0.102828E-01                 -15.656849565404
                          4        0.113889E-02                 -15.656866888140
                          5        0.434197E-03                 -15.656867072159
                          6        0.263771E-03                 -15.656867091904
                          7        0.478536E-06                 -15.656867103452

 Energy components [Hartree]           Total Energy ::          -15.656867103452
                                        Band Energy ::           -3.000198112285
                                     Kinetic Energy ::           11.759971203220
                                   Potential Energy ::          -27.416838306672
                                      Virial (-V/T) ::            2.331369510426
                                        Core Energy ::          -26.140716385623
                                          XC Energy ::           -3.154051012914
                                     Coulomb Energy ::           13.637900295084
                       Total Pseudopotential Energy ::          -37.935781716540
                       Local Pseudopotential Energy ::          -39.218907440693
                    Nonlocal Pseudopotential Energy ::            1.283125724153
                                        Confinement ::            0.350941276976

 Orbital energies  State     L     Occupation   Energy[a.u.]          Energy[eV]

                       1     0          2.000      -0.864471          -23.523463

                       1     1          4.000      -0.317814           -8.648154


 Total Electron Density at R=0:                                         0.000068

 Calculating atomic Fock matrix for atomic kind: H

 Electronic structure
    Total number of core electrons                                          0.00
    Total number of valence electrons                                       1.00
    Total number of electrons                                               1.00
    Multiplicity                                                   not specified
    S      1.00


 *******************************************************************************
                  Iteration          Convergence                     Energy [au]
 *******************************************************************************
                          1        0.437545E-02                  -0.424159432110
                          2        0.531356E-03                  -0.424178438213
                          3        0.259176E-06                  -0.424178722480

 Energy components [Hartree]           Total Energy ::           -0.424178722480
                                        Band Energy ::           -0.199015229016
                                     Kinetic Energy ::            0.464007633961
                                   Potential Energy ::           -0.888186356441
                                      Virial (-V/T) ::            1.914163240935
                                        Core Energy ::           -0.479160803564
                                          XC Energy ::           -0.244352904054
                                     Coulomb Energy ::            0.299334985138
                       Total Pseudopotential Energy ::           -0.962295316385
                       Local Pseudopotential Energy ::           -0.962295316385
                    Nonlocal Pseudopotential Energy ::            0.000000000000
                                        Confinement ::            0.191268788606

 Orbital energies  State     L     Occupation   Energy[a.u.]          Energy[eV]

                       1     0          1.000      -0.199015           -5.415480


 Total Electron Density at R=0:                                         0.242907
 PAO| Made initial guess for matrix_X with norm:   27.712812921102035     

     Lanczos converged:  F threshold:   0.100E-02
     Est. extremal eigenvalues:    0.610E+01   0.945E-01
     Est. condition number :    0.645E+02

 Order=           3
     NS sqrt iter    1 1.00000000   0.149E+01       0.021     2649.334
     NS sqrt iter    2 1.00000000   0.809E+00       0.034     3342.507
     NS sqrt iter    3 1.00000000   0.324E+00       0.034     3360.735
     NS sqrt iter    4 1.00000000   0.887E-01       0.034     3342.314
     NS sqrt iter    5 1.00000000   0.297E-02       0.034     3355.516
     NS sqrt iter    6 1.00000000   0.210E-06       0.029     2931.954
     Symmetrizing Results
     Final NS sqrt iter    6 1.00000000   0.952E-13

 PAO| Read restart DM 64H2O_ref_LS_DM_SPIN_1_RESTART.dm with checksum:    6178.0889960021141     
 PAO| Quickstep energy from restart density:  -1103.1516668122340     
 PAO| ======================= Iteration:         1 =============================

     Lanczos converged:  F threshold:   0.100E-02
     Est. extremal eigenvalues:    0.610E+01   0.945E-01
     Est. condition number :    0.645E+02

 Order=           3
     NS sqrt iter    1 1.00000000   0.149E+01       0.021     2709.997
     NS sqrt iter    2 1.00000000   0.809E+00       0.034     3372.815
     NS sqrt iter    3 1.00000000   0.324E+00       0.034     3378.068
     NS sqrt iter    4 1.00000000   0.887E-01       0.034     3349.293
     NS sqrt iter    5 1.00000000   0.297E-02       0.034     3339.642
     NS sqrt iter    6 1.00000000   0.210E-06       0.029     2918.223
     Symmetrizing Results
     Final NS sqrt iter    6 1.00000000   0.951E-13

     Est. extremal eigenvalues     -0.82635     2.58551  converged:  T
     TRS4 it   1 1.00000000   0.273E+02       0.007     2096.440   0.100E-11
     TRS4 it   2 1.00000000   0.235E+02       0.013     2218.753   0.100E-11
     TRS4 it   3 1.00000000   0.162E+02       0.013     2175.559   0.100E-11
     TRS4 it   4 1.00000000   0.102E+02       0.013     2189.356   0.100E-11
     TRS4 it   5 1.00000000   0.497E+01       0.013     2163.465   0.100E-11
     TRS4 it   6 1.00000000   0.168E+01       0.013     2199.651   0.100E-11
     TRS4 it   7 1.00000000   0.340E+00       0.013     2199.782   0.100E-11
     TRS4 it   8 1.00000000   0.254E-01       0.013     2208.894   0.100E-11
     TRS4 it   9 1.00000000   0.253E-03       0.013     2188.871   0.100E-11
     TRS4 it  10 1.00000000   0.328E-07       0.013     2191.555   0.100E-11
     TRS4 it  11 1.00000000   0.178E-14       0.013     2214.637   0.100E-11
     Final TRS4 iteration   11 1.00000000   0.178E-14
     Chemical potential (mu):       0.01037
 
 PAO| energy:  -185.99551379509523      penalty:   1.4877423634402518E-031
 PAO|CG| warming up with steepest descent
 PAO|CG| beta:    0.0000000000000000     
 PAO| norm of gradient:   3.9768490481188046     
 PAO|LS| adapt:  T F F
 PAO|LS| adapt: scan_steps:    0.0000000000000000        0.0000000000000000        0.0000000000000000     
 PAO|LS| adapt: energies:   -185.99551379509523        0.0000000000000000        0.0000000000000000     
 PAO| ======================= Iteration:         2 =============================

     Lanczos converged:  F threshold:   0.100E-02
     Est. extremal eigenvalues:    0.588E+01   0.101E+00
     Est. condition number :    0.581E+02

 Order=           3
     NS sqrt iter    1 1.00000000   0.145E+01       0.021     2702.919
     NS sqrt iter    2 1.00000000   0.779E+00       0.033     3389.690
     NS sqrt iter    3 1.00000000   0.303E+00       0.034     3316.179
     NS sqrt iter    4 1.00000000   0.742E-01       0.034     3369.129
     NS sqrt iter    5 1.00000000   0.182E-02       0.034     3341.769
     NS sqrt iter    6 1.00000000   0.564E-07       0.029     2944.112
     Symmetrizing Results
     Final NS sqrt iter    6 1.00000000   0.877E-14

     Est. extremal eigenvalues     -0.82959     2.58237  converged:  T
     TRS4 it   1 1.00000000   0.275E+02       0.007     2125.210   0.100E-11
     TRS4 it   2 1.00000000   0.235E+02       0.013     2216.930   0.100E-11
     TRS4 it   3 1.00000000   0.160E+02       0.013     2178.240   0.100E-11
     TRS4 it   4 1.00000000   0.997E+01       0.013     2193.144   0.100E-11
     TRS4 it   5 1.00000000   0.475E+01       0.013     2187.512   0.100E-11
     TRS4 it   6 1.00000000   0.154E+01       0.013     2196.217   0.100E-11
     TRS4 it   7 1.00000000   0.292E+00       0.013     2219.049   0.100E-11
     TRS4 it   8 1.00000000   0.183E-01       0.013     2207.395   0.100E-11
     TRS4 it   9 1.00000000   0.118E-03       0.013     2192.576   0.100E-11
     TRS4 it  10 1.00000000   0.831E-08       0.013     2192.396   0.100E-11
     TRS4 it  11 1.00000000   0.533E-14       0.013     2188.855   0.100E-11
     Final TRS4 iteration   11 1.00000000   0.533E-14
     Chemical potential (mu):       0.01625
 
 PAO| energy:  -187.44763190866942      penalty:   4.6877886878162291E-007
 PAO|LS| adapt:  T T F
 PAO|LS| adapt: scan_steps:    0.0000000000000000       0.10000000000000001        0.0000000000000000     
 PAO|LS| adapt: energies:   -185.99551379509523       -187.44763190866942        0.0000000000000000     
 PAO| ======================= Iteration:         3 =============================

     Lanczos converged:  F threshold:   0.100E-02
     Est. extremal eigenvalues:    0.566E+01   0.107E+00
     Est. condition number :    0.529E+02

 Order=           3
     NS sqrt iter    1 1.00000000   0.140E+01       0.021     2688.835
     NS sqrt iter    2 1.00000000   0.750E+00       0.034     3357.605
     NS sqrt iter    3 1.00000000   0.283E+00       0.034     3356.745
     NS sqrt iter    4 1.00000000   0.619E-01       0.033     3409.667
     NS sqrt iter    5 1.00000000   0.113E-02       0.034     3362.683
     NS sqrt iter    6 1.00000000   0.160E-07       0.029     2906.158
     Symmetrizing Results
     Final NS sqrt iter    6 1.00000000   0.370E-14

     Est. extremal eigenvalues     -0.83266     2.58400  converged:  T
     TRS4 it   1 1.00000000   0.278E+02       0.007     2123.029   0.100E-11
     TRS4 it   2 1.00000000   0.235E+02       0.013     2191.185   0.100E-11
     TRS4 it   3 1.00000000   0.159E+02       0.013     2214.453   0.100E-11
     TRS4 it   4 1.00000000   0.978E+01       0.013     2198.938   0.100E-11
     TRS4 it   5 1.00000000   0.454E+01       0.013     2184.676   0.100E-11
     TRS4 it   6 1.00000000   0.141E+01       0.013     2207.979   0.100E-11
     TRS4 it   7 1.00000000   0.248E+00       0.013     2217.616   0.100E-11
     TRS4 it   8 1.00000000   0.128E-01       0.013     2190.147   0.100E-11
     TRS4 it   9 1.00000000   0.513E-04       0.013     2215.520   0.100E-11
     TRS4 it  10 1.00000000   0.183E-08       0.013     2202.198   0.100E-11
     TRS4 it  11 1.00000000   0.480E-13       0.013     2173.537   0.100E-11
     Final TRS4 iteration   11 1.00000000   0.480E-13
     Chemical potential (mu):       0.02309
 
 PAO| energy:  -188.62446157123117      penalty:   7.5004619005192429E-006
 PAO|LS| adapt:  T T F
 PAO|LS| adapt: scan_steps:    0.0000000000000000       0.20000000000000001        0.0000000000000000     
 PAO|LS| adapt: energies:   -185.99551379509523       -188.62446157123117        0.0000000000000000     
 PAO| ======================= Iteration:         4 =============================

     Lanczos converged:  T threshold:   0.100E-02
     Est. extremal eigenvalues:    0.525E+01   0.116E+00
     Est. condition number :    0.451E+02

 Order=           3
     NS sqrt iter    1 1.00000000   0.132E+01       0.021     2689.020
     NS sqrt iter    2 1.00000000   0.693E+00       0.034     3363.726
     NS sqrt iter    3 1.00000000   0.245E+00       0.033     3385.919
     NS sqrt iter    4 1.00000000   0.429E-01       0.034     3359.254
     NS sqrt iter    5 1.00000000   0.449E-03       0.034     3379.509
     NS sqrt iter    6 1.00000000   0.134E-08       0.029     2835.292
     Symmetrizing Results
     Final NS sqrt iter    6 1.00000000   0.208E-13

     Est. extremal eigenvalues     -0.83772     2.59215  converged:  T
     TRS4 it   1 1.00000000   0.282E+02       0.007     2093.633   0.100E-11
     TRS4 it   2 1.00000000   0.236E+02       0.013     2217.336   0.100E-11
     TRS4 it   3 1.00000000   0.158E+02       0.013     2206.444   0.100E-11
     TRS4 it   4 1.00000000   0.945E+01       0.013     2163.774   0.100E-11
     TRS4 it   5 1.00000000   0.417E+01       0.013     2200.936   0.100E-11
     TRS4 it   6 1.00000000   0.119E+01       0.013     2174.748   0.100E-11
     TRS4 it   7 1.00000000   0.177E+00       0.013     2232.070   0.100E-11
     TRS4 it   8 1.00000000   0.596E-02       0.013     2224.798   0.100E-11
     TRS4 it   9 1.00000000   0.889E-05       0.013     2190.851   0.100E-11
     TRS4 it  10 1.00000000   0.649E-10       0.013     2195.929   0.100E-11
     Final TRS4 iteration   10 1.00000000   0.649E-10
     Chemical potential (mu):       0.04125
 
 PAO| energy:  -190.10932821205833      penalty:   1.2000739040841647E-004
 PAO|LS| Need extra step
 PAO|LS| adapt:  T T F
 PAO|LS| adapt: scan_steps:    0.0000000000000000       0.40000000000000002        0.0000000000000000     
 PAO|LS| adapt: energies:   -185.99551379509523       -190.10932821205833        0.0000000000000000     
 PAO| ======================= Iteration:         5 =============================

     Lanczos converged:  T threshold:   0.100E-02
     Est. extremal eigenvalues:    0.459E+01   0.131E+00
     Est. condition number :    0.349E+02

 Order=           3
     NS sqrt iter    1 1.00000000   0.119E+01       0.021     2708.001
     NS sqrt iter    2 1.00000000   0.603E+00       0.034     3373.415
     NS sqrt iter    3 1.00000000   0.188E+00       0.034     3373.559
     NS sqrt iter    4 1.00000000   0.220E-01       0.034     3365.686
     NS sqrt iter    5 1.00000000   0.803E-04       0.033     3382.459
     NS sqrt iter    6 1.00000000   0.111E-10       0.016     2138.651
     Symmetrizing Results
     Final NS sqrt iter    6 1.00000000   0.176E-11

     Est. extremal eigenvalues     -0.84126     2.59663  converged:  T
     TRS4 it   1 1.00000000   0.288E+02       0.007     2134.922   0.100E-11
     TRS4 it   2 1.00000000   0.236E+02       0.013     2209.709   0.100E-11
     TRS4 it   3 1.00000000   0.155E+02       0.013     2194.983   0.100E-11
     TRS4 it   4 1.00000000   0.895E+01       0.013     2165.182   0.100E-11
     TRS4 it   5 1.00000000   0.364E+01       0.013     2201.453   0.100E-11
     TRS4 it   6 1.00000000   0.884E+00       0.013     2199.539   0.100E-11
     TRS4 it   7 1.00000000   0.960E-01       0.013     2206.440   0.100E-11
     TRS4 it   8 1.00000000   0.163E-02       0.013     2188.654   0.100E-11
     TRS4 it   9 1.00000000   0.636E-06       0.013     2173.034   0.100E-11
     TRS4 it  10 1.00000000   0.362E-12       0.013     2200.902   0.100E-11
     Final TRS4 iteration   10 1.00000000   0.362E-12
     Chemical potential (mu):       0.06445
 
 PAO| energy:  -189.72561769934029      penalty:   1.9201182465355413E-003
 PAO|LS| Need extra step
 PAO|LS| adapt:  T T T
 PAO|LS| adapt: scan_steps:    0.0000000000000000       0.40000000000000002       0.80000000000000004     
 PAO|LS| adapt: energies:   -185.99551379509523       -190.10932821205833       -189.72561769934029     
 PAO|LS| adapt: suggested step_size:   0.56587362883209247     
 PAO|LS| adapt: predicted energy  -190.49603188113201     
 PAO| ======================= Iteration:         6 =============================

     Lanczos converged:  T threshold:   0.100E-02
     Est. extremal eigenvalues:    0.494E+01   0.123E+00
     Est. condition number :    0.402E+02

 Order=           3
     NS sqrt iter    1 1.00000000   0.126E+01       0.021     2691.545
     NS sqrt iter    2 1.00000000   0.651E+00       0.034     3375.502
     NS sqrt iter    3 1.00000000   0.218E+00       0.034     3359.580
     NS sqrt iter    4 1.00000000   0.320E-01       0.034     3358.523
     NS sqrt iter    5 1.00000000   0.214E-03       0.034     3357.703
     NS sqrt iter    6 1.00000000   0.175E-09       0.027     2574.694
     Symmetrizing Results
     Final NS sqrt iter    6 1.00000000   0.983E-12

     Est. extremal eigenvalues     -0.84038     2.59631  converged:  T
     TRS4 it   1 1.00000000   0.285E+02       0.007     2091.876   0.100E-11
     TRS4 it   2 1.00000000   0.236E+02       0.013     2196.021   0.100E-11
     TRS4 it   3 1.00000000   0.157E+02       0.013     2185.088   0.100E-11
     TRS4 it   4 1.00000000   0.922E+01       0.013     2200.282   0.100E-11
     TRS4 it   5 1.00000000   0.392E+01       0.013     2210.926   0.100E-11
     TRS4 it   6 1.00000000   0.104E+01       0.013     2191.945   0.100E-11
     TRS4 it   7 1.00000000   0.134E+00       0.013     2231.063   0.100E-11
     TRS4 it   8 1.00000000   0.327E-02       0.013     2182.931   0.100E-11
     TRS4 it   9 1.00000000   0.249E-05       0.013     2203.594   0.100E-11
     TRS4 it  10 1.00000000   0.510E-11       0.013     2215.037   0.100E-11
     Final TRS4 iteration   10 1.00000000   0.510E-11
     Chemical potential (mu):       0.05224
 
 PAO| energy:  -190.47019625617634      penalty:   4.8066870501184948E-004
 PAO|CG| warming up with steepest descent
 PAO|CG| beta:    0.0000000000000000     
 PAO| norm of gradient:   2.0959811175310121     
 PAO| energy improvement:  -4.4746824610811018     
 PAO| step      6                 -190.470196256  0.409E-02  0.566E+00     2.411
 PAO|LS| adapt:  T F F
 PAO|LS| adapt: scan_steps:    0.0000000000000000        0.0000000000000000        0.0000000000000000     
 PAO|LS| adapt: energies:   -190.47019625617634        0.0000000000000000        0.0000000000000000     
 PAO| ======================= Iteration:         7 =============================

     Lanczos converged:  T threshold:   0.100E-02
     Est. extremal eigenvalues:    0.480E+01   0.131E+00
     Est. condition number :    0.368E+02

 Order=           3
     NS sqrt iter    1 1.00000000   0.123E+01       0.021     2660.487
     NS sqrt iter    2 1.00000000   0.628E+00       0.034     3368.863
     NS sqrt iter    3 1.00000000   0.202E+00       0.034     3368.486
     NS sqrt iter    4 1.00000000   0.258E-01       0.034     3345.061
     NS sqrt iter    5 1.00000000   0.119E-03       0.034     3371.415
     NS sqrt iter    6 1.00000000   0.317E-10       0.020     2233.030
     Symmetrizing Results
     Final NS sqrt iter    6 1.00000000   0.221E-11

     Est. extremal eigenvalues     -0.84100     2.58873  converged:  T
     TRS4 it   1 1.00000000   0.286E+02       0.007     2157.843   0.100E-11
     TRS4 it   2 1.00000000   0.236E+02       0.013     2217.035   0.100E-11
     TRS4 it   3 1.00000000   0.158E+02       0.013     2194.402   0.100E-11
     TRS4 it   4 1.00000000   0.935E+01       0.013     2205.278   0.100E-11
     TRS4 it   5 1.00000000   0.402E+01       0.013     2202.937   0.100E-11
     TRS4 it   6 1.00000000   0.107E+01       0.013     2214.713   0.100E-11
     TRS4 it   7 1.00000000   0.135E+00       0.013     2209.460   0.100E-11
     TRS4 it   8 1.00000000   0.327E-02       0.013     2197.723   0.100E-11
     TRS4 it   9 1.00000000   0.256E-05       0.013     2213.218   0.100E-11
     TRS4 it  10 1.00000000   0.585E-11       0.013     2210.557   0.100E-11
     Final TRS4 iteration   10 1.00000000   0.585E-11
     Chemical potential (mu):       0.05482
 
 PAO| energy:  -189.56037000714434      penalty:   6.7687689313948390E-004
 PAO|LS| adapt:  T F T
 PAO|LS| adapt: scan_steps:    0.0000000000000000        0.0000000000000000       0.56587362883209247     
 PAO|LS| adapt: energies:   -190.47019625617634        0.0000000000000000       -189.56037000714434     
 PAO| ======================= Iteration:         8 =============================

     Lanczos converged:  T threshold:   0.100E-02
     Est. extremal eigenvalues:    0.487E+01   0.127E+00
     Est. condition number :    0.385E+02

 Order=           3
     NS sqrt iter    1 1.00000000   0.124E+01       0.021     2687.865
     NS sqrt iter    2 1.00000000   0.639E+00       0.034     3377.396
     NS sqrt iter    3 1.00000000   0.210E+00       0.034     3345.229
     NS sqrt iter    4 1.00000000   0.288E-01       0.034     3355.600
     NS sqrt iter    5 1.00000000   0.160E-03       0.034     3354.157
     NS sqrt iter    6 1.00000000   0.759E-10       0.024     2423.969
     Symmetrizing Results
     Final NS sqrt iter    6 1.00000000   0.196E-11

     Est. extremal eigenvalues     -0.84174     2.59342  converged:  T
     TRS4 it   1 1.00000000   0.285E+02       0.007     2116.543   0.100E-11
     TRS4 it   2 1.00000000   0.236E+02       0.013     2186.379   0.100E-11
     TRS4 it   3 1.00000000   0.157E+02       0.013     2185.313   0.100E-11
     TRS4 it   4 1.00000000   0.925E+01       0.013     2187.865   0.100E-11
     TRS4 it   5 1.00000000   0.394E+01       0.013     2185.124   0.100E-11
     TRS4 it   6 1.00000000   0.104E+01       0.013     2210.768   0.100E-11
     TRS4 it   7 1.00000000   0.134E+00       0.013     2193.528   0.100E-11
     TRS4 it   8 1.00000000   0.325E-02       0.013     2201.463   0.100E-11
     TRS4 it   9 1.00000000   0.250E-05       0.013     2179.056   0.100E-11
     TRS4 it  10 1.00000000   0.522E-11       0.013     2208.348   0.100E-11
     Final TRS4 iteration   10 1.00000000   0.522E-11
     Chemical potential (mu):       0.05244
 
 PAO| energy:  -190.85055409146665      penalty:   5.1008944724434315E-004
 PAO|LS| adapt:  T T T
 PAO|LS| adapt: scan_steps:    0.0000000000000000       0.28293681441604623       0.56587362883209247     
 PAO|LS| adapt: energies:   -190.47019625617634       -190.85055409146665       -189.56037000714434     
 PAO|LS| adapt: suggested step_size:   0.20588896019850383     
 PAO|LS| adapt: predicted energy  -190.91249385736756     
 PAO| ======================= Iteration:         9 =============================

     Lanczos converged:  T threshold:   0.100E-02
     Est. extremal eigenvalues:    0.489E+01   0.126E+00
     Est. condition number :    0.389E+02

 Order=           3
     NS sqrt iter    1 1.00000000   0.125E+01       0.021     2652.402
     NS sqrt iter    2 1.00000000   0.643E+00       0.034     3366.544
     NS sqrt iter    3 1.00000000   0.212E+00       0.034     3368.386
     NS sqrt iter    4 1.00000000   0.297E-01       0.034     3379.291
     NS sqrt iter    5 1.00000000   0.173E-03       0.033     3383.154
     NS sqrt iter    6 1.00000000   0.957E-10       0.025     2490.477
     Symmetrizing Results
     Final NS sqrt iter    6 1.00000000   0.176E-11

     Est. extremal eigenvalues     -0.84158     2.59440  converged:  T
     TRS4 it   1 1.00000000   0.285E+02       0.007     2112.258   0.100E-11
     TRS4 it   2 1.00000000   0.236E+02       0.013     2206.203   0.100E-11
     TRS4 it   3 1.00000000   0.157E+02       0.013     2179.456   0.100E-11
     TRS4 it   4 1.00000000   0.924E+01       0.013     2209.393   0.100E-11
     TRS4 it   5 1.00000000   0.393E+01       0.013     2194.590   0.100E-11
     TRS4 it   6 1.00000000   0.104E+01       0.013     2180.152   0.100E-11
     TRS4 it   7 1.00000000   0.134E+00       0.013     2203.442   0.100E-11
     TRS4 it   8 1.00000000   0.325E-02       0.013     2196.994   0.100E-11
     TRS4 it   9 1.00000000   0.249E-05       0.013     2206.694   0.100E-11
     TRS4 it  10 1.00000000   0.515E-11       0.013     2186.462   0.100E-11
     Final TRS4 iteration   10 1.00000000   0.515E-11
     Chemical potential (mu):       0.05216
 
 PAO| energy:  -190.91679187210855      penalty:   4.9290055218676918E-004
 PAO|CG| trace_G_new   0.73669658037448049     
 PAO|CG| trace_G_prev    4.3931368450465502     
 PAO|CG| trace_G_mix   -4.2879287459506130E-002
 PAO|CG| trace_D    4.3931368450465502     
 PAO|CG| trace_D_Gnew   4.2879287459506130E-002
 PAO|CG| beta:   0.17745312639486560     
 PAO| norm of gradient:  0.85831030541085807     
 PAO| energy improvement: -0.44659561593221042     
 PAO| step      9                 -190.916791872  0.168E-02  0.206E+00     1.468
 PAO|LS| adapt:  T F F
 PAO|LS| adapt: scan_steps:    0.0000000000000000        0.0000000000000000        0.0000000000000000     
 PAO|LS| adapt: energies:   -190.91679187210855        0.0000000000000000        0.0000000000000000     
 PAO| ======================= Iteration:        10 =============================

     Lanczos converged:  T threshold:   0.100E-02
     Est. extremal eigenvalues:    0.484E+01   0.129E+00
     Est. condition number :    0.375E+02

 Order=           3
     NS sqrt iter    1 1.00000000   0.124E+01       0.021     2697.117
     NS sqrt iter    2 1.00000000   0.634E+00       0.034     3329.066
     NS sqrt iter    3 1.00000000   0.207E+00       0.034     3366.033
     NS sqrt iter    4 1.00000000   0.275E-01       0.034     3319.114
     NS sqrt iter    5 1.00000000   0.138E-03       0.034     3357.828
     NS sqrt iter    6 1.00000000   0.483E-10       0.022     2314.171
     Symmetrizing Results
     Final NS sqrt iter    6 1.00000000   0.224E-11

     Est. extremal eigenvalues     -0.84220     2.57996  converged:  T
     TRS4 it   1 1.00000000   0.285E+02       0.007     2107.253   0.100E-11
     TRS4 it   2 1.00000000   0.235E+02       0.013     2183.263   0.100E-11
     TRS4 it   3 1.00000000   0.157E+02       0.013     2190.037   0.100E-11
     TRS4 it   4 1.00000000   0.921E+01       0.013     2209.069   0.100E-11
     TRS4 it   5 1.00000000   0.391E+01       0.013     2186.569   0.100E-11
     TRS4 it   6 1.00000000   0.103E+01       0.013     2226.058   0.100E-11
     TRS4 it   7 1.00000000   0.130E+00       0.013     2173.167   0.100E-11
     TRS4 it   8 1.00000000   0.306E-02       0.013     2182.700   0.100E-11
     TRS4 it   9 1.00000000   0.222E-05       0.013     2188.457   0.100E-11
     TRS4 it  10 1.00000000   0.406E-11       0.013     2185.488   0.100E-11
     Final TRS4 iteration   10 1.00000000   0.406E-11
     Chemical potential (mu):       0.05306
 
 PAO| energy:  -191.01783299567251      penalty:   4.9551773327768521E-004
 PAO|LS| adapt:  T T F
 PAO|LS| adapt: scan_steps:    0.0000000000000000       0.20588896019850383        0.0000000000000000     
 PAO|LS| adapt: energies:   -190.91679187210855       -191.01783299567251        0.0000000000000000     
 PAO| ======================= Iteration:        11 =============================

     Lanczos converged:  T threshold:   0.100E-02
     Est. extremal eigenvalues:    0.479E+01   0.132E+00
     Est. condition number :    0.362E+02

 Order=           3
     NS sqrt iter    1 1.00000000   0.123E+01       0.021     2663.418
     NS sqrt iter    2 1.00000000   0.626E+00       0.034     3367.422
     NS sqrt iter    3 1.00000000   0.201E+00       0.034     3375.999
     NS sqrt iter    4 1.00000000   0.255E-01       0.034     3356.059
     NS sqrt iter    5 1.00000000   0.110E-03       0.034     3368.749
     NS sqrt iter    6 1.00000000   0.240E-10       0.018     2193.864
     Symmetrizing Results
     Final NS sqrt iter    6 1.00000000   0.219E-11

     Est. extremal eigenvalues     -0.84242     2.56497  converged:  T
     TRS4 it   1 1.00000000   0.285E+02       0.007     2137.594   0.100E-11
     TRS4 it   2 1.00000000   0.234E+02       0.013     2207.635   0.100E-11
     TRS4 it   3 1.00000000   0.156E+02       0.013     2194.306   0.100E-11
     TRS4 it   4 1.00000000   0.919E+01       0.013     2204.386   0.100E-11
     TRS4 it   5 1.00000000   0.388E+01       0.013     2219.714   0.100E-11
     TRS4 it   6 1.00000000   0.101E+01       0.013     2208.822   0.100E-11
     TRS4 it   7 1.00000000   0.126E+00       0.013     2197.605   0.100E-11
     TRS4 it   8 1.00000000   0.286E-02       0.013     2197.469   0.100E-11
     TRS4 it   9 1.00000000   0.194E-05       0.013     2206.875   0.100E-11
     TRS4 it  10 1.00000000   0.314E-11       0.013     2197.947   0.100E-11
     Final TRS4 iteration   10 1.00000000   0.314E-11
     Chemical potential (mu):       0.05405
 
 PAO| energy:  -191.02345051968578      penalty:   5.0815430862027520E-004
 PAO|LS| adapt:  T T F
 PAO|LS| adapt: scan_steps:    0.0000000000000000       0.41177792039700767        0.0000000000000000     
 PAO|LS| adapt: energies:   -190.91679187210855       -191.02345051968578        0.0000000000000000     
 PAO| ======================= Iteration:        12 =============================

     Lanczos converged:  T threshold:   0.100E-02
     Est. extremal eigenvalues:    0.470E+01   0.140E+00
     Est. condition number :    0.336E+02

 Order=           3
     NS sqrt iter    1 1.00000000   0.121E+01       0.021     2693.155
     NS sqrt iter    2 1.00000000   0.610E+00       0.034     3375.787
     NS sqrt iter    3 1.00000000   0.191E+00       0.034     3360.744
     NS sqrt iter    4 1.00000000   0.218E-01       0.034     3367.367
     NS sqrt iter    5 1.00000000   0.691E-04       0.034     3366.260
     NS sqrt iter    6 1.00000000   0.548E-11       0.014     2145.554
     Symmetrizing Results
     Final NS sqrt iter    6 1.00000000   0.119E-11

     Est. extremal eigenvalues     -0.84173     2.53404  converged:  T
     TRS4 it   1 1.00000000   0.284E+02       0.007     2140.401   0.100E-11
     TRS4 it   2 1.00000000   0.233E+02       0.013     2202.394   0.100E-11
     TRS4 it   3 1.00000000   0.156E+02       0.013     2220.996   0.100E-11
     TRS4 it   4 1.00000000   0.911E+01       0.013     2213.802   0.100E-11
     TRS4 it   5 1.00000000   0.381E+01       0.013     2215.956   0.100E-11
     TRS4 it   6 1.00000000   0.973E+00       0.013     2196.911   0.100E-11
     TRS4 it   7 1.00000000   0.116E+00       0.013     2206.668   0.100E-11
     TRS4 it   8 1.00000000   0.243E-02       0.013     2211.411   0.100E-11
     TRS4 it   9 1.00000000   0.144E-05       0.013     2226.124   0.100E-11
     TRS4 it  10 1.00000000   0.178E-11       0.013     2219.982   0.100E-11
     Final TRS4 iteration   10 1.00000000   0.178E-11
     Chemical potential (mu):       0.05626
 
 PAO| energy:  -190.76548609770865      penalty:   5.7076404103182808E-004
 PAO|LS| Need extra step
 PAO|LS| adapt:  T T T
 PAO|LS| adapt: scan_steps:    0.0000000000000000       0.41177792039700767       0.82355584079401534     
 PAO|LS| adapt: energies:   -190.91679187210855       -191.02345051968578       -190.76548609770865     
 PAO|LS| adapt: suggested step_size:   0.32634122929214066     
 PAO|LS| adapt: predicted energy  -191.03129884281668     
 PAO| ======================= Iteration:        13 =============================

     Lanczos converged:  T threshold:   0.100E-02
     Est. extremal eigenvalues:    0.481E+01   0.131E+00
     Est. condition number :    0.367E+02

 Order=           3
     NS sqrt iter    1 1.00000000   0.123E+01       0.021     2684.404
     NS sqrt iter    2 1.00000000   0.630E+00       0.033     3394.258
     NS sqrt iter    3 1.00000000   0.204E+00       0.034     3370.986
     NS sqrt iter    4 1.00000000   0.263E-01       0.034     3366.666
     NS sqrt iter    5 1.00000000   0.121E-03       0.033     3385.914
     NS sqrt iter    6 1.00000000   0.321E-10       0.020     2230.916
     Symmetrizing Results
     Final NS sqrt iter    6 1.00000000   0.220E-11

     Est. extremal eigenvalues     -0.84237     2.57125  converged:  T
     TRS4 it   1 1.00000000   0.285E+02       0.007     2095.248   0.100E-11
     TRS4 it   2 1.00000000   0.235E+02       0.013     2225.560   0.100E-11
     TRS4 it   3 1.00000000   0.156E+02       0.013     2181.708   0.100E-11
     TRS4 it   4 1.00000000   0.920E+01       0.013     2188.420   0.100E-11
     TRS4 it   5 1.00000000   0.389E+01       0.013     2214.382   0.100E-11
     TRS4 it   6 1.00000000   0.102E+01       0.013     2220.351   0.100E-11
     TRS4 it   7 1.00000000   0.127E+00       0.013     2189.442   0.100E-11
     TRS4 it   8 1.00000000   0.294E-02       0.013     2173.648   0.100E-11
     TRS4 it   9 1.00000000   0.206E-05       0.013     2197.617   0.100E-11
     TRS4 it  10 1.00000000   0.349E-11       0.013     2181.514   0.100E-11
     Final TRS4 iteration   10 1.00000000   0.349E-11
     Chemical potential (mu):       0.05364
 
 PAO| energy:  -191.03243498792469      penalty:   5.0161040936108603E-004
 PAO|CG| trace_G_new   0.27855698576248500     
 PAO|CG| trace_G_prev   0.73669658037448049     
 PAO|CG| trace_G_mix   -1.2397560851364510E-002
 PAO|CG| trace_D   0.85981662814906468     
 PAO|CG| trace_D_Gnew   1.2052809996164524E-002
 PAO|CG| beta:   0.39494488554019125     
 PAO| norm of gradient:  0.52778498061472434     
 PAO| energy improvement: -0.11564311581614106     
 PAO| step     13                 -191.032434988  0.103E-02  0.326E+00     1.896
 PAO|LS| adapt:  T F F
 PAO|LS| adapt: scan_steps:    0.0000000000000000        0.0000000000000000        0.0000000000000000     
 PAO|LS| adapt: energies:   -191.03243498792469        0.0000000000000000        0.0000000000000000     
 PAO| ======================= Iteration:        14 =============================

     Lanczos converged:  T threshold:   0.100E-02
     Est. extremal eigenvalues:    0.474E+01   0.134E+00
     Est. condition number :    0.354E+02

 Order=           3
     NS sqrt iter    1 1.00000000   0.122E+01       0.021     2659.362
     NS sqrt iter    2 1.00000000   0.619E+00       0.034     3360.466
     NS sqrt iter    3 1.00000000   0.197E+00       0.034     3350.568
     NS sqrt iter    4 1.00000000   0.242E-01       0.034     3371.377
     NS sqrt iter    5 1.00000000   0.962E-04       0.034     3373.175
     NS sqrt iter    6 1.00000000   0.162E-10       0.017     2154.148
     Symmetrizing Results
     Final NS sqrt iter    6 1.00000000   0.198E-11

     Est. extremal eigenvalues     -0.84283     2.56493  converged:  T
     TRS4 it   1 1.00000000   0.285E+02       0.007     2097.648   0.100E-11
     TRS4 it   2 1.00000000   0.234E+02       0.013     2185.478   0.100E-11
     TRS4 it   3 1.00000000   0.156E+02       0.013     2189.778   0.100E-11
     TRS4 it   4 1.00000000   0.914E+01       0.013     2195.145   0.100E-11
     TRS4 it   5 1.00000000   0.383E+01       0.013     2192.637   0.100E-11
     TRS4 it   6 1.00000000   0.986E+00       0.013     2164.989   0.100E-11
     TRS4 it   7 1.00000000   0.120E+00       0.013     2185.651   0.100E-11
     TRS4 it   8 1.00000000   0.258E-02       0.013     2226.810   0.100E-11
     TRS4 it   9 1.00000000   0.160E-05       0.013     2194.979   0.100E-11
     TRS4 it  10 1.00000000   0.214E-11       0.013     2201.620   0.100E-11
     Final TRS4 iteration   10 1.00000000   0.214E-11
     Chemical potential (mu):       0.05560
 
 PAO| energy:  -191.08488458080868      penalty:   5.0367807189940768E-004
 PAO|LS| adapt:  T T F
 PAO|LS| adapt: scan_steps:    0.0000000000000000       0.32634122929214066        0.0000000000000000     
 PAO|LS| adapt: energies:   -191.03243498792469       -191.08488458080868        0.0000000000000000     
 PAO| ======================= Iteration:        15 =============================

     Lanczos converged:  T threshold:   0.100E-02
     Est. extremal eigenvalues:    0.468E+01   0.137E+00
     Est. condition number :    0.342E+02

 Order=           3
     NS sqrt iter    1 1.00000000   0.120E+01       0.021     2690.373
     NS sqrt iter    2 1.00000000   0.609E+00       0.034     3360.690
     NS sqrt iter    3 1.00000000   0.191E+00       0.034     3357.312
     NS sqrt iter    4 1.00000000   0.224E-01       0.034     3345.421
     NS sqrt iter    5 1.00000000   0.768E-04       0.034     3363.257
     NS sqrt iter    6 1.00000000   0.808E-11       0.015     2131.331
     Symmetrizing Results
     Final NS sqrt iter    6 1.00000000   0.153E-11

     Est. extremal eigenvalues     -0.84290     2.55807  converged:  T
     TRS4 it   1 1.00000000   0.286E+02       0.007     2186.114   0.100E-11
     TRS4 it   2 1.00000000   0.234E+02       0.013     2215.432   0.100E-11
     TRS4 it   3 1.00000000   0.156E+02       0.013     2192.181   0.100E-11
     TRS4 it   4 1.00000000   0.908E+01       0.013     2178.233   0.100E-11
     TRS4 it   5 1.00000000   0.377E+01       0.013     2196.021   0.100E-11
     TRS4 it   6 1.00000000   0.955E+00       0.013     2202.644   0.100E-11
     TRS4 it   7 1.00000000   0.112E+00       0.013     2194.055   0.100E-11
     TRS4 it   8 1.00000000   0.227E-02       0.013     2214.666   0.100E-11
     TRS4 it   9 1.00000000   0.125E-05       0.013     2188.888   0.100E-11
     TRS4 it  10 1.00000000   0.134E-11       0.013     2213.707   0.100E-11
     Final TRS4 iteration   10 1.00000000   0.134E-11
     Chemical potential (mu):       0.05745
 
 PAO| energy:  -191.06463447042435      penalty:   5.2052231333025913E-004
 PAO|LS| adapt:  T T T
 PAO|LS| adapt: scan_steps:    0.0000000000000000       0.32634122929214066       0.65268245858428131     
 PAO|LS| adapt: energies:   -191.03243498792469       -191.08488458080868       -191.06463447042435     
 PAO|LS| adapt: suggested step_size:   0.39861125399037800     
 PAO|LS| adapt: predicted energy  -191.08666726805950     
 PAO| ======================= Iteration:        16 =============================

     Lanczos converged:  T threshold:   0.100E-02
     Est. extremal eigenvalues:    0.473E+01   0.134E+00
     Est. condition number :    0.352E+02

 Order=           3
     NS sqrt iter    1 1.00000000   0.121E+01       0.021     2690.228
     NS sqrt iter    2 1.00000000   0.617E+00       0.033     3386.059
     NS sqrt iter    3 1.00000000   0.196E+00       0.034     3373.284
     NS sqrt iter    4 1.00000000   0.238E-01       0.034     3358.337
     NS sqrt iter    5 1.00000000   0.914E-04       0.034     3357.569
     NS sqrt iter    6 1.00000000   0.139E-10       0.016     2145.779
     Symmetrizing Results
     Final NS sqrt iter    6 1.00000000   0.189E-11

     Est. extremal eigenvalues     -0.84288     2.56345  converged:  T
     TRS4 it   1 1.00000000   0.285E+02       0.007     2142.028   0.100E-11
     TRS4 it   2 1.00000000   0.234E+02       0.013     2199.381   0.100E-11
     TRS4 it   3 1.00000000   0.156E+02       0.013     2202.250   0.100E-11
     TRS4 it   4 1.00000000   0.913E+01       0.013     2213.252   0.100E-11
     TRS4 it   5 1.00000000   0.382E+01       0.013     2186.668   0.100E-11
     TRS4 it   6 1.00000000   0.979E+00       0.013     2219.046   0.100E-11
     TRS4 it   7 1.00000000   0.118E+00       0.013     2197.432   0.100E-11
     TRS4 it   8 1.00000000   0.251E-02       0.013     2201.339   0.100E-11
     TRS4 it   9 1.00000000   0.151E-05       0.013     2179.022   0.100E-11
     TRS4 it  10 1.00000000   0.193E-11       0.013     2198.082   0.100E-11
     Final TRS4 iteration   10 1.00000000   0.193E-11
     Chemical potential (mu):       0.05602
 
 PAO| energy:  -191.08660829785020      penalty:   5.0608413898661287E-004
 PAO|CG| trace_G_new   0.10232974972908662     
 PAO|CG| trace_G_prev   0.27855698576248500     
 PAO|CG| trace_G_mix    4.6244931834869829E-003
 PAO|CG| trace_D   0.40315204967257323     
 PAO|CG| trace_D_Gnew   7.3397016558610854E-004
 PAO|CG| beta:   0.35075500360600975     
 PAO| norm of gradient:  0.31989021511932281     
 PAO| energy improvement:  -5.4173309925516833E-002
 PAO| step     16                 -191.086608298  0.625E-03  0.399E+00     1.446
 PAO|LS| adapt:  T F F
 PAO|LS| adapt: scan_steps:    0.0000000000000000        0.0000000000000000        0.0000000000000000     
 PAO|LS| adapt: energies:   -191.08660829785020        0.0000000000000000        0.0000000000000000     
 PAO| ======================= Iteration:        17 =============================

     Lanczos converged:  T threshold:   0.100E-02
     Est. extremal eigenvalues:    0.469E+01   0.135E+00
     Est. condition number :    0.347E+02

 Order=           3
     NS sqrt iter    1 1.00000000   0.121E+01       0.021     2691.069
     NS sqrt iter    2 1.00000000   0.612E+00       0.033     3383.732
     NS sqrt iter    3 1.00000000   0.194E+00       0.034     3376.882
     NS sqrt iter    4 1.00000000   0.231E-01       0.034     3357.811
     NS sqrt iter    5 1.00000000   0.835E-04       0.034     3362.251
     NS sqrt iter    6 1.00000000   0.105E-10       0.015     2142.608
     Symmetrizing Results
     Final NS sqrt iter    6 1.00000000   0.175E-11

     Est. extremal eigenvalues     -0.84293     2.56147  converged:  T
     TRS4 it   1 1.00000000   0.286E+02       0.007     2137.385   0.100E-11
     TRS4 it   2 1.00000000   0.234E+02       0.013     2184.959   0.100E-11
     TRS4 it   3 1.00000000   0.156E+02       0.013     2215.715   0.100E-11
     TRS4 it   4 1.00000000   0.908E+01       0.013     2200.364   0.100E-11
     TRS4 it   5 1.00000000   0.378E+01       0.013     2179.403   0.100E-11
     TRS4 it   6 1.00000000   0.958E+00       0.013     2185.020   0.100E-11
     TRS4 it   7 1.00000000   0.113E+00       0.013     2195.797   0.100E-11
     TRS4 it   8 1.00000000   0.231E-02       0.013     2213.965   0.100E-11
     TRS4 it   9 1.00000000   0.129E-05       0.013     2215.290   0.100E-11
     TRS4 it  10 1.00000000   0.142E-11       0.013     2221.401   0.100E-11
     Final TRS4 iteration   10 1.00000000   0.142E-11
     Chemical potential (mu):       0.05719
 
 PAO| energy:  -191.09001692823870      penalty:   4.9858387059041934E-004
 PAO|LS| adapt:  T T F
 PAO|LS| adapt: scan_steps:    0.0000000000000000       0.39861125399037800        0.0000000000000000     
 PAO|LS| adapt: energies:   -191.08660829785020       -191.09001692823870        0.0000000000000000     
 PAO| ======================= Iteration:        18 =============================

     Lanczos converged:  T threshold:   0.100E-02
     Est. extremal eigenvalues:    0.466E+01   0.136E+00
     Est. condition number :    0.342E+02

 Order=           3
     NS sqrt iter    1 1.00000000   0.120E+01       0.021     2704.153
     NS sqrt iter    2 1.00000000   0.608E+00       0.034     3327.086
     NS sqrt iter    3 1.00000000   0.191E+00       0.034     3366.271
     NS sqrt iter    4 1.00000000   0.224E-01       0.034     3340.744
     NS sqrt iter    5 1.00000000   0.764E-04       0.034     3360.890
     NS sqrt iter    6 1.00000000   0.796E-11       0.015     2147.455
     Symmetrizing Results
     Final NS sqrt iter    6 1.00000000   0.150E-11

     Est. extremal eigenvalues     -0.84285     2.55931  converged:  T
     TRS4 it   1 1.00000000   0.286E+02       0.007     2136.737   0.100E-11
     TRS4 it   2 1.00000000   0.234E+02       0.013     2179.768   0.100E-11
     TRS4 it   3 1.00000000   0.155E+02       0.013     2220.983   0.100E-11
     TRS4 it   4 1.00000000   0.903E+01       0.013     2218.866   0.100E-11
     TRS4 it   5 1.00000000   0.373E+01       0.013     2187.263   0.100E-11
     TRS4 it   6 1.00000000   0.938E+00       0.013     2175.757   0.100E-11
     TRS4 it   7 1.00000000   0.109E+00       0.013     2200.464   0.100E-11
     TRS4 it   8 1.00000000   0.213E-02       0.013     2242.427   0.100E-11
     TRS4 it   9 1.00000000   0.110E-05       0.013     2183.578   0.100E-11
     TRS4 it  10 1.00000000   0.103E-11       0.013     2243.806   0.100E-11
     Final TRS4 iteration   10 1.00000000   0.103E-11
     Chemical potential (mu):       0.05841
 
 PAO| energy:  -191.01864750881583      penalty:   4.9845220379262061E-004
 PAO|LS| adapt:  T T T
 PAO|LS| adapt: scan_steps:    0.0000000000000000       0.39861125399037800       0.79722250798075600     
 PAO|LS| adapt: energies:   -191.08660829785020       -191.09001692823870       -191.01864750881583     
 PAO|LS| adapt: suggested step_size:   0.21747564395837701     
 PAO|LS| adapt: predicted energy  -191.09773755758420     
 PAO| ======================= Iteration:        19 =============================

     Lanczos converged:  T threshold:   0.100E-02
     Est. extremal eigenvalues:    0.471E+01   0.135E+00
     Est. condition number :    0.349E+02

 Order=           3
     NS sqrt iter    1 1.00000000   0.121E+01       0.021     2697.476
     NS sqrt iter    2 1.00000000   0.614E+00       0.033     3384.260
     NS sqrt iter    3 1.00000000   0.195E+00       0.034     3352.354
     NS sqrt iter    4 1.00000000   0.234E-01       0.034     3380.016
     NS sqrt iter    5 1.00000000   0.870E-04       0.033     3388.317
     NS sqrt iter    6 1.00000000   0.119E-10       0.016     2123.781
     Symmetrizing Results
     Final NS sqrt iter    6 1.00000000   0.181E-11

     Est. extremal eigenvalues     -0.84292     2.56239  converged:  T
     TRS4 it   1 1.00000000   0.286E+02       0.007     2159.556   0.100E-11
     TRS4 it   2 1.00000000   0.234E+02       0.013     2180.311   0.100E-11
     TRS4 it   3 1.00000000   0.156E+02       0.013     2206.558   0.100E-11
     TRS4 it   4 1.00000000   0.910E+01       0.013     2193.641   0.100E-11
     TRS4 it   5 1.00000000   0.380E+01       0.013     2193.891   0.100E-11
     TRS4 it   6 1.00000000   0.968E+00       0.013     2182.645   0.100E-11
     TRS4 it   7 1.00000000   0.115E+00       0.013     2189.144   0.100E-11
     TRS4 it   8 1.00000000   0.240E-02       0.013     2195.110   0.100E-11
     TRS4 it   9 1.00000000   0.139E-05       0.013     2186.312   0.100E-11
     TRS4 it  10 1.00000000   0.162E-11       0.013     2210.032   0.100E-11
     Final TRS4 iteration   10 1.00000000   0.162E-11
     Chemical potential (mu):       0.05664
 
 PAO| energy:  -191.09771903459756      penalty:   5.0109199945688721E-004
 PAO|CG| trace_G_new    2.0779679622568919E-002
 PAO|CG| trace_G_prev   0.10232974972908662     
 PAO|CG| trace_G_mix   -3.0230624530340738E-004
 PAO|CG| trace_D   0.15141428508265656     
 PAO|CG| trace_D_Gnew  -5.5477172605122697E-005
 PAO|CG| beta:   0.20602010582148328     
 PAO| norm of gradient:  0.14415158557077656     
 PAO| energy improvement:  -1.1110736747355077E-002
 PAO| step     19                 -191.097719035  0.282E-03  0.217E+00     1.443
 PAO|LS| adapt:  T F F
 PAO|LS| adapt: scan_steps:    0.0000000000000000        0.0000000000000000        0.0000000000000000     
 PAO|LS| adapt: energies:   -191.09771903459756        0.0000000000000000        0.0000000000000000     
 PAO| ======================= Iteration:        20 =============================

     Lanczos converged:  T threshold:   0.100E-02
     Est. extremal eigenvalues:    0.470E+01   0.135E+00
     Est. condition number :    0.349E+02

 Order=           3
     NS sqrt iter    1 1.00000000   0.121E+01       0.021     2683.780
     NS sqrt iter    2 1.00000000   0.614E+00       0.034     3365.729
     NS sqrt iter    3 1.00000000   0.195E+00       0.034     3354.932
     NS sqrt iter    4 1.00000000   0.234E-01       0.034     3374.542
     NS sqrt iter    5 1.00000000   0.868E-04       0.034     3354.523
     NS sqrt iter    6 1.00000000   0.118E-10       0.016     2130.115
     Symmetrizing Results
     Final NS sqrt iter    6 1.00000000   0.180E-11

     Est. extremal eigenvalues     -0.84293     2.56123  converged:  T
     TRS4 it   1 1.00000000   0.286E+02       0.007     2159.395   0.100E-11
     TRS4 it   2 1.00000000   0.234E+02       0.013     2208.651   0.100E-11
     TRS4 it   3 1.00000000   0.156E+02       0.013     2197.718   0.100E-11
     TRS4 it   4 1.00000000   0.909E+01       0.013     2217.179   0.100E-11
     TRS4 it   5 1.00000000   0.379E+01       0.013     2210.111   0.100E-11
     TRS4 it   6 1.00000000   0.963E+00       0.013     2204.666   0.100E-11
     TRS4 it   7 1.00000000   0.114E+00       0.013     2189.993   0.100E-11
     TRS4 it   8 1.00000000   0.236E-02       0.013     2208.684   0.100E-11
     TRS4 it   9 1.00000000   0.134E-05       0.013     2187.877   0.100E-11
     TRS4 it  10 1.00000000   0.153E-11       0.013     2230.687   0.100E-11
     Final TRS4 iteration   10 1.00000000   0.153E-11
     Chemical potential (mu):       0.05685
 
 PAO| energy:  -191.10138176118090      penalty:   4.9158376230917789E-004
 PAO|LS| adapt:  T T F
 PAO|LS| adapt: scan_steps:    0.0000000000000000       0.21747564395837701        0.0000000000000000     
 PAO|LS| adapt: energies:   -191.09771903459756       -191.10138176118090        0.0000000000000000     
 PAO| ======================= Iteration:        21 =============================

     Lanczos converged:  T threshold:   0.100E-02
     Est. extremal eigenvalues:    0.470E+01   0.135E+00
     Est. condition number :    0.349E+02

 Order=           3
     NS sqrt iter    1 1.00000000   0.121E+01       0.021     2684.945
     NS sqrt iter    2 1.00000000   0.614E+00       0.034     3366.856
     NS sqrt iter    3 1.00000000   0.195E+00       0.034     3365.989
     NS sqrt iter    4 1.00000000   0.234E-01       0.033     3418.770
     NS sqrt iter    5 1.00000000   0.867E-04       0.034     3371.995
     NS sqrt iter    6 1.00000000   0.117E-10       0.016     2141.047
     Symmetrizing Results
     Final NS sqrt iter    6 1.00000000   0.179E-11

     Est. extremal eigenvalues     -0.84293     2.56005  converged:  T
     TRS4 it   1 1.00000000   0.286E+02       0.007     2168.263   0.100E-11
     TRS4 it   2 1.00000000   0.234E+02       0.013     2201.874   0.100E-11
     TRS4 it   3 1.00000000   0.156E+02       0.013     2206.824   0.100E-11
     TRS4 it   4 1.00000000   0.908E+01       0.013     2212.752   0.100E-11
     TRS4 it   5 1.00000000   0.378E+01       0.013     2192.644   0.100E-11
     TRS4 it   6 1.00000000   0.959E+00       0.013     2197.374   0.100E-11
     TRS4 it   7 1.00000000   0.113E+00       0.013     2177.345   0.100E-11
     TRS4 it   8 1.00000000   0.232E-02       0.013     2216.883   0.100E-11
     TRS4 it   9 1.00000000   0.130E-05       0.013     2208.661   0.100E-11
     TRS4 it  10 1.00000000   0.143E-11       0.013     2200.381   0.100E-11
     Final TRS4 iteration   10 1.00000000   0.143E-11
     Chemical potential (mu):       0.05706
 
 PAO| energy:  -191.10331411424431      penalty:   4.8247333814800322E-004
 PAO|LS| adapt:  T T F
 PAO|LS| adapt: scan_steps:    0.0000000000000000       0.43495128791675403        0.0000000000000000     
 PAO|LS| adapt: energies:   -191.09771903459756       -191.10331411424431        0.0000000000000000     
 PAO| ======================= Iteration:        22 =============================

     Lanczos converged:  T threshold:   0.100E-02
     Est. extremal eigenvalues:    0.469E+01   0.135E+00
     Est. condition number :    0.348E+02

 Order=           3
     NS sqrt iter    1 1.00000000   0.121E+01       0.021     2694.806
     NS sqrt iter    2 1.00000000   0.613E+00       0.034     3374.937
     NS sqrt iter    3 1.00000000   0.195E+00       0.034     3335.460
     NS sqrt iter    4 1.00000000   0.234E-01       0.034     3342.304
     NS sqrt iter    5 1.00000000   0.864E-04       0.034     3338.851
     NS sqrt iter    6 1.00000000   0.114E-10       0.015     2152.700
     Symmetrizing Results
     Final NS sqrt iter    6 1.00000000   0.178E-11

     Est. extremal eigenvalues     -0.84293     2.55764  converged:  T
     TRS4 it   1 1.00000000   0.286E+02       0.007     2111.255   0.100E-11
     TRS4 it   2 1.00000000   0.234E+02       0.013     2193.463   0.100E-11
     TRS4 it   3 1.00000000   0.156E+02       0.013     2218.525   0.100E-11
     TRS4 it   4 1.00000000   0.905E+01       0.013     2207.784   0.100E-11
     TRS4 it   5 1.00000000   0.375E+01       0.013     2218.994   0.100E-11
     TRS4 it   6 1.00000000   0.950E+00       0.013     2204.781   0.100E-11
     TRS4 it   7 1.00000000   0.112E+00       0.013     2212.071   0.100E-11
     TRS4 it   8 1.00000000   0.225E-02       0.013     2189.370   0.100E-11
     TRS4 it   9 1.00000000   0.122E-05       0.013     2173.074   0.100E-11
     TRS4 it  10 1.00000000   0.124E-11       0.013     2195.940   0.100E-11
     Final TRS4 iteration   10 1.00000000   0.124E-11
     Chemical potential (mu):       0.05748
 
 PAO| energy:  -191.10191090229716      penalty:   4.6542083120280561E-004
 PAO|LS| Need extra step
 PAO|LS| adapt:  T T T
 PAO|LS| adapt: scan_steps:    0.0000000000000000       0.43495128791675403       0.86990257583350805     
 PAO|LS| adapt: energies:   -191.09771903459756       -191.10331411424431       -191.10191090229716     
 PAO|LS| adapt: suggested step_size:   0.56521581249785080     
 PAO|LS| adapt: predicted energy  -191.10362797217977     
 PAO| ======================= Iteration:        23 =============================

     Lanczos converged:  T threshold:   0.100E-02
     Est. extremal eigenvalues:    0.470E+01   0.135E+00
     Est. condition number :    0.348E+02

 Order=           3
     NS sqrt iter    1 1.00000000   0.121E+01       0.021     2707.462
     NS sqrt iter    2 1.00000000   0.614E+00       0.034     3340.994
     NS sqrt iter    3 1.00000000   0.195E+00       0.034     3338.787
     NS sqrt iter    4 1.00000000   0.234E-01       0.034     3347.909
     NS sqrt iter    5 1.00000000   0.866E-04       0.034     3374.195
     NS sqrt iter    6 1.00000000   0.116E-10       0.015     2173.080
     Symmetrizing Results
     Final NS sqrt iter    6 1.00000000   0.178E-11

     Est. extremal eigenvalues     -0.84293     2.55934  converged:  T
     TRS4 it   1 1.00000000   0.286E+02       0.007     2135.166   0.100E-11
     TRS4 it   2 1.00000000   0.234E+02       0.013     2219.456   0.100E-11
     TRS4 it   3 1.00000000   0.156E+02       0.013     2191.931   0.100E-11
     TRS4 it   4 1.00000000   0.907E+01       0.013     2187.413   0.100E-11
     TRS4 it   5 1.00000000   0.377E+01       0.013     2198.970   0.100E-11
     TRS4 it   6 1.00000000   0.956E+00       0.013     2190.985   0.100E-11
     TRS4 it   7 1.00000000   0.113E+00       0.013     2217.977   0.100E-11
     TRS4 it   8 1.00000000   0.230E-02       0.013     2185.114   0.100E-11
     TRS4 it   9 1.00000000   0.128E-05       0.013     2211.340   0.100E-11
     TRS4 it  10 1.00000000   0.141E-11       0.013     2229.771   0.100E-11
     Final TRS4 iteration   10 1.00000000   0.141E-11
     Chemical potential (mu):       0.05718
 
 PAO| energy:  -191.10363497092777      penalty:   4.7720404156413517E-004
 PAO|CG| trace_G_new    1.5395857902771813E-002
 PAO|CG| trace_G_prev    2.0779679622568919E-002
 PAO|CG| trace_G_mix    1.0818422510109542E-004
 PAO|CG| trace_D    2.7229209366623808E-002
 PAO|CG| trace_D_Gnew  -4.3194986531257388E-005
 PAO|CG| beta:   0.73570305006371206     
 PAO| norm of gradient:  0.12408004635223108     
 PAO| energy improvement:  -5.9159363302114798E-003
 PAO| step     23                 -191.103634971  0.242E-03  0.565E+00     1.871
 PAO|LS| adapt:  T F F
 PAO|LS| adapt: scan_steps:    0.0000000000000000        0.0000000000000000        0.0000000000000000     
 PAO|LS| adapt: energies:   -191.10363497092777        0.0000000000000000        0.0000000000000000     
 PAO| ======================= Iteration:        24 =============================

     Lanczos converged:  T threshold:   0.100E-02
     Est. extremal eigenvalues:    0.469E+01   0.135E+00
     Est. condition number :    0.348E+02

 Order=           3
     NS sqrt iter    1 1.00000000   0.120E+01       0.021     2702.451
     NS sqrt iter    2 1.00000000   0.613E+00       0.034     3369.208
     NS sqrt iter    3 1.00000000   0.194E+00       0.034     3365.774
     NS sqrt iter    4 1.00000000   0.234E-01       0.034     3372.755
     NS sqrt iter    5 1.00000000   0.867E-04       0.034     3358.589
     NS sqrt iter    6 1.00000000   0.116E-10       0.016     2133.665
     Symmetrizing Results
     Final NS sqrt iter    6 1.00000000   0.179E-11

     Est. extremal eigenvalues     -0.84294     2.55646  converged:  T
     TRS4 it   1 1.00000000   0.286E+02       0.007     2133.261   0.100E-11
     TRS4 it   2 1.00000000   0.234E+02       0.013     2188.912   0.100E-11
     TRS4 it   3 1.00000000   0.156E+02       0.013     2229.647   0.100E-11
     TRS4 it   4 1.00000000   0.904E+01       0.013     2222.022   0.100E-11
     TRS4 it   5 1.00000000   0.375E+01       0.013     2194.603   0.100E-11
     TRS4 it   6 1.00000000   0.947E+00       0.013     2200.087   0.100E-11
     TRS4 it   7 1.00000000   0.111E+00       0.013     2195.145   0.100E-11
     TRS4 it   8 1.00000000   0.222E-02       0.013     2223.743   0.100E-11
     TRS4 it   9 1.00000000   0.119E-05       0.013     2193.631   0.100E-11
     TRS4 it  10 1.00000000   0.121E-11       0.013     2188.696   0.100E-11
     Final TRS4 iteration   10 1.00000000   0.121E-11
     Chemical potential (mu):       0.05762
 
 PAO| energy:  -191.10661790527132      penalty:   4.4048327162674771E-004
 PAO|LS| adapt:  T T F
 PAO|LS| adapt: scan_steps:    0.0000000000000000       0.56521581249785080        0.0000000000000000     
 PAO|LS| adapt: energies:   -191.10363497092777       -191.10661790527132        0.0000000000000000     
 PAO| ======================= Iteration:        25 =============================

     Lanczos converged:  T threshold:   0.100E-02
     Est. extremal eigenvalues:    0.468E+01   0.134E+00
     Est. condition number :    0.348E+02

 Order=           3
     NS sqrt iter    1 1.00000000   0.120E+01       0.021     2671.637
     NS sqrt iter    2 1.00000000   0.612E+00       0.034     3377.688
     NS sqrt iter    3 1.00000000   0.194E+00       0.034     3358.962
     NS sqrt iter    4 1.00000000   0.234E-01       0.034     3360.414
     NS sqrt iter    5 1.00000000   0.868E-04       0.034     3374.247
     NS sqrt iter    6 1.00000000   0.116E-10       0.016     2141.997
     Symmetrizing Results
     Final NS sqrt iter    6 1.00000000   0.180E-11

     Est. extremal eigenvalues     -0.84294     2.55338  converged:  T
     TRS4 it   1 1.00000000   0.286E+02       0.007     2139.484   0.100E-11
     TRS4 it   2 1.00000000   0.233E+02       0.013     2228.137   0.100E-11
     TRS4 it   3 1.00000000   0.155E+02       0.013     2180.745   0.100E-11
     TRS4 it   4 1.00000000   0.902E+01       0.013     2207.919   0.100E-11
     TRS4 it   5 1.00000000   0.373E+01       0.013     2222.609   0.100E-11
     TRS4 it   6 1.00000000   0.937E+00       0.013     2206.215   0.100E-11
     TRS4 it   7 1.00000000   0.109E+00       0.013     2200.670   0.100E-11
     TRS4 it   8 1.00000000   0.214E-02       0.013     2208.414   0.100E-11
     TRS4 it   9 1.00000000   0.111E-05       0.013     2190.907   0.100E-11
     TRS4 it  10 1.00000000   0.106E-11       0.013     2190.553   0.100E-11
     Final TRS4 iteration   10 1.00000000   0.106E-11
     Chemical potential (mu):       0.05807
 
 PAO| energy:  -191.09793508844268      penalty:   4.0744277151220275E-004
 PAO|LS| adapt:  T T T
 PAO|LS| adapt: scan_steps:    0.0000000000000000       0.56521581249785080        1.1304316249957016     
 PAO|LS| adapt: energies:   -191.10363497092777       -191.10661790527132       -191.09793508844268     
 PAO|LS| adapt: suggested step_size:   0.42713367520554113     
 PAO|LS| adapt: predicted energy  -191.10696602537803     
 PAO| ======================= Iteration:        26 =============================

     Lanczos converged:  T threshold:   0.100E-02
     Est. extremal eigenvalues:    0.469E+01   0.135E+00
     Est. condition number :    0.348E+02

 Order=           3
     NS sqrt iter    1 1.00000000   0.120E+01       0.021     2711.242
     NS sqrt iter    2 1.00000000   0.613E+00       0.034     3356.807
     NS sqrt iter    3 1.00000000   0.194E+00       0.033     3383.552
     NS sqrt iter    4 1.00000000   0.234E-01       0.034     3362.825
     NS sqrt iter    5 1.00000000   0.866E-04       0.034     3374.262
     NS sqrt iter    6 1.00000000   0.116E-10       0.015     2154.274
     Symmetrizing Results
     Final NS sqrt iter    6 1.00000000   0.178E-11

     Est. extremal eigenvalues     -0.84294     2.55718  converged:  T
     TRS4 it   1 1.00000000   0.286E+02       0.007     2147.715   0.100E-11
     TRS4 it   2 1.00000000   0.234E+02       0.013     2204.977   0.100E-11
     TRS4 it   3 1.00000000   0.156E+02       0.013     2209.287   0.100E-11
     TRS4 it   4 1.00000000   0.905E+01       0.013     2199.050   0.100E-11
     TRS4 it   5 1.00000000   0.375E+01       0.013     2204.770   0.100E-11
     TRS4 it   6 1.00000000   0.949E+00       0.013     2219.655   0.100E-11
     TRS4 it   7 1.00000000   0.111E+00       0.013     2189.825   0.100E-11
     TRS4 it   8 1.00000000   0.224E-02       0.013     2189.274   0.100E-11
     TRS4 it   9 1.00000000   0.121E-05       0.013     2189.572   0.100E-11
     TRS4 it  10 1.00000000   0.128E-11       0.013     2208.622   0.100E-11
     Final TRS4 iteration   10 1.00000000   0.128E-11
     Chemical potential (mu):       0.05752
 
 PAO| energy:  -191.10695494633657      penalty:   4.4910796455867145E-004
 PAO|CG| trace_G_new    1.2061551010028820E-002
 PAO|CG| trace_G_prev    1.5395857902771813E-002
 PAO|CG| trace_G_mix    2.3178707702531604E-004
 PAO|CG| trace_D    3.0197469299518873E-002
 PAO|CG| trace_D_Gnew  -6.9893202080331611E-005
 PAO|CG| beta:   0.76837315644967841     
 PAO| norm of gradient:  0.10982509280682999     
 PAO| energy improvement:  -3.3199754088002464E-003
 PAO| step     26                 -191.106954946  0.215E-03  0.427E+00     1.443
 PAO|LS| adapt:  T F F
 PAO|LS| adapt: scan_steps:    0.0000000000000000        0.0000000000000000        0.0000000000000000     
 PAO|LS| adapt: energies:   -191.10695494633657        0.0000000000000000        0.0000000000000000     
 PAO| ======================= Iteration:        27 =============================

     Lanczos converged:  T threshold:   0.100E-02
     Est. extremal eigenvalues:    0.468E+01   0.134E+00
     Est. condition number :    0.348E+02

 Order=           3
     NS sqrt iter    1 1.00000000   0.120E+01       0.021     2705.341
     NS sqrt iter    2 1.00000000   0.611E+00       0.034     3350.961
     NS sqrt iter    3 1.00000000   0.194E+00       0.034     3374.498
     NS sqrt iter    4 1.00000000   0.233E-01       0.034     3355.248
     NS sqrt iter    5 1.00000000   0.865E-04       0.034     3375.476
     NS sqrt iter    6 1.00000000   0.116E-10       0.016     2133.761
     Symmetrizing Results
     Final NS sqrt iter    6 1.00000000   0.180E-11

     Est. extremal eigenvalues     -0.84295     2.55506  converged:  T
     TRS4 it   1 1.00000000   0.286E+02       0.007     2126.967   0.100E-11
     TRS4 it   2 1.00000000   0.233E+02       0.013     2191.013   0.100E-11
     TRS4 it   3 1.00000000   0.155E+02       0.013     2198.158   0.100E-11
     TRS4 it   4 1.00000000   0.903E+01       0.013     2210.584   0.100E-11
     TRS4 it   5 1.00000000   0.373E+01       0.013     2183.315   0.100E-11
     TRS4 it   6 1.00000000   0.941E+00       0.013     2213.440   0.100E-11
     TRS4 it   7 1.00000000   0.109E+00       0.013     2217.534   0.100E-11
     TRS4 it   8 1.00000000   0.217E-02       0.013     2233.931   0.100E-11
     TRS4 it   9 1.00000000   0.114E-05       0.013     2215.339   0.100E-11
     TRS4 it  10 1.00000000   0.112E-11       0.013     2199.362   0.100E-11
     Final TRS4 iteration   10 1.00000000   0.112E-11
     Chemical potential (mu):       0.05793
 
 PAO| energy:  -191.10931762899193      penalty:   4.1414964644406873E-004
 PAO|LS| adapt:  T T F
 PAO|LS| adapt: scan_steps:    0.0000000000000000       0.42713367520554113        0.0000000000000000     
 PAO|LS| adapt: energies:   -191.10695494633657       -191.10931762899193        0.0000000000000000     
 PAO| ======================= Iteration:        28 =============================

     Lanczos converged:  T threshold:   0.100E-02
     Est. extremal eigenvalues:    0.467E+01   0.134E+00
     Est. condition number :    0.349E+02

 Order=           3
     NS sqrt iter    1 1.00000000   0.120E+01       0.021     2677.144
     NS sqrt iter    2 1.00000000   0.610E+00       0.034     3345.526
     NS sqrt iter    3 1.00000000   0.193E+00       0.034     3346.523
     NS sqrt iter    4 1.00000000   0.232E-01       0.034     3353.038
     NS sqrt iter    5 1.00000000   0.865E-04       0.034     3351.497
     NS sqrt iter    6 1.00000000   0.117E-10       0.015     2153.560
     Symmetrizing Results
     Final NS sqrt iter    6 1.00000000   0.177E-11

     Est. extremal eigenvalues     -0.84295     2.55279  converged:  T
     TRS4 it   1 1.00000000   0.286E+02       0.007     2145.131   0.100E-11
     TRS4 it   2 1.00000000   0.233E+02       0.013     2192.372   0.100E-11
     TRS4 it   3 1.00000000   0.155E+02       0.013     2215.680   0.100E-11
     TRS4 it   4 1.00000000   0.901E+01       0.013     2236.023   0.100E-11
     TRS4 it   5 1.00000000   0.372E+01       0.013     2182.881   0.100E-11
     TRS4 it   6 1.00000000   0.932E+00       0.013     2197.869   0.100E-11
     TRS4 it   7 1.00000000   0.108E+00       0.013     2187.401   0.100E-11
     TRS4 it   8 1.00000000   0.210E-02       0.013     2216.331   0.100E-11
     TRS4 it   9 1.00000000   0.107E-05       0.013     2200.852   0.100E-11
     TRS4 it  10 1.00000000   0.966E-12       0.013     2169.403   0.100E-11
     Final TRS4 iteration   10 1.00000000   0.966E-12
     Chemical potential (mu):       0.05836
 
 PAO| energy:  -191.10600816124048      penalty:   3.8200579230306575E-004
 PAO|LS| adapt:  T T T
 PAO|LS| adapt: scan_steps:    0.0000000000000000       0.42713367520554113       0.85426735041108226     
 PAO|LS| adapt: energies:   -191.10695494633657       -191.10931762899193       -191.10600816124048     
 PAO|LS| adapt: suggested step_size:   0.39148548459714516     
 PAO|LS| adapt: predicted energy  -191.10933738344909     
 PAO| ======================= Iteration:        29 =============================

     Lanczos converged:  T threshold:   0.100E-02
     Est. extremal eigenvalues:    0.468E+01   0.134E+00
     Est. condition number :    0.348E+02

 Order=           3
     NS sqrt iter    1 1.00000000   0.120E+01       0.021     2692.254
     NS sqrt iter    2 1.00000000   0.612E+00       0.034     3372.873
     NS sqrt iter    3 1.00000000   0.194E+00       0.034     3357.739
     NS sqrt iter    4 1.00000000   0.233E-01       0.034     3356.106
     NS sqrt iter    5 1.00000000   0.865E-04       0.034     3376.853
     NS sqrt iter    6 1.00000000   0.116E-10       0.016     2119.714
     Symmetrizing Results
     Final NS sqrt iter    6 1.00000000   0.180E-11

     Est. extremal eigenvalues     -0.84295     2.55525  converged:  T
     TRS4 it   1 1.00000000   0.286E+02       0.007     2153.617   0.100E-11
     TRS4 it   2 1.00000000   0.233E+02       0.013     2192.011   0.100E-11
     TRS4 it   3 1.00000000   0.155E+02       0.013     2208.649   0.100E-11
     TRS4 it   4 1.00000000   0.903E+01       0.013     2226.932   0.100E-11
     TRS4 it   5 1.00000000   0.374E+01       0.013     2247.274   0.100E-11
     TRS4 it   6 1.00000000   0.941E+00       0.013     2200.109   0.100E-11
     TRS4 it   7 1.00000000   0.110E+00       0.013     2222.952   0.100E-11
     TRS4 it   8 1.00000000   0.217E-02       0.013     2209.870   0.100E-11
     TRS4 it   9 1.00000000   0.114E-05       0.013     2205.102   0.100E-11
[...]
     TRS4 it   5 1.00000000   0.425E+01       0.013     2194.556   0.100E-11
     TRS4 it   6 1.00000000   0.133E+01       0.013     2223.668   0.100E-11
     TRS4 it   7 1.00000000   0.233E+00       0.013     2198.340   0.100E-11
     TRS4 it   8 1.00000000   0.112E-01       0.013     2181.355   0.100E-11
     TRS4 it   9 1.00000000   0.347E-04       0.013     2204.612   0.100E-11
     TRS4 it  10 1.00000000   0.943E-09       0.013     2201.031   0.100E-11
     TRS4 it  11 1.00000000   0.160E-13       0.013     2182.421   0.100E-11
     Final TRS4 iteration   11 1.00000000   0.160E-13
     Chemical potential (mu):       0.02762
 
 PAO| energy:  -190.72703948628399      penalty:   1.7941549951760784E-008
 PAO| Writing restart file.
     Est. extremal eigenvalues     -0.84327     2.51271  converged:  T
     TRS4 it   1 1.00000000   0.287E+02       0.007     2148.707   0.100E-11
     TRS4 it   2 1.00000000   0.233E+02       0.013     2196.206   0.100E-11
     TRS4 it   3 1.00000000   0.157E+02       0.013     2170.141   0.100E-11
     TRS4 it   4 1.00000000   0.938E+01       0.013     2213.190   0.100E-11
     TRS4 it   5 1.00000000   0.425E+01       0.013     2172.228   0.100E-11
     TRS4 it   6 1.00000000   0.133E+01       0.013     2189.185   0.100E-11
     TRS4 it   7 1.00000000   0.233E+00       0.013     2168.364   0.100E-11
     TRS4 it   8 1.00000000   0.112E-01       0.013     2187.485   0.100E-11
     TRS4 it   9 1.00000000   0.347E-04       0.013     2198.837   0.100E-11
     TRS4 it  10 1.00000000   0.943E-09       0.013     2196.402   0.100E-11
     TRS4 it  11 1.00000000   0.160E-13       0.013     2211.113   0.100E-11
     Final TRS4 iteration   11 1.00000000   0.160E-13
     Chemical potential (mu):       0.02762

 SCF     1     -1103.062520076     -1103.062520076    1.761198

*********************************************************
 Using MIXING_FRACTION=0.450 to mix KS matrix:  iscf=  2
 KS_nw=0.450*KS + 0.550*KS_old
*********************************************************
     Est. extremal eigenvalues     -0.84327     2.51271  converged:  T
     TRS4 it   1 1.00000000   0.287E+02       0.007     2118.708   0.100E-11
     TRS4 it   2 1.00000000   0.233E+02       0.013     2172.515   0.100E-11
     TRS4 it   3 1.00000000   0.157E+02       0.013     2198.141   0.100E-11
     TRS4 it   4 1.00000000   0.938E+01       0.013     2210.696   0.100E-11
     TRS4 it   5 1.00000000   0.425E+01       0.013     2196.316   0.100E-11
     TRS4 it   6 1.00000000   0.133E+01       0.013     2200.389   0.100E-11
     TRS4 it   7 1.00000000   0.233E+00       0.013     2188.631   0.100E-11
     TRS4 it   8 1.00000000   0.112E-01       0.013     2184.260   0.100E-11
     TRS4 it   9 1.00000000   0.347E-04       0.013     2184.113   0.100E-11
     TRS4 it  10 1.00000000   0.943E-09       0.013     2207.642   0.100E-11
     TRS4 it  11 1.00000000   0.711E-14       0.013     2188.119   0.100E-11
     Final TRS4 iteration   11 1.00000000   0.711E-14
     Chemical potential (mu):       0.02762

 SCF     2     -1103.062520076        -0.000000000    1.776042


 SCF run converged in     2 steps.

 PAO| Storing density matrix for ASPC guess in slot:           1

 ENERGY| Total FORCE_EVAL ( QS ) energy [a.u.]:            -1103.062520076167857

 -------------------------------------------------------------------------------
 -                                                                             -
 -                                DBCSR STATISTICS                             -
 -                                                                             -
 -------------------------------------------------------------------------------
 COUNTER                                    TOTAL       BLAS       SMM       ACC
 flops     5 x     5 x     4             26419200       0.0%    100.0%      0.0%     
 flops    13 x     5 x     4             34078720       0.0%    100.0%      0.0%     
 flops     5 x    13 x     4             34078720       0.0%    100.0%      0.0%     
 flops    13 x    13 x     4             44994560       0.0%    100.0%      0.0%     
 flops     4 x     4 x     5           6503792640       0.0%    100.0%      0.0%     
 flops     5 x     4 x     5           8034713600       0.0%    100.0%      0.0%     
 flops     4 x     4 x    13           8454930432       0.0%    100.0%      0.0%     
 flops    13 x     4 x     5          10445127680       0.0%    100.0%      0.0%     
 flops     5 x     4 x    13          10445127680       0.0%    100.0%      0.0%     
 flops    13 x     4 x    13          13578665984       0.0%    100.0%      0.0%     
 flops     5 x     4 x     4         405680228960       0.0%    100.0%      0.0%     
 flops    13 x     4 x     4         535626579072       0.0%    100.0%      0.0%     
 flops     4 x     4 x     4       29719518611328       0.0%    100.0%      0.0%     
 flops inhomo. stacks                           0       0.0%      0.0%      0.0%
 flops total                        30.718427E+12       0.0%    100.0%      0.0%
 flops max/rank                    969.078841E+09       0.0%    100.0%      0.0%
 matmuls inhomo. stacks                         0       0.0%      0.0%      0.0%
 matmuls total                       236158464506       0.0%    100.0%      0.0%
 number of processed stacks             241279921       0.0%    100.0%      0.0%
 average stack size                                     0.0     978.8       0.0
 marketing flops                    53.529897E+12
 -------------------------------------------------------------------------------
 # multiplications                          50223
 max memory usage/rank             618.749952E+06
 # max total images/rank                        2
 # max 3D layers                                1
 # MPI messages exchanged                20892768
 MPI messages size (bytes):
  total size                         2.468304E+12
  min size                           0.000000E+00
  max size                         541.696000E+03
  average size                     118.141547E+03
 MPI breakdown and total messages size (bytes):
             size <=      128              892917                      768
       128 < size <=     8192              343470               1382823680
      8192 < size <=    32768              106640               2138406016
     32768 < size <=   131072             8906627             656623117440
    131072 < size <=  4194304            10643114            1808618653440
   4194304 < size <= 16777216                   0                        0
  16777216 < size                               0                        0
 -------------------------------------------------------------------------------

 *** WARNING in dbcsr_mm.F:301 :: Using a non-square number of MPI ranks ***
 *** might lead to poor performance. Used ranks: 32 Suggested: 36 64     ***

 -------------------------------------------------------------------------------
 -                                                                             -
 -                      DBCSR MESSAGE PASSING PERFORMANCE                      -
 -                                                                             -
 -------------------------------------------------------------------------------
 ROUTINE             CALLS      AVE VOLUME [Bytes]
 MP_Bcast               14                     12.
 MP_Allreduce       302306                     37.
 MP_Alltoall        129637                  14563.
 MP_ISend          1680882                  54954.
 MP_IRecv          1644008                  56257.
 -------------------------------------------------------------------------------

 -------------------------------------------------------------------------------
 -                                                                             -
 -                                DBM STATISTICS                               -
 -                                                                             -
 -------------------------------------------------------------------------------
    M  x    N  x    K                                          COUNT     PERCENT
 -------------------------------------------------------------------------------

 -------------------------------------------------------------------------------
 -                                                                             -
 -                                GRID STATISTICS                              -
 -                                                                             -
 -------------------------------------------------------------------------------
 LP    KERNEL             BACKEND                              COUNT     PERCENT
 2     collocate ortho    CPU                               13114016      28.84%
 2     integrate ortho    CPU                               13114016      28.84%
 3     collocate ortho    CPU                                8423664      18.52%
 3     integrate ortho    CPU                                8423664      18.52%
 4     collocate ortho    CPU                                1196864       2.63%
 4     integrate ortho    CPU                                1196864       2.63%
 0     collocate general  CPU                                   6144       0.01%
 -------------------------------------------------------------------------------

 MEMORY| Estimated peak process memory [MiB]                                 591

 -------------------------------------------------------------------------------
 -                                                                             -
 -                         MESSAGE PASSING PERFORMANCE                         -
 -                                                                             -
 -------------------------------------------------------------------------------

 ROUTINE             CALLS      AVE VOLUME [Bytes]
 MP_Group                5
 MP_Bcast           354216                   1986.
 MP_Allreduce       880605                    514.
 MP_Sync                 5
 MP_Alltoall           419                3856367.
 MP_SendRecv          1488                  18832.
 MP_ISendRecv         1488                  18832.
 MP_Wait              4218
 MP_ISend             2470                 108139.
 MP_IRecv             2470                 108153.
 -------------------------------------------------------------------------------


 -------------------------------------------------------------------------------
 -                                                                             -
 -                           R E F E R E N C E S                               -
 -                                                                             -
 -------------------------------------------------------------------------------
 
 CP2K version 2024.3 (Development Version), the CP2K developers group (2024).
 CP2K is freely available from https://www.cp2k.org/ .
 
 T. D. Kuehne, M. Iannuzzi, M. Del Ben, V. V. Rybkin, P. Seewald, F. Stein, T. 
 Laino, R. Z. Khaliullin, O. Schuett, F. Schiffmann, D. Golze, J. Wilhelm, S. 
 Chulkov, M. H. Bani-Hashemian, V. Weber, U. Borstnik, M. Taillefumier, A. S. 
 Jakobovits, A. Lazzaro, H. Pabst, T. Mueller, R. Schade, M. Guidon, S. 
 Andermatt, N. Holmberg, G. K. Schenter, A. Hehn, A. Bussy, F. Belleflamme, G. 
 Tabacchi, A. Gloess, M. Lass, I. Bethune, C. J. Mundy, C. Plessl, M. Watkins, 
 J. VandeVondele, M. Krack, J. Hutter.
 J. Chem. Phys. 152, 194103 (2020).
 CP2K: An electronic structure and molecular dynamics software package - 
 Quickstep: Efficient and accurate electronic structure calculations.
 https://doi.org/10.1063/5.0007045

 O. Schuett, J. VandeVondele.
 J. Chem. Theory Comput. 14, 4168-4175 (2018).
 Machine Learning Adaptive Basis Sets for Efficient Large Scale Density 
 Functional Theory Simulation.
 https://doi.org/10.1021/acs.jctc.8b00378

 O. Schuett, P. Messmer, J. Hutter, J. VandeVondele.
 Electronic Structure Calculations on Graphics Processing Units, 173-190 (2016).
 GPU-Accelerated Sparse Matrix-Matrix Multiplication for Linear Scaling Density 
 Functional Theory.
 https://doi.org/10.1002/9781118670712.ch8

 A. Heinecke, G. Henry, M. Hutchinson, H. Pabst.
 Proceedings of Intl. Supercomputing Conference, 981-991 (2016).
 LIBXSMM: Accelerating Small Matrix Multiplications by Runtime Code Generation.
 https://doi.org/10.1109/SC.2016.83

 J. Hutter, M. Iannuzzi, F. Schiffmann, J. VandeVondele.
 WIREs Comput Mol Sci. 4, 15-25 (2014).
 CP2K: atomistic simulations of condensed matter systems.
 https://doi.org/10.1002/wcms.1159

 U. Borstnik, J. VandeVondele, V. Weber, J. Hutter.
 Parallel Comput. 40, 47-58 (2014).
 Sparse matrix multiplication: The distributed block-compressed sparse row 
 library.
 https://doi.org/10.1016/j.parco.2014.03.012

 A. Marek, V. Blum, R. Johanni, V. Havu, B. Lang, T. Auckenthaler, A. Heinecke, 
 H. Bungartz, H. Lederer.
 J. Phys. Condens. Matter 26, 213201 (2014).
 The ELPA library: scalable parallel eigenvalue solutions for electronic 
 structure theory and computational science.
 https://doi.org/10.1088/0953-8984/26/21/213201

 J. VandeVondele, U. Borstnik, J. Hutter.
 J. Chem. Theory Comput. 8, 3565-3573 (2012).
 Linear Scaling Self-Consistent Field Calculations with Millions of Atoms in the 
 Condensed Phase.
 https://doi.org/10.1021/ct200897x

 J. VandeVondele, J. Hutter.
 J. Chem. Phys. 127, 114105 (2007).
 Gaussian basis sets for accurate calculations on molecular systems in gas and 
 condensed phases.
 https://doi.org/10.1063/1.2770708

 J. VandeVondele, M. Krack, F. Mohamed, M. Parrinello, T. Chassaing, J. Hutter.
 Comput. Phys. Commun. 167, 103-128 (2005).
 QUICKSTEP: Fast and accurate density functional calculations using a mixed 
 Gaussian and plane waves approach.
 https://doi.org/10.1016/j.cpc.2004.12.014

 M. Krack.
 Theor. Chem. Acc. 114, 145-152 (2005).
 Pseudopotentials for H to Kr optimized for gradient-corrected 
 exchange-correlation functionals.
 https://doi.org/10.1007/s00214-005-0655-y

 M. Frigo, S. G. Johnson.
 Proc. IEEE 93, 216-231 (2005).
 The design and implementation of FFTW3.
 https://doi.org/10.1109/JPROC.2004.840301

 A. M. N. Niklasson, C. J. Tymczak, M. Challacombe.
 J. Chem. Phys. 118, 8611-8620 (2003).
 Trace resetting density matrix purification in O(N) self-consistent-field 
 theory.
 https://doi.org/10.1063/1.1559913

 C. Hartwigsen, S. Goedecker, J. Hutter.
 Phys. Rev. B 58, 3641-3662 (1998).
 Relativistic separable dual-space Gaussian pseudopotentials from H to Rn.
 https://doi.org/10.1103/PhysRevB.58.3641

 G. Lippert, J. Hutter, M. Parrinello.
 Mol. Phys. 92, 477-487 (1997).
 A hybrid Gaussian and plane wave density functional scheme.
 https://doi.org/10.1080/002689797170220

 S. Goedecker, M. Teter, J. Hutter.
 Phys. Rev. B 54, 1703-1710 (1996).
 Separable dual-space Gaussian pseudopotentials.
 https://doi.org/10.1103/PhysRevB.54.1703

 J. P. Perdew, K. Burke, M. Ernzerhof.
 Phys. Rev. Lett. 77, 3865-3868 (1996).
 Generalized gradient approximation made simple.
 https://doi.org/10.1103/PhysRevLett.77.3865


 -------------------------------------------------------------------------------
 -                                                                             -
 -                                T I M I N G                                  -
 -                                                                             -
 -------------------------------------------------------------------------------
 SUBROUTINE                       CALLS  ASD         SELF TIME        TOTAL TIME
                                MAXIMUM       AVERAGE  MAXIMUM  AVERAGE  MAXIMUM
 CP2K                                 1  1.0    0.012    0.016  443.724  443.725
 qs_energies                          1  2.0    0.000    0.000  443.561  443.563
 ls_scf                               1  3.0    0.000    0.000  442.499  442.501
 pao_update                           7  4.0    0.006    0.024  412.519  412.521
 pao_calc_energy                    816  5.0    0.003    0.018  369.436  369.440
 dbcsr_multiply_generic           50223  8.4    1.386    1.519  347.013  347.367
 multiply_cannon                  50223  9.4    2.586    3.142  280.093  284.005
 multiply_cannon_loop             50223 10.4    1.881    2.123  269.548  273.640
 ls_scf_init_matrix_S               823  7.0    0.008    0.009  210.920  210.996
 pao_rebuild_S                      816  6.0    0.002    0.003  209.104  209.179
 matrix_sqrt_Newton_Schulz          823  8.0    0.168    0.278  195.682  195.726
 multiply_cannon_multrec         401784 11.4  176.726  178.765  177.546  179.589
 pao_dm_trs4                        816  6.0    0.006    0.007  159.945  159.968
 density_matrix_trs4                831  7.0    0.213    0.362  154.149  154.219
 mp_waitall_1                   3216020 12.6   88.343   97.211   88.343   97.211
 multiply_cannon_metrocomm3      401784 11.4    0.704    0.748   70.757   76.558
 arnoldi_extremal                  1654  8.5    0.013    0.015   58.219   58.271
 arnoldi_normal_ev                 1654  9.5    0.036    0.062   58.203   58.255
 make_m2s                        100446  9.4    0.548    0.703   50.951   51.941
 build_subspace                    5711 10.7    0.349    0.409   51.236   51.281
 make_images                     100446 10.4    7.340    7.651   49.588   50.633
 dbcsr_matrix_vector_mult        174638 11.7    0.749    1.203   48.214   48.624
 pao_calc_AB                       1083  5.8    0.002    0.002   42.616   42.619
 pao_calc_AB_equi                  1083  6.8    0.040    0.099   42.614   42.617
 pao_calc_grad_lnv_wrt_AB           266  7.0    0.020    0.024   42.197   42.237
 dbcsr_matrix_vector_mult_local  174638 12.7   41.123   41.430   41.318   41.621
 ls_scf_main                          7  4.0    0.000    0.001   26.453   26.453
 make_images_data                100446 11.4    0.878    1.130   21.624   23.806
 ls_scf_dm_to_ks                     15  5.0    0.000    0.000   23.468   23.471
 hybrid_alltoall_any             102087 12.3    0.910    1.798   16.908   20.380
 mp_sum_l                        205223  9.5    8.454   19.768    8.454   19.768
 matrix_qs_to_ls                   1654  7.5    0.017    0.023   17.166   17.359
 qs_ks_update_qs_env                 16  6.0    0.000    0.000   13.970   13.973
 rebuild_ks_matrix                   16  7.0    0.000    0.000   13.959   13.961
 qs_ks_build_kohn_sham_matrix        16  8.0    0.003    0.003   13.959   13.961
 dbcsr_multiply_generic_mpsum_f   36859  9.5    0.026    0.031    5.149   13.757
 calculate_norms                 750128 11.4   11.635   12.762   11.635   12.762
 make_images_pack                100446 11.4   11.061   11.428   11.196   11.564
 qs_rho_update_rho_low               16  6.0    0.000    0.000   10.968   10.972
 calculate_rho_elec                  16  7.0    0.005    0.006   10.967   10.972
 sum_up_and_integrate                16  9.0    0.000    0.000   10.564   10.567
 integrate_v_rspace                  16 10.0    0.000    0.001   10.549   10.553
 grid_collocate_task_list            16  8.0    9.727    9.905    9.727    9.905
 grid_integrate_task_list            16 11.0    9.284    9.459    9.284    9.459
 -------------------------------------------------------------------------------

 The number of warnings for this run is : 1
 
 -------------------------------------------------------------------------------
  **** **** ******  **  PROGRAM ENDED AT                 2024-09-24 00:52:31.783
 ***** ** ***  *** **   PROGRAM RAN ON                                    moritz
 **    ****   ******    PROGRAM RAN BY                                       ole
 ***** **    ** ** **   PROGRAM PROCESS ID                                165509
  **** **  *******  **  PROGRAM STOPPED IN /home/ole/git/pao_ml_equivar/64H2O_MD
                                           /Frame2000
