 DBCSR| CPU Multiplication driver                                           XSMM (U)
 DBCSR| Multrec recursion limit                                              512 (U)
 DBCSR| Multiplication stack size                                           1000 (D)
 DBCSR| Maximum elements for images                                    UNLIMITED (U)
 DBCSR| Multiplicative factor virtual images                                   1 (U)
 DBCSR| Use multiplication densification                                       T (D)
 DBCSR| Multiplication size stacks                                             3 (U)
 DBCSR| Use memory pool for CPU allocation                                     F (U)
 DBCSR| OMP: Current number of threads                                         1
 DBCSR| OMP: Max number of threads                                             1
 DBCSR| Split modifier for TAS multiplication algorithm                  1.0E+00 (U)


  **** **** ******  **  PROGRAM STARTED AT               2023-02-01 10:47:55.488
 ***** ** ***  *** **   PROGRAM STARTED ON                                moritz
 **    ****   ******    PROGRAM STARTED BY                                   ole
 ***** **    ** ** **   PROGRAM PROCESS ID                                148743
  **** **  *******  **  PROGRAM STARTED IN /home/ole/git/pao_ml_equivar/2H2O_MD/
                                           frame_0900

 CP2K| version string:                 CP2K version 2023.1 (Development Version)
 CP2K| source code revision number:                                  git:03b4147
 CP2K| cp2kflags: omp libint fftw3 libxc quip xsmm spglib libvori libbqb libtorc
 CP2K|            h
 CP2K| is freely available from                            https://www.cp2k.org/
 CP2K| Program compiled at                           Mi 01 Feb 2023 10:36:52 CET
 CP2K| Program compiled on                                                moritz
 CP2K| Program compiled for                                                local
 CP2K| Data directory path                               /home/ole/git/cp2k/data
 CP2K| Input file name                                            2H2O_pao44.inp

 GLOBAL| Force Environment number                                              1
 GLOBAL| Basis set file name                                        BASIS_MOLOPT
 GLOBAL| Potential file name                                      GTH_POTENTIALS
 GLOBAL| MM Potential file name                                     MM_POTENTIAL
 GLOBAL| Coordinate file name                                         coords.xyz
 GLOBAL| Method name                                                        CP2K
 GLOBAL| Project name                                                 2H2O_pao44
 GLOBAL| Run type                                                         ENERGY
 GLOBAL| FFT library                                                       FFTW3
 GLOBAL| Diagonalization library                                       ScaLAPACK
 GLOBAL| DGEMM library                                                      BLAS
 GLOBAL| Orthonormality check for eigenvectors                          DISABLED
 GLOBAL| Matrix multiplication library                                 ScaLAPACK
 GLOBAL| All-to-all communication in single precision                          F
 GLOBAL| FFTs using library dependent lengths                                  F
 GLOBAL| Grid backend                                                       AUTO
 GLOBAL| Global print level                                                  LOW
 GLOBAL| MPI I/O enabled                                                       T
 GLOBAL| Total number of message passing processes                             1
 GLOBAL| Number of threads for this process                                    1
 GLOBAL| This output is from process                                           0
 GLOBAL| Stack size for threads created by OpenMP (OMP_STACKSIZE)        default
 GLOBAL| CPU model name           AMD Ryzen Threadripper 3970X 32-Core Processor
 GLOBAL| CPUID                                                              1002
 GLOBAL| Compiled for CPUID                                                    0

 *** HINT in environment.F:884 :: The compiler target flags (generic) used ***
 *** to build this binary cannot exploit all extensions of this CPU model  ***
 *** (x86_avx2). Consider compiler target flags as part of FCFLAGS and     ***
 *** CFLAGS (ARCH file).                                                   ***


 MEMORY| system memory details [Kb]
 MEMORY|                        rank 0           min           max       average
 MEMORY| MemTotal            131773860     131773860     131773860     131773860
 MEMORY| MemFree             113422832     113422832     113422832     113422832
 MEMORY| Buffers                302624        302624        302624        302624
 MEMORY| Cached                7056636       7056636       7056636       7056636
 MEMORY| Slab                   780228        780228        780228        780228
 MEMORY| SReclaimable           332704        332704        332704        332704
 MEMORY| MemLikelyFree       121114796     121114796     121114796     121114796


 GENERATE|  Preliminary Number of Bonds generated:                             0
 GENERATE|  Achieved consistency in connectivity generation.

 *******************************************************************************
 *******************************************************************************
 **                                                                           **
 **     #####                         ##              ##                      **
 **    ##   ##            ##          ##              ##                      **
 **   ##     ##                       ##            ######                    **
 **   ##     ##  ##   ##  ##   #####  ##  ##   ####   ##    #####    #####    **
 **   ##     ##  ##   ##  ##  ##      ## ##   ##      ##   ##   ##  ##   ##   **
 **   ##  ## ##  ##   ##  ##  ##      ####     ###    ##   ######   ######    **
 **    ##  ###   ##   ##  ##  ##      ## ##      ##   ##   ##       ##        **
 **     #######   #####   ##   #####  ##  ##  ####    ##    #####   ##        **
 **           ##                                                    ##        **
 **                                                                           **
 **                                                ... make the atoms dance   **
 **                                                                           **
 **            Copyright (C) by CP2K developers group (2000-2023)             **
 **                      J. Chem. Phys. 152, 194103 (2020)                    **
 **                                                                           **
 *******************************************************************************


 TOTAL NUMBERS AND MAXIMUM NUMBERS

  Total number of            - Atomic kinds:                                   2
                             - Atoms:                                          6
                             - Shell sets:                                     6
                             - Shells:                                        22
                             - Primitive Cartesian functions:                 42
                             - Cartesian basis functions:                     48
                             - Spherical basis functions:                     46

  Maximum angular momentum of- Orbital basis functions:                        2
                             - Local part of the GTH pseudopotential:          2
                             - Non-local part of the GTH pseudopotential:      0

 ------------------------------ Linear scaling SCF -----------------------------
 eps_scf:                                                              0.100E-07
 eps_filter:                                                           0.100E-07
 mixing_fraction:                                                      0.450E+00
 max_scf:                                                                     25
 fixed chemical potential (mu)                                                 F
 has unit metric:                                                              F
 Computing inv(S):                                                             T
 Computing sqrt(S):                                                            T
 Computing S preconditioner                                                    F
 S sqrt method:                                                     NEWTONSCHULZ
 S sqrt order:                                                                 3
 Extrapolation order:                                                          1
 Use single precision matrices                                                 F
 S preconditioner type                                                      NONE
 Polarized Atomic Orbitals (PAO)                                               T
 Purification method                                   Trace resetting 4th order
 Cluster type                                                             ATOMIC
 Computing Chebyshev                                                       FALSE
 Using PAO                                                                     T
 -------------------------------------------------------------------------------

 
 PAO|                                  EPS_PAO                           0.5E-06
 PAO|                                  MIXING                            0.5E+00
 PAO|                                  MAX_PAO                              1500
 PAO|                                  MAX_CYCLES                           1000
 PAO|                                  PARAMETERIZATION              EQUIVARIANT
 PAO|                                  PRECONDITION                            F
 PAO|                                  REGULARIZATION                    0.0E+00
 PAO|                                  EPS_PGF                           0.1E-09
 PAO|                                  PENALTY_DISTANCE                  0.1E+00
 PAO|                                  PENALTY_STRENGTH                  0.5E-02
 PAO|                                  LINPOT_PRECONDITION_DELTA         0.0E+00
 PAO|                                  LINPOT_INITGUESS_DELT             0.0E+00
 PAO|                                  LINPOT_REGULARIZATION_DELTA       0.0E+00
 PAO|                                  LINPOT_REGULARIZATION_STRENGTH    0.0E+00
 PAO|                                  OPTIMIZER                              CG
 PAO|                                  CG_INIT_STEPS                           2
 PAO|                                  CG_RESET_LIMIT                    0.1E+00
 PAO|                                  CHECK_UNITARY_TOL                -0.1E+01
 PAO|                                  CHECK_GRADIENT_TOL               -0.1E+01
 PAO|                                  NUM_GRADIENT_ORDER                      2
 PAO|                                  NUM_GRADIENT_EPS                  0.1E-07
 PAO|                                  PRINT%RESTART%WRITE_CYCLES            100
 PAO|                                  RESTART_FILE 
 PAO|                                  PREOPT_DM_FILE 2H2O_ref_LS_DM_SPIN_1_RESTART.dm
 PAO|                                  MACHINE_LEARNING%METHOD       GAUSSIAN_PR
 PAO|                                  MACHINE_LEARNING%PRIOR               ZERO
 PAO|                                  MACHINE_LEARNING%DESCRIPTOR     POTENTIAL
 PAO|                                  MACHINE_LEARNING%TOLERANCE        0.1E-01
 PAO|                                  MACHINE_LEARNING%GP_NOISE_VAR     0.1E+00
 PAO|                                  MACHINE_LEARNING%GP_SCALE         0.5E-01
 

 Calculating atomic Fock matrix for atomic kind: O

 Electronic structure
    Total number of core electrons                                          2.00
    Total number of valence electrons                                       6.00
    Total number of electrons                                               8.00
    Multiplicity                                                   not specified
    S   [  2.00] 2.00
    P      4.00


 *******************************************************************************
                  Iteration          Convergence                     Energy [au]
 *******************************************************************************
                          1        0.708315                     -15.576645311500
                          2        0.608879                     -15.587933561584
                          3        0.102828E-01                 -15.656849565404
                          4        0.113889E-02                 -15.656866888140
                          5        0.434197E-03                 -15.656867072159
                          6        0.263771E-03                 -15.656867091904
                          7        0.478536E-06                 -15.656867103452

 Energy components [Hartree]           Total Energy ::          -15.656867103452
                                        Band Energy ::           -3.000198112285
                                     Kinetic Energy ::           11.759971203220
                                   Potential Energy ::          -27.416838306672
                                      Virial (-V/T) ::            2.331369510426
                                        Core Energy ::          -26.140716385623
                                          XC Energy ::           -3.154051012914
                                     Coulomb Energy ::           13.637900295084
                       Total Pseudopotential Energy ::          -37.935781716540
                       Local Pseudopotential Energy ::          -39.218907440693
                    Nonlocal Pseudopotential Energy ::            1.283125724153
                                        Confinement ::            0.350941276976

 Orbital energies  State     L     Occupation   Energy[a.u.]          Energy[eV]

                       1     0          2.000      -0.864471          -23.523463

                       1     1          4.000      -0.317814           -8.648154


 Total Electron Density at R=0:                                         0.000068

 Calculating atomic Fock matrix for atomic kind: H

 Electronic structure
    Total number of core electrons                                          0.00
    Total number of valence electrons                                       1.00
    Total number of electrons                                               1.00
    Multiplicity                                                   not specified
    S      1.00


 *******************************************************************************
                  Iteration          Convergence                     Energy [au]
 *******************************************************************************
                          1        0.437545E-02                  -0.424159432110
                          2        0.531356E-03                  -0.424178438213
                          3        0.259176E-06                  -0.424178722480

 Energy components [Hartree]           Total Energy ::           -0.424178722480
                                        Band Energy ::           -0.199015229016
                                     Kinetic Energy ::            0.464007633961
                                   Potential Energy ::           -0.888186356441
                                      Virial (-V/T) ::            1.914163240935
                                        Core Energy ::           -0.479160803564
                                          XC Energy ::           -0.244352904054
                                     Coulomb Energy ::            0.299334985138
                       Total Pseudopotential Energy ::           -0.962295316385
                       Local Pseudopotential Energy ::           -0.962295316385
                    Nonlocal Pseudopotential Energy ::            0.000000000000
                                        Confinement ::            0.191268788606

 Orbital energies  State     L     Occupation   Energy[a.u.]          Energy[eV]

                       1     0          1.000      -0.199015           -5.415480


 Total Electron Density at R=0:                                         0.242907
 PAO| Made initial guess for matrix_X with norm:   4.8989794855663558     

     Lanczos converged:  T threshold:   0.100E-02
     Est. extremal eigenvalues:    0.335E+01   0.115E+00
     Est. condition number :    0.290E+02

 Order=           3
     NS sqrt iter    1 1.00000000   0.817E+00       0.001       53.489
     NS sqrt iter    2 1.00000000   0.435E+00       0.001      110.592
     NS sqrt iter    3 1.00000000   0.168E+00       0.001      110.592
     NS sqrt iter    4 1.00000000   0.201E-01       0.001      110.592
     NS sqrt iter    5 1.00000000   0.504E-04       0.001       90.368
     Symmetrizing Results
     Final NS sqrt iter    5 1.00000000   0.437E-08

 PAO| Read restart DM 2H2O_ref_LS_DM_SPIN_1_RESTART.dm with checksum:    59.976509355247302     
 PAO| Quickstep energy from restart density:  -34.448807505437074     
 PAO| ======================= Iteration:         1 =============================

     Lanczos converged:  T threshold:   0.100E-02
     Est. extremal eigenvalues:    0.335E+01   0.115E+00
     Est. condition number :    0.290E+02

 Order=           3
     NS sqrt iter    1 1.00000000   0.817E+00       0.002       42.333
     NS sqrt iter    2 1.00000000   0.435E+00       0.001       96.178
     NS sqrt iter    3 1.00000000   0.168E+00       0.001      107.611
     NS sqrt iter    4 1.00000000   0.201E-01       0.001      106.722
     NS sqrt iter    5 1.00000000   0.504E-04       0.001       88.254
     Symmetrizing Results
     Final NS sqrt iter    5 1.00000000   0.437E-08

     Est. extremal eigenvalues     -0.90917     1.81262  converged:  T
     TRS4 it   1 1.00000000   0.877E+00       0.000       16.128   0.100E-07
     TRS4 it   2 1.00000000   0.674E+00       0.001       32.256   0.100E-07
     TRS4 it   3 1.00000000   0.488E+00       0.001       32.256   0.100E-07
     TRS4 it   4 1.00000000   0.306E+00       0.001       32.256   0.100E-07
     TRS4 it   5 1.00000000   0.149E+00       0.001       32.256   0.100E-07
     TRS4 it   6 1.00000000   0.436E-01       0.001       32.256   0.100E-07
     TRS4 it   7 1.00000000   0.507E-02       0.001       32.256   0.100E-07
     TRS4 it   8 1.00000000   0.929E-04       0.001       32.256   0.100E-07
     TRS4 it   9 1.00000000   0.363E-07       0.001       32.256   0.100E-07
     Final TRS4 iteration    9 1.00000000   0.363E-07
     Chemical potential (mu):      -0.06540
 
 PAO| energy:  -7.5845919179266215      penalty:   2.7733391199176194E-033
 PAO|CG| warming up with steepest descent
 PAO|CG| beta:    0.0000000000000000     
 PAO| norm of gradient:  0.79075416877721538     
 PAO|LS| adapt:  T F F
 PAO|LS| adapt: scan_steps:    0.0000000000000000        0.0000000000000000        0.0000000000000000     
 PAO|LS| adapt: energies:   -7.5845919179266215        0.0000000000000000        0.0000000000000000     
 PAO| ======================= Iteration:         2 =============================

     Lanczos converged:  T threshold:   0.100E-02
     Est. extremal eigenvalues:    0.327E+01   0.129E+00
     Est. condition number :    0.254E+02

 Order=           3
     NS sqrt iter    1 1.00000000   0.803E+00       0.001       59.885
     NS sqrt iter    2 1.00000000   0.420E+00       0.001      104.096
     NS sqrt iter    3 1.00000000   0.151E+00       0.001      102.438
     NS sqrt iter    4 1.00000000   0.139E-01       0.001      103.630
     NS sqrt iter    5 1.00000000   0.157E-04       0.001       80.603
     Symmetrizing Results
     Final NS sqrt iter    5 1.00000000   0.362E-09

     Est. extremal eigenvalues     -0.91289     1.76740  converged:  T
     TRS4 it   1 1.00000000   0.875E+00       0.000       16.128   0.100E-07
     TRS4 it   2 1.00000000   0.657E+00       0.001       32.256   0.100E-07
     TRS4 it   3 1.00000000   0.472E+00       0.001       32.256   0.100E-07
     TRS4 it   4 1.00000000   0.285E+00       0.001       32.256   0.100E-07
     TRS4 it   5 1.00000000   0.129E+00       0.001       32.256   0.100E-07
     TRS4 it   6 1.00000000   0.329E-01       0.001       32.256   0.100E-07
     TRS4 it   7 1.00000000   0.292E-02       0.001       32.256   0.100E-07
     TRS4 it   8 1.00000000   0.310E-04       0.001       32.256   0.100E-07
     TRS4 it   9 1.00000000   0.407E-08       0.001       32.256   0.100E-07
     Final TRS4 iteration    9 1.00000000   0.407E-08
     Chemical potential (mu):      -0.05359
 
 PAO| energy:  -7.6410390013819054      penalty:   2.3180737779526152E-008
 PAO|LS| adapt:  T T F
 PAO|LS| adapt: scan_steps:    0.0000000000000000       0.10000000000000001        0.0000000000000000     
 PAO|LS| adapt: energies:   -7.5845919179266215       -7.6410390013819054        0.0000000000000000     
 PAO| ======================= Iteration:         3 =============================

     Lanczos converged:  T threshold:   0.100E-02
     Est. extremal eigenvalues:    0.319E+01   0.141E+00
     Est. condition number :    0.226E+02

 Order=           3
     NS sqrt iter    1 1.00000000   0.787E+00       0.001       55.895
     NS sqrt iter    2 1.00000000   0.404E+00       0.001      105.994
     NS sqrt iter    3 1.00000000   0.134E+00       0.001      106.094
     NS sqrt iter    4 1.00000000   0.954E-02       0.001      106.842
     NS sqrt iter    5 1.00000000   0.516E-05       0.001       80.942
     Symmetrizing Results
     Final NS sqrt iter    5 1.00000000   0.397E-10

     Est. extremal eigenvalues     -0.91634     1.73349  converged:  T
     TRS4 it   1 1.00000000   0.874E+00       0.000       16.128   0.100E-07
     TRS4 it   2 1.00000000   0.643E+00       0.001       32.256   0.100E-07
     TRS4 it   3 1.00000000   0.456E+00       0.001       32.256   0.100E-07
     TRS4 it   4 1.00000000   0.265E+00       0.001       32.256   0.100E-07
     TRS4 it   5 1.00000000   0.111E+00       0.001       32.256   0.100E-07
     TRS4 it   6 1.00000000   0.241E-01       0.001       32.256   0.100E-07
     TRS4 it   7 1.00000000   0.156E-02       0.001       32.256   0.100E-07
     TRS4 it   8 1.00000000   0.894E-05       0.001       32.256   0.100E-07
     TRS4 it   9 1.00000000   0.341E-09       0.001       32.256   0.100E-07
     Final TRS4 iteration    9 1.00000000   0.341E-09
     Chemical potential (mu):      -0.04061
 
 PAO| energy:  -7.6846379640904816      penalty:   3.7089163409624725E-007
 PAO|LS| adapt:  T T F
 PAO|LS| adapt: scan_steps:    0.0000000000000000       0.20000000000000001        0.0000000000000000     
 PAO|LS| adapt: energies:   -7.5845919179266215       -7.6846379640904816        0.0000000000000000     
 PAO| ======================= Iteration:         4 =============================

     Lanczos converged:  T threshold:   0.100E-02
     Est. extremal eigenvalues:    0.301E+01   0.158E+00
     Est. condition number :    0.190E+02

 Order=           3
     NS sqrt iter    1 1.00000000   0.753E+00       0.001       59.744
     NS sqrt iter    2 1.00000000   0.371E+00       0.001      105.435
     NS sqrt iter    3 1.00000000   0.105E+00       0.001      106.403
     NS sqrt iter    4 1.00000000   0.470E-02       0.001       99.766
     NS sqrt iter    5 1.00000000   0.777E-06       0.001       82.624
     Symmetrizing Results
     Final NS sqrt iter    5 1.00000000   0.122E-10

     Est. extremal eigenvalues     -0.92159     1.68783  converged:  T
     TRS4 it   1 1.00000000   0.875E+00       0.000       16.128   0.100E-07
     TRS4 it   2 1.00000000   0.620E+00       0.001       32.256   0.100E-07
     TRS4 it   3 1.00000000   0.427E+00       0.001       32.256   0.100E-07
     TRS4 it   4 1.00000000   0.228E+00       0.001       32.256   0.100E-07
     TRS4 it   5 1.00000000   0.805E-01       0.001       32.256   0.100E-07
     TRS4 it   6 1.00000000   0.122E-01       0.001       32.256   0.100E-07
     TRS4 it   7 1.00000000   0.374E-03       0.001       32.256   0.100E-07
     TRS4 it   8 1.00000000   0.505E-06       0.001       32.256   0.100E-07
     TRS4 it   9 1.00000000   0.110E-11       0.001       32.256   0.100E-07
     Final TRS4 iteration    9 1.00000000   0.110E-11
     Chemical potential (mu):      -0.01203
 
 PAO| energy:  -7.7316277924386450      penalty:   5.9342647825323607E-006
 PAO|LS| Need extra step
 PAO|LS| adapt:  T T F
 PAO|LS| adapt: scan_steps:    0.0000000000000000       0.40000000000000002        0.0000000000000000     
 PAO|LS| adapt: energies:   -7.5845919179266215       -7.7316277924386450        0.0000000000000000     
 PAO| ======================= Iteration:         5 =============================

     Lanczos converged:  T threshold:   0.100E-02
     Est. extremal eigenvalues:    0.266E+01   0.184E+00
     Est. condition number :    0.144E+02

 Order=           3
     NS sqrt iter    1 1.00000000   0.691E+00       0.001       63.441
     NS sqrt iter    2 1.00000000   0.310E+00       0.001      103.004
     NS sqrt iter    3 1.00000000   0.649E-01       0.001      106.450
     NS sqrt iter    4 1.00000000   0.133E-02       0.001      109.328
     NS sqrt iter    5 1.00000000   0.249E-07       0.001       54.668
     Symmetrizing Results
     Final NS sqrt iter    5 1.00000000   0.637E-09

     Est. extremal eigenvalues     -0.92216     1.63947  converged:  T
     TRS4 it   1 1.00000000   0.877E+00       0.000       16.128   0.100E-07
     TRS4 it   2 1.00000000   0.589E+00       0.001       32.256   0.100E-07
     TRS4 it   3 1.00000000   0.383E+00       0.001       32.256   0.100E-07
     TRS4 it   4 1.00000000   0.174E+00       0.001       32.256   0.100E-07
     TRS4 it   5 1.00000000   0.434E-01       0.001       32.256   0.100E-07
     TRS4 it   6 1.00000000   0.313E-02       0.001       32.256   0.100E-07
     TRS4 it   7 1.00000000   0.196E-04       0.001       32.256   0.100E-07
     TRS4 it   8 1.00000000   0.964E-09       0.001       32.256   0.100E-07
     Final TRS4 iteration    8 1.00000000   0.964E-09
     Chemical potential (mu):       0.03964
 
 PAO| energy:  -7.6714785615955865      penalty:   9.4948225616467050E-005
 PAO|LS| Need extra step
 PAO|LS| adapt:  T T T
 PAO|LS| adapt: scan_steps:    0.0000000000000000       0.40000000000000002       0.80000000000000004     
 PAO|LS| adapt: energies:   -7.5845919179266215       -7.7316277924386450       -7.6714785615955865     
 PAO|LS| adapt: suggested step_size:   0.48387344594106357     
 PAO|LS| adapt: predicted energy  -7.7361824688203757     
 PAO| ======================= Iteration:         6 =============================

     Lanczos converged:  T threshold:   0.100E-02
     Est. extremal eigenvalues:    0.293E+01   0.164E+00
     Est. condition number :    0.178E+02

 Order=           3
     NS sqrt iter    1 1.00000000   0.738E+00       0.001       55.321
     NS sqrt iter    2 1.00000000   0.357E+00       0.001      103.420
     NS sqrt iter    3 1.00000000   0.945E-01       0.001      104.469
     NS sqrt iter    4 1.00000000   0.356E-02       0.001      103.984
     NS sqrt iter    5 1.00000000   0.375E-06       0.001       78.075
     Symmetrizing Results
     Final NS sqrt iter    5 1.00000000   0.240E-09

     Est. extremal eigenvalues     -0.92290     1.67433  converged:  T
     TRS4 it   1 1.00000000   0.875E+00       0.000       16.128   0.100E-07
     TRS4 it   2 1.00000000   0.612E+00       0.001       32.256   0.100E-07
     TRS4 it   3 1.00000000   0.417E+00       0.001       32.256   0.100E-07
     TRS4 it   4 1.00000000   0.215E+00       0.001       32.256   0.100E-07
     TRS4 it   5 1.00000000   0.703E-01       0.001       32.256   0.100E-07
     TRS4 it   6 1.00000000   0.903E-02       0.001       32.256   0.100E-07
     TRS4 it   7 1.00000000   0.195E-03       0.001       32.256   0.100E-07
     TRS4 it   8 1.00000000   0.133E-06       0.001       32.256   0.100E-07
     TRS4 it   9 1.00000000   0.774E-13       0.001       32.256   0.100E-07
     Final TRS4 iteration    9 1.00000000   0.774E-13
     Chemical potential (mu):       0.00075
 
 PAO| energy:  -7.7354785423270993      penalty:   1.2707323777878374E-005
 PAO|CG| warming up with steepest descent
 PAO|CG| beta:    0.0000000000000000     
 PAO| norm of gradient:  0.42131885311708173     
 PAO| energy improvement: -0.15088662440047784     
 PAO| step      6                   -7.735478542  0.263E-01  0.484E+00     0.094
 PAO|LS| adapt:  T F F
 PAO|LS| adapt: scan_steps:    0.0000000000000000        0.0000000000000000        0.0000000000000000     
 PAO|LS| adapt: energies:   -7.7354785423270993        0.0000000000000000        0.0000000000000000     
 PAO| ======================= Iteration:         7 =============================

     Lanczos converged:  T threshold:   0.100E-02
     Est. extremal eigenvalues:    0.283E+01   0.177E+00
     Est. condition number :    0.160E+02

 Order=           3
     NS sqrt iter    1 1.00000000   0.719E+00       0.001       58.850
     NS sqrt iter    2 1.00000000   0.336E+00       0.001       98.727
     NS sqrt iter    3 1.00000000   0.788E-01       0.001      101.275
     NS sqrt iter    4 1.00000000   0.218E-02       0.001      102.798
     NS sqrt iter    5 1.00000000   0.996E-07       0.001       67.322
     Symmetrizing Results
     Final NS sqrt iter    5 1.00000000   0.844E-09

     Est. extremal eigenvalues     -0.92457     1.68373  converged:  T
     TRS4 it   1 1.00000000   0.882E+00       0.000       16.128   0.100E-07
     TRS4 it   2 1.00000000   0.616E+00       0.001       32.256   0.100E-07
     TRS4 it   3 1.00000000   0.422E+00       0.001       32.256   0.100E-07
     TRS4 it   4 1.00000000   0.220E+00       0.001       32.256   0.100E-07
     TRS4 it   5 1.00000000   0.734E-01       0.001       32.256   0.100E-07
     TRS4 it   6 1.00000000   0.963E-02       0.001       32.256   0.100E-07
     TRS4 it   7 1.00000000   0.211E-03       0.001       32.256   0.100E-07
     TRS4 it   8 1.00000000   0.146E-06       0.001       32.256   0.100E-07
     TRS4 it   9 1.00000000   0.913E-13       0.001       32.256   0.100E-07
     Final TRS4 iteration    9 1.00000000   0.913E-13
     Chemical potential (mu):       0.00219
 
 PAO| energy:  -7.7318205495617560      penalty:   1.9185071433278502E-005
 PAO|LS| adapt:  T F T
 PAO|LS| adapt: scan_steps:    0.0000000000000000        0.0000000000000000       0.48387344594106357     
 PAO|LS| adapt: energies:   -7.7354785423270993        0.0000000000000000       -7.7318205495617560     
 PAO| ======================= Iteration:         8 =============================

     Lanczos converged:  T threshold:   0.100E-02
     Est. extremal eigenvalues:    0.288E+01   0.171E+00
     Est. condition number :    0.169E+02

 Order=           3
     NS sqrt iter    1 1.00000000   0.729E+00       0.001       61.225
     NS sqrt iter    2 1.00000000   0.346E+00       0.001      106.611
     NS sqrt iter    3 1.00000000   0.865E-01       0.001      105.299
     NS sqrt iter    4 1.00000000   0.280E-02       0.001      108.026
     NS sqrt iter    5 1.00000000   0.198E-06       0.001       78.969
     Symmetrizing Results
     Final NS sqrt iter    5 1.00000000   0.688E-09

     Est. extremal eigenvalues     -0.92477     1.67881  converged:  T
     TRS4 it   1 1.00000000   0.878E+00       0.000       16.128   0.100E-07
     TRS4 it   2 1.00000000   0.614E+00       0.001       32.256   0.100E-07
     TRS4 it   3 1.00000000   0.419E+00       0.001       32.256   0.100E-07
     TRS4 it   4 1.00000000   0.217E+00       0.001       32.256   0.100E-07
     TRS4 it   5 1.00000000   0.717E-01       0.001       32.256   0.100E-07
     TRS4 it   6 1.00000000   0.942E-02       0.001       32.256   0.100E-07
     TRS4 it   7 1.00000000   0.210E-03       0.001       32.256   0.100E-07
     TRS4 it   8 1.00000000   0.150E-06       0.001       32.256   0.100E-07
     TRS4 it   9 1.00000000   0.978E-13       0.001       32.256   0.100E-07
     Final TRS4 iteration    9 1.00000000   0.978E-13
     Chemical potential (mu):       0.00086
 
 PAO| energy:  -7.7557850982120922      penalty:   1.3785443313564995E-005
 PAO|LS| adapt:  T T T
 PAO|LS| adapt: scan_steps:    0.0000000000000000       0.24193672297053179       0.48387344594106357     
 PAO|LS| adapt: energies:   -7.7354785423270993       -7.7557850982120922       -7.7318205495617560     
 PAO|LS| adapt: suggested step_size:   0.23194145866002849     
 PAO|LS| adapt: predicted energy  -7.7558228793766117     
 PAO| ======================= Iteration:         9 =============================

     Lanczos converged:  T threshold:   0.100E-02
     Est. extremal eigenvalues:    0.288E+01   0.170E+00
     Est. condition number :    0.169E+02

 Order=           3
     NS sqrt iter    1 1.00000000   0.729E+00       0.001       57.087
     NS sqrt iter    2 1.00000000   0.347E+00       0.001      100.168
     NS sqrt iter    3 1.00000000   0.868E-01       0.001      102.247
     NS sqrt iter    4 1.00000000   0.283E-02       0.001      103.465
     NS sqrt iter    5 1.00000000   0.204E-06       0.001       77.175
     Symmetrizing Results
     Final NS sqrt iter    5 1.00000000   0.698E-09

     Est. extremal eigenvalues     -0.92474     1.67861  converged:  T
     TRS4 it   1 1.00000000   0.878E+00       0.000       16.128   0.100E-07
     TRS4 it   2 1.00000000   0.614E+00       0.001       32.256   0.100E-07
     TRS4 it   3 1.00000000   0.419E+00       0.001       32.256   0.100E-07
     TRS4 it   4 1.00000000   0.217E+00       0.001       32.256   0.100E-07
     TRS4 it   5 1.00000000   0.717E-01       0.001       32.256   0.100E-07
     TRS4 it   6 1.00000000   0.940E-02       0.001       32.256   0.100E-07
     TRS4 it   7 1.00000000   0.210E-03       0.001       32.256   0.100E-07
     TRS4 it   8 1.00000000   0.150E-06       0.001       32.256   0.100E-07
     TRS4 it   9 1.00000000   0.974E-13       0.001       32.256   0.100E-07
     Final TRS4 iteration    9 1.00000000   0.974E-13
     Chemical potential (mu):       0.00082
 
 PAO| energy:  -7.7558383541125639      penalty:   1.3678109952018471E-005
 PAO|CG| trace_G_new    3.8018730440234953E-002
 PAO|CG| trace_G_prev   0.17750957599189310     
 PAO|CG| trace_G_mix   -1.5221711247190486E-003
 PAO|CG| trace_D   0.17750957599189310     
 PAO|CG| trace_D_Gnew   1.5221711247190486E-003
 PAO|CG| beta:   0.22275362522842060     
 PAO| norm of gradient:  0.19498392354303201     
 PAO| energy improvement:  -2.0359811785464643E-002
 PAO| step      9                   -7.755838354  0.122E-01  0.232E+00     0.058
 PAO|LS| adapt:  T F F
 PAO|LS| adapt: scan_steps:    0.0000000000000000        0.0000000000000000        0.0000000000000000     
 PAO|LS| adapt: energies:   -7.7558383541125639        0.0000000000000000        0.0000000000000000     
 PAO| ======================= Iteration:        10 =============================

     Lanczos converged:  T threshold:   0.100E-02
     Est. extremal eigenvalues:    0.284E+01   0.176E+00
     Est. condition number :    0.162E+02

 Order=           3
     NS sqrt iter    1 1.00000000   0.720E+00       0.001       59.497
     NS sqrt iter    2 1.00000000   0.338E+00       0.001      106.336
     NS sqrt iter    3 1.00000000   0.809E-01       0.001      102.924
     NS sqrt iter    4 1.00000000   0.232E-02       0.002       47.778
     NS sqrt iter    5 1.00000000   0.113E-06       0.001       72.050
     Symmetrizing Results
     Final NS sqrt iter    5 1.00000000   0.917E-09

     Est. extremal eigenvalues     -0.92559     1.67905  converged:  T
     TRS4 it   1 1.00000000   0.878E+00       0.000       16.128   0.100E-07
     TRS4 it   2 1.00000000   0.614E+00       0.001       32.256   0.100E-07
     TRS4 it   3 1.00000000   0.418E+00       0.001       32.256   0.100E-07
     TRS4 it   4 1.00000000   0.215E+00       0.001       32.256   0.100E-07
     TRS4 it   5 1.00000000   0.701E-01       0.001       32.256   0.100E-07
     TRS4 it   6 1.00000000   0.892E-02       0.001       32.256   0.100E-07
     TRS4 it   7 1.00000000   0.185E-03       0.001       32.256   0.100E-07
     TRS4 it   8 1.00000000   0.114E-06       0.001       32.256   0.100E-07
     TRS4 it   9 1.00000000   0.551E-13       0.001       32.256   0.100E-07
     Final TRS4 iteration    9 1.00000000   0.551E-13
     Chemical potential (mu):       0.00414
 
 PAO| energy:  -7.7610540416936589      penalty:   1.4266715988759568E-005
 PAO|LS| adapt:  T T F
 PAO|LS| adapt: scan_steps:    0.0000000000000000       0.23194145866002849        0.0000000000000000     
 PAO|LS| adapt: energies:   -7.7558383541125639       -7.7610540416936589        0.0000000000000000     
 PAO| ======================= Iteration:        11 =============================

     Lanczos converged:  T threshold:   0.100E-02
     Est. extremal eigenvalues:    0.280E+01   0.182E+00
     Est. condition number :    0.154E+02

 Order=           3
     NS sqrt iter    1 1.00000000   0.711E+00       0.001       61.697
     NS sqrt iter    2 1.00000000   0.329E+00       0.001      106.301
     NS sqrt iter    3 1.00000000   0.753E-01       0.001      106.695
     NS sqrt iter    4 1.00000000   0.188E-02       0.001      103.000
     NS sqrt iter    5 1.00000000   0.617E-07       0.001       70.470
     Symmetrizing Results
     Final NS sqrt iter    5 1.00000000   0.422E-09

     Est. extremal eigenvalues     -0.92544     1.68050  converged:  T
     TRS4 it   1 1.00000000   0.878E+00       0.000       16.128   0.100E-07
     TRS4 it   2 1.00000000   0.614E+00       0.001       32.256   0.100E-07
     TRS4 it   3 1.00000000   0.417E+00       0.001       32.256   0.100E-07
     TRS4 it   4 1.00000000   0.213E+00       0.001       32.256   0.100E-07
     TRS4 it   5 1.00000000   0.685E-01       0.001       32.256   0.100E-07
     TRS4 it   6 1.00000000   0.846E-02       0.001       32.256   0.100E-07
     TRS4 it   7 1.00000000   0.163E-03       0.001       32.256   0.100E-07
     TRS4 it   8 1.00000000   0.851E-07       0.001       32.256   0.100E-07
     TRS4 it   9 1.00000000   0.305E-13       0.001       32.256   0.100E-07
     Final TRS4 iteration    9 1.00000000   0.305E-13
     Chemical potential (mu):       0.00760
 
 PAO| energy:  -7.7594744510833857      penalty:   1.5578535843536421E-005
 PAO|LS| adapt:  T T T
 PAO|LS| adapt: scan_steps:    0.0000000000000000       0.23194145866002849       0.46388291732005699     
 PAO|LS| adapt: energies:   -7.7558383541125639       -7.7610540416936589       -7.7594744510833857     
 PAO|LS| adapt: suggested step_size:   0.29399643356252975     
 PAO|LS| adapt: predicted energy  -7.7612972473581090     
 PAO| ======================= Iteration:        12 =============================

     Lanczos converged:  T threshold:   0.100E-02
     Est. extremal eigenvalues:    0.283E+01   0.177E+00
     Est. condition number :    0.160E+02

 Order=           3
     NS sqrt iter    1 1.00000000   0.718E+00       0.001       57.949
     NS sqrt iter    2 1.00000000   0.336E+00       0.001      100.191
     NS sqrt iter    3 1.00000000   0.794E-01       0.001      105.360
     NS sqrt iter    4 1.00000000   0.219E-02       0.001      105.167
     NS sqrt iter    5 1.00000000   0.965E-07       0.001       73.247
     Symmetrizing Results
     Final NS sqrt iter    5 1.00000000   0.799E-09

     Est. extremal eigenvalues     -0.92564     1.67935  converged:  T
     TRS4 it   1 1.00000000   0.878E+00       0.000       16.128   0.100E-07
     TRS4 it   2 1.00000000   0.614E+00       0.001       32.256   0.100E-07
     TRS4 it   3 1.00000000   0.417E+00       0.001       32.256   0.100E-07
     TRS4 it   4 1.00000000   0.215E+00       0.001       32.256   0.100E-07
     TRS4 it   5 1.00000000   0.696E-01       0.001       32.256   0.100E-07
     TRS4 it   6 1.00000000   0.879E-02       0.001       32.256   0.100E-07
     TRS4 it   7 1.00000000   0.179E-03       0.001       32.256   0.100E-07
     TRS4 it   8 1.00000000   0.105E-06       0.001       32.256   0.100E-07
     TRS4 it   9 1.00000000   0.475E-13       0.001       32.256   0.100E-07
     Final TRS4 iteration    9 1.00000000   0.475E-13
     Chemical potential (mu):       0.00505
 
 PAO| energy:  -7.7612812053153313      penalty:   1.4538678711026395E-005
 PAO|CG| trace_G_new    1.2769845324905507E-002
 PAO|CG| trace_G_prev    3.8018730440234953E-002
 PAO|CG| trace_G_mix   -5.0456432798881524E-004
 PAO|CG| trace_D    4.6148471336130203E-002
 PAO|CG| trace_D_Gnew   2.1972324159266082E-004
 PAO|CG| beta:   0.34915446936771222     
 PAO| norm of gradient:  0.11300374031378567     
 PAO| energy improvement:  -5.4428512027673293E-003
 PAO| step     12                   -7.761281205  0.706E-02  0.294E+00     0.061
 PAO|LS| adapt:  T F F
 PAO|LS| adapt: scan_steps:    0.0000000000000000        0.0000000000000000        0.0000000000000000     
 PAO|LS| adapt: energies:   -7.7612812053153313        0.0000000000000000        0.0000000000000000     
 PAO| ======================= Iteration:        13 =============================

     Lanczos converged:  T threshold:   0.100E-02
     Est. extremal eigenvalues:    0.279E+01   0.182E+00
     Est. condition number :    0.153E+02

 Order=           3
     NS sqrt iter    1 1.00000000   0.710E+00       0.001       63.087
     NS sqrt iter    2 1.00000000   0.328E+00       0.001      104.774
     NS sqrt iter    3 1.00000000   0.747E-01       0.001      106.717
     NS sqrt iter    4 1.00000000   0.184E-02       0.001      106.510
     NS sqrt iter    5 1.00000000   0.581E-07       0.001       69.570
     Symmetrizing Results
     Final NS sqrt iter    5 1.00000000   0.400E-09

     Est. extremal eigenvalues     -0.92608     1.67296  converged:  T
     TRS4 it   1 1.00000000   0.878E+00       0.000       16.128   0.100E-07
     TRS4 it   2 1.00000000   0.610E+00       0.001       32.256   0.100E-07
     TRS4 it   3 1.00000000   0.413E+00       0.001       32.256   0.100E-07
     TRS4 it   4 1.00000000   0.209E+00       0.001       32.256   0.100E-07
     TRS4 it   5 1.00000000   0.659E-01       0.001       32.256   0.100E-07
     TRS4 it   6 1.00000000   0.782E-02       0.001       32.256   0.100E-07
     TRS4 it   7 1.00000000   0.139E-03       0.001       32.256   0.100E-07
     TRS4 it   8 1.00000000   0.614E-07       0.001       32.256   0.100E-07
     Final TRS4 iteration    8 1.00000000   0.614E-07
     Chemical potential (mu):       0.00882
 
 PAO| energy:  -7.7634734319833267      penalty:   1.4927582244504361E-005
 PAO|LS| adapt:  T T F
 PAO|LS| adapt: scan_steps:    0.0000000000000000       0.29399643356252975        0.0000000000000000     
 PAO|LS| adapt: energies:   -7.7612812053153313       -7.7634734319833267        0.0000000000000000     
 PAO| ======================= Iteration:        14 =============================

     Lanczos converged:  T threshold:   0.100E-02
     Est. extremal eigenvalues:    0.275E+01   0.186E+00
     Est. condition number :    0.148E+02

 Order=           3
     NS sqrt iter    1 1.00000000   0.702E+00       0.001       63.290
     NS sqrt iter    2 1.00000000   0.320E+00       0.001      106.107
     NS sqrt iter    3 1.00000000   0.703E-01       0.001      106.777
     NS sqrt iter    4 1.00000000   0.154E-02       0.001      105.420
     NS sqrt iter    5 1.00000000   0.345E-07       0.002       25.990
     Symmetrizing Results
     Final NS sqrt iter    5 1.00000000   0.410E-08

     Est. extremal eigenvalues     -0.92603     1.66690  converged:  T
     TRS4 it   1 1.00000000   0.877E+00       0.000       16.128   0.100E-07
     TRS4 it   2 1.00000000   0.607E+00       0.001       32.256   0.100E-07
     TRS4 it   3 1.00000000   0.409E+00       0.001       32.256   0.100E-07
     TRS4 it   4 1.00000000   0.204E+00       0.001       32.256   0.100E-07
     TRS4 it   5 1.00000000   0.625E-01       0.001       32.256   0.100E-07
     TRS4 it   6 1.00000000   0.695E-02       0.001       32.256   0.100E-07
     TRS4 it   7 1.00000000   0.107E-03       0.001       32.256   0.100E-07
     TRS4 it   8 1.00000000   0.357E-07       0.001       32.256   0.100E-07
     Final TRS4 iteration    8 1.00000000   0.357E-07
     Chemical potential (mu):       0.01316
 
 PAO| energy:  -7.7626408081340754      penalty:   1.5855185941872136E-005
 PAO|LS| adapt:  T T T
 PAO|LS| adapt: scan_steps:    0.0000000000000000       0.29399643356252975       0.58799286712505949     
 PAO|LS| adapt: energies:   -7.7612812053153313       -7.7634734319833267       -7.7626408081340754     
 PAO|LS| adapt: suggested step_size:   0.36006885226442420     
 PAO|LS| adapt: predicted energy  -7.7635498208748688     
 PAO| ======================= Iteration:        15 =============================

     Lanczos converged:  T threshold:   0.100E-02
     Est. extremal eigenvalues:    0.278E+01   0.183E+00
     Est. condition number :    0.152E+02

 Order=           3
     NS sqrt iter    1 1.00000000   0.708E+00       0.001       60.443
     NS sqrt iter    2 1.00000000   0.326E+00       0.001      105.822
     NS sqrt iter    3 1.00000000   0.737E-01       0.001      100.259
     NS sqrt iter    4 1.00000000   0.177E-02       0.001      102.205
     NS sqrt iter    5 1.00000000   0.518E-07       0.001       69.760
     Symmetrizing Results
     Final NS sqrt iter    5 1.00000000   0.355E-09

     Est. extremal eigenvalues     -0.92611     1.67157  converged:  T
     TRS4 it   1 1.00000000   0.877E+00       0.000       16.128   0.100E-07
     TRS4 it   2 1.00000000   0.610E+00       0.001       32.256   0.100E-07
     TRS4 it   3 1.00000000   0.412E+00       0.001       32.256   0.100E-07
     TRS4 it   4 1.00000000   0.208E+00       0.001       32.256   0.100E-07
     TRS4 it   5 1.00000000   0.651E-01       0.001       32.256   0.100E-07
     TRS4 it   6 1.00000000   0.762E-02       0.001       32.256   0.100E-07
     TRS4 it   7 1.00000000   0.131E-03       0.001       32.256   0.100E-07
     TRS4 it   8 1.00000000   0.543E-07       0.001       32.256   0.100E-07
     Final TRS4 iteration    8 1.00000000   0.543E-07
     Chemical potential (mu):       0.00981
 
 PAO| energy:  -7.7635469255901537      penalty:   1.5085843869557676E-005
 PAO|CG| trace_G_new    2.9319837993719818E-003
 PAO|CG| trace_G_prev    1.2769845324905507E-002
 PAO|CG| trace_G_mix    7.0940622312891250E-005
 PAO|CG| trace_D    1.8242317390185545E-002
 PAO|CG| trace_D_Gnew   3.9442043974670794E-005
 PAO|CG| beta:   0.22404681531099607     
 PAO| norm of gradient:   5.4147795886554620E-002
 PAO| energy improvement:  -2.2657202748224137E-003
 PAO| step     15                   -7.763546926  0.338E-02  0.360E+00     0.057
 PAO|LS| adapt:  T F F
 PAO|LS| adapt: scan_steps:    0.0000000000000000        0.0000000000000000        0.0000000000000000     
 PAO|LS| adapt: energies:   -7.7635469255901537        0.0000000000000000        0.0000000000000000     
 PAO| ======================= Iteration:        16 =============================

     Lanczos converged:  T threshold:   0.100E-02
     Est. extremal eigenvalues:    0.277E+01   0.183E+00
     Est. condition number :    0.151E+02

 Order=           3
     NS sqrt iter    1 1.00000000   0.706E+00       0.001       60.735
     NS sqrt iter    2 1.00000000   0.325E+00       0.001      106.041
     NS sqrt iter    3 1.00000000   0.730E-01       0.001      107.663
     NS sqrt iter    4 1.00000000   0.172E-02       0.001      101.216
     NS sqrt iter    5 1.00000000   0.476E-07       0.001       68.864
     Symmetrizing Results
     Final NS sqrt iter    5 1.00000000   0.408E-09

     Est. extremal eigenvalues     -0.92613     1.67277  converged:  T
     TRS4 it   1 1.00000000   0.878E+00       0.000       16.128   0.100E-07
     TRS4 it   2 1.00000000   0.609E+00       0.001       32.256   0.100E-07
     TRS4 it   3 1.00000000   0.411E+00       0.001       32.256   0.100E-07
     TRS4 it   4 1.00000000   0.207E+00       0.001       32.256   0.100E-07
     TRS4 it   5 1.00000000   0.642E-01       0.001       32.256   0.100E-07
     TRS4 it   6 1.00000000   0.740E-02       0.001       32.256   0.100E-07
     TRS4 it   7 1.00000000   0.124E-03       0.001       32.256   0.100E-07
     TRS4 it   8 1.00000000   0.491E-07       0.001       32.256   0.100E-07
     Final TRS4 iteration    8 1.00000000   0.491E-07
     Chemical potential (mu):       0.01082
 
 PAO| energy:  -7.7637146146632663      penalty:   1.4919778818212686E-005
 PAO|LS| adapt:  T T F
 PAO|LS| adapt: scan_steps:    0.0000000000000000       0.36006885226442420        0.0000000000000000     
 PAO|LS| adapt: energies:   -7.7635469255901537       -7.7637146146632663        0.0000000000000000     
 PAO| ======================= Iteration:        17 =============================

     Lanczos converged:  T threshold:   0.100E-02
     Est. extremal eigenvalues:    0.276E+01   0.184E+00
     Est. condition number :    0.150E+02

 Order=           3
     NS sqrt iter    1 1.00000000   0.703E+00       0.001       61.010
     NS sqrt iter    2 1.00000000   0.323E+00       0.001      104.944
     NS sqrt iter    3 1.00000000   0.723E-01       0.001      103.836
     NS sqrt iter    4 1.00000000   0.167E-02       0.001      106.215
     NS sqrt iter    5 1.00000000   0.438E-07       0.001       65.921
     Symmetrizing Results
     Final NS sqrt iter    5 1.00000000   0.355E-08

     Est. extremal eigenvalues     -0.92601     1.67413  converged:  T
     TRS4 it   1 1.00000000   0.879E+00       0.000       16.128   0.100E-07
     TRS4 it   2 1.00000000   0.609E+00       0.001       32.256   0.100E-07
     TRS4 it   3 1.00000000   0.410E+00       0.001       32.256   0.100E-07
     TRS4 it   4 1.00000000   0.206E+00       0.001       32.256   0.100E-07
     TRS4 it   5 1.00000000   0.632E-01       0.001       32.256   0.100E-07
     TRS4 it   6 1.00000000   0.719E-02       0.001       32.256   0.100E-07
     TRS4 it   7 1.00000000   0.117E-03       0.001       32.256   0.100E-07
     TRS4 it   8 1.00000000   0.445E-07       0.001       32.256   0.100E-07
     Final TRS4 iteration    8 1.00000000   0.445E-07
     Chemical potential (mu):       0.01182
 
 PAO| energy:  -7.7621074002414430      penalty:   1.4891673580555897E-005
 PAO|LS| adapt:  T T T
 PAO|LS| adapt: scan_steps:    0.0000000000000000       0.36006885226442420       0.72013770452884840     
 PAO|LS| adapt: energies:   -7.7635469255901537       -7.7637146146632663       -7.7621074002414430     
 PAO|LS| adapt: suggested step_size:   0.21405295855676978     
 PAO|LS| adapt: predicted energy  -7.7638605545154533     
 PAO| ======================= Iteration:        18 =============================

     Lanczos converged:  T threshold:   0.100E-02
     Est. extremal eigenvalues:    0.278E+01   0.183E+00
     Est. condition number :    0.152E+02

 Order=           3
     NS sqrt iter    1 1.00000000   0.707E+00       0.001       61.691
     NS sqrt iter    2 1.00000000   0.325E+00       0.001      105.142
     NS sqrt iter    3 1.00000000   0.733E-01       0.001      105.229
     NS sqrt iter    4 1.00000000   0.174E-02       0.001      106.895
     NS sqrt iter    5 1.00000000   0.492E-07       0.001       69.120
     Symmetrizing Results
     Final NS sqrt iter    5 1.00000000   0.419E-09

     Est. extremal eigenvalues     -0.92614     1.67226  converged:  T
     TRS4 it   1 1.00000000   0.878E+00       0.000       16.128   0.100E-07
     TRS4 it   2 1.00000000   0.609E+00       0.001       32.256   0.100E-07
     TRS4 it   3 1.00000000   0.412E+00       0.001       32.256   0.100E-07
     TRS4 it   4 1.00000000   0.207E+00       0.002       17.445   0.100E-07
     TRS4 it   5 1.00000000   0.646E-01       0.001       32.256   0.100E-07
     TRS4 it   6 1.00000000   0.748E-02       0.001       32.256   0.100E-07
     TRS4 it   7 1.00000000   0.127E-03       0.001       32.256   0.100E-07
     TRS4 it   8 1.00000000   0.512E-07       0.001       32.256   0.100E-07
     Final TRS4 iteration    8 1.00000000   0.512E-07
     Chemical potential (mu):       0.01041
 
 PAO| energy:  -7.7638601430187979      penalty:   1.4970849959512327E-005
 PAO|CG| trace_G_new    8.0832078898123035E-004
 PAO|CG| trace_G_prev    2.9319837993719818E-003
 PAO|CG| trace_G_mix    1.4653497939591423E-006
 PAO|CG| trace_D    3.8300192288927065E-003
 PAO|CG| trace_D_Gnew  -1.8179030004159811E-006
 PAO|CG| beta:   0.27519096093235446     
 PAO| norm of gradient:   2.8430982905647675E-002
 PAO| energy improvement:  -3.1321742864420798E-004
 PAO| step     18                   -7.763860143  0.178E-02  0.214E+00     0.058
 PAO|LS| adapt:  T F F
 PAO|LS| adapt: scan_steps:    0.0000000000000000        0.0000000000000000        0.0000000000000000     
 PAO|LS| adapt: energies:   -7.7638601430187979        0.0000000000000000        0.0000000000000000     
 PAO| ======================= Iteration:        19 =============================

     Lanczos converged:  T threshold:   0.100E-02
     Est. extremal eigenvalues:    0.278E+01   0.183E+00
     Est. condition number :    0.152E+02

 Order=           3
     NS sqrt iter    1 1.00000000   0.706E+00       0.001       60.744
     NS sqrt iter    2 1.00000000   0.325E+00       0.001       98.790
     NS sqrt iter    3 1.00000000   0.735E-01       0.001      105.745
     NS sqrt iter    4 1.00000000   0.175E-02       0.001       97.707
     NS sqrt iter    5 1.00000000   0.498E-07       0.001       66.605
     Symmetrizing Results
     Final NS sqrt iter    5 1.00000000   0.420E-09

     Est. extremal eigenvalues     -0.92614     1.67264  converged:  T
     TRS4 it   1 1.00000000   0.878E+00       0.000       16.128   0.100E-07
     TRS4 it   2 1.00000000   0.609E+00       0.001       32.256   0.100E-07
     TRS4 it   3 1.00000000   0.411E+00       0.001       32.256   0.100E-07
     TRS4 it   4 1.00000000   0.207E+00       0.001       32.256   0.100E-07
     TRS4 it   5 1.00000000   0.645E-01       0.001       32.256   0.100E-07
     TRS4 it   6 1.00000000   0.748E-02       0.001       32.256   0.100E-07
     TRS4 it   7 1.00000000   0.128E-03       0.001       32.256   0.100E-07
     TRS4 it   8 1.00000000   0.524E-07       0.001       32.256   0.100E-07
     Final TRS4 iteration    8 1.00000000   0.524E-07
     Chemical potential (mu):       0.01018
 
 PAO| energy:  -7.7639914506642942      penalty:   1.4691121844395630E-005
 PAO|LS| adapt:  T T F
 PAO|LS| adapt: scan_steps:    0.0000000000000000       0.21405295855676978        0.0000000000000000     
 PAO|LS| adapt: energies:   -7.7638601430187979       -7.7639914506642942        0.0000000000000000     
 PAO| ======================= Iteration:        20 =============================

     Lanczos converged:  T threshold:   0.100E-02
     Est. extremal eigenvalues:    0.278E+01   0.183E+00
     Est. condition number :    0.152E+02

 Order=           3
     NS sqrt iter    1 1.00000000   0.706E+00       0.001       60.447
     NS sqrt iter    2 1.00000000   0.326E+00       0.001      104.089
     NS sqrt iter    3 1.00000000   0.737E-01       0.001      105.876
     NS sqrt iter    4 1.00000000   0.176E-02       0.001      107.647
     NS sqrt iter    5 1.00000000   0.504E-07       0.001       68.503
     Symmetrizing Results
     Final NS sqrt iter    5 1.00000000   0.364E-09

     Est. extremal eigenvalues     -0.92614     1.67302  converged:  T
     TRS4 it   1 1.00000000   0.878E+00       0.000       16.128   0.100E-07
     TRS4 it   2 1.00000000   0.609E+00       0.001       32.256   0.100E-07
     TRS4 it   3 1.00000000   0.411E+00       0.001       32.256   0.100E-07
     TRS4 it   4 1.00000000   0.207E+00       0.002       17.380   0.100E-07
     TRS4 it   5 1.00000000   0.644E-01       0.001       32.256   0.100E-07
     TRS4 it   6 1.00000000   0.749E-02       0.001       32.256   0.100E-07
     TRS4 it   7 1.00000000   0.129E-03       0.001       32.256   0.100E-07
     TRS4 it   8 1.00000000   0.538E-07       0.001       32.256   0.100E-07
     Final TRS4 iteration    8 1.00000000   0.538E-07
     Chemical potential (mu):       0.00995
 
 PAO| energy:  -7.7640386439866891      penalty:   1.4424994298616670E-005
 PAO|LS| adapt:  T T F
 PAO|LS| adapt: scan_steps:    0.0000000000000000       0.42810591711353957        0.0000000000000000     
 PAO|LS| adapt: energies:   -7.7638601430187979       -7.7640386439866891        0.0000000000000000     
 PAO| ======================= Iteration:        21 =============================

     Lanczos converged:  T threshold:   0.100E-02
     Est. extremal eigenvalues:    0.277E+01   0.182E+00
     Est. condition number :    0.152E+02

 Order=           3
     NS sqrt iter    1 1.00000000   0.706E+00       0.001       63.332
     NS sqrt iter    2 1.00000000   0.326E+00       0.001      108.493
     NS sqrt iter    3 1.00000000   0.742E-01       0.001      104.954
     NS sqrt iter    4 1.00000000   0.178E-02       0.001      107.909
     NS sqrt iter    5 1.00000000   0.517E-07       0.001       69.632
     Symmetrizing Results
     Final NS sqrt iter    5 1.00000000   0.376E-09

     Est. extremal eigenvalues     -0.92612     1.67379  converged:  T
     TRS4 it   1 1.00000000   0.878E+00       0.000       16.128   0.100E-07
     TRS4 it   2 1.00000000   0.609E+00       0.001       32.256   0.100E-07
     TRS4 it   3 1.00000000   0.411E+00       0.001       32.256   0.100E-07
     TRS4 it   4 1.00000000   0.207E+00       0.001       32.256   0.100E-07
     TRS4 it   5 1.00000000   0.642E-01       0.001       32.256   0.100E-07
     TRS4 it   6 1.00000000   0.749E-02       0.001       32.256   0.100E-07
     TRS4 it   7 1.00000000   0.130E-03       0.001       32.256   0.100E-07
     TRS4 it   8 1.00000000   0.565E-07       0.001       32.256   0.100E-07
     Final TRS4 iteration    8 1.00000000   0.565E-07
     Chemical potential (mu):       0.00947
 
 PAO| energy:  -7.7638778439753215      penalty:   1.3932987698725828E-005
 PAO|LS| Need extra step
 PAO|LS| adapt:  T T T
 PAO|LS| adapt: scan_steps:    0.0000000000000000       0.42810591711353957       0.85621183422707914     
 PAO|LS| adapt: energies:   -7.7638601430187979       -7.7640386439866891       -7.7638778439753215     
 PAO|LS| adapt: suggested step_size:   0.43927282303125703     
 PAO|LS| adapt: predicted energy  -7.7640387594166027     
 PAO| ======================= Iteration:        22 =============================

     Lanczos converged:  T threshold:   0.100E-02
     Est. extremal eigenvalues:    0.278E+01   0.183E+00
     Est. condition number :    0.152E+02

 Order=           3
     NS sqrt iter    1 1.00000000   0.706E+00       0.001       62.702
     NS sqrt iter    2 1.00000000   0.326E+00       0.001      104.747
     NS sqrt iter    3 1.00000000   0.737E-01       0.001      106.113
     NS sqrt iter    4 1.00000000   0.176E-02       0.001      105.137
     NS sqrt iter    5 1.00000000   0.504E-07       0.001       69.632
     Symmetrizing Results
     Final NS sqrt iter    5 1.00000000   0.365E-09

     Est. extremal eigenvalues     -0.92614     1.67304  converged:  T
     TRS4 it   1 1.00000000   0.878E+00       0.000       16.128   0.100E-07
     TRS4 it   2 1.00000000   0.609E+00       0.001       32.256   0.100E-07
     TRS4 it   3 1.00000000   0.411E+00       0.001       32.256   0.100E-07
     TRS4 it   4 1.00000000   0.207E+00       0.001       32.256   0.100E-07
     TRS4 it   5 1.00000000   0.644E-01       0.001       32.256   0.100E-07
     TRS4 it   6 1.00000000   0.749E-02       0.001       32.256   0.100E-07
     TRS4 it   7 1.00000000   0.129E-03       0.001       32.256   0.100E-07
     TRS4 it   8 1.00000000   0.538E-07       0.001       32.256   0.100E-07
     Final TRS4 iteration    8 1.00000000   0.538E-07
     Chemical potential (mu):       0.00994
 
 PAO| energy:  -7.7640387841307135      penalty:   1.4411480622994955E-005
 PAO|CG| trace_G_new    2.3297969060331528E-004
 PAO|CG| trace_G_prev    8.0832078898123035E-004
 PAO|CG| trace_G_mix    3.7701723703460823E-006
 PAO|CG| trace_D    1.0993689350027396E-003
 PAO|CG| trace_D_Gnew  -2.2193795836690303E-006
 PAO|CG| beta:   0.28356256743297936     
 PAO| norm of gradient:   1.5263672251568928E-002
 PAO| energy improvement:  -1.7864111191556731E-004
 PAO| step     22                   -7.764038784  0.954E-03  0.439E+00     0.076
 PAO|LS| adapt:  T F F
 PAO|LS| adapt: scan_steps:    0.0000000000000000        0.0000000000000000        0.0000000000000000     
 PAO|LS| adapt: energies:   -7.7640387841307135        0.0000000000000000        0.0000000000000000     
 PAO| ======================= Iteration:        23 =============================

     Lanczos converged:  T threshold:   0.100E-02
     Est. extremal eigenvalues:    0.278E+01   0.183E+00
     Est. condition number :    0.152E+02

 Order=           3
     NS sqrt iter    1 1.00000000   0.706E+00       0.001       62.149
     NS sqrt iter    2 1.00000000   0.326E+00       0.001      107.131
     NS sqrt iter    3 1.00000000   0.738E-01       0.001      103.917
     NS sqrt iter    4 1.00000000   0.176E-02       0.001      104.757
     NS sqrt iter    5 1.00000000   0.503E-07       0.001       68.703
     Symmetrizing Results
     Final NS sqrt iter    5 1.00000000   0.365E-09

     Est. extremal eigenvalues     -0.92614     1.67304  converged:  T
     TRS4 it   1 1.00000000   0.878E+00       0.000       16.128   0.100E-07
     TRS4 it   2 1.00000000   0.610E+00       0.001       32.256   0.100E-07
     TRS4 it   3 1.00000000   0.411E+00       0.001       32.256   0.100E-07
     TRS4 it   4 1.00000000   0.207E+00       0.001       32.256   0.100E-07
     TRS4 it   5 1.00000000   0.645E-01       0.001       32.256   0.100E-07
     TRS4 it   6 1.00000000   0.753E-02       0.001       32.256   0.100E-07
     TRS4 it   7 1.00000000   0.130E-03       0.001       32.256   0.100E-07
     TRS4 it   8 1.00000000   0.557E-07       0.001       32.256   0.100E-07
     Final TRS4 iteration    8 1.00000000   0.557E-07
     Chemical potential (mu):       0.00961
 
 PAO| energy:  -7.7640823046546439      penalty:   1.3758301658069996E-005
 PAO|LS| adapt:  T T F
 PAO|LS| adapt: scan_steps:    0.0000000000000000       0.43927282303125703        0.0000000000000000     
 PAO|LS| adapt: energies:   -7.7640387841307135       -7.7640823046546439        0.0000000000000000     
 PAO| ======================= Iteration:        24 =============================

     Lanczos converged:  T threshold:   0.100E-02
     Est. extremal eigenvalues:    0.278E+01   0.183E+00
     Est. condition number :    0.152E+02

 Order=           3
     NS sqrt iter    1 1.00000000   0.706E+00       0.001       63.700
     NS sqrt iter    2 1.00000000   0.326E+00       0.001      102.710
     NS sqrt iter    3 1.00000000   0.738E-01       0.001      109.005
     NS sqrt iter    4 1.00000000   0.176E-02       0.001      108.207
     NS sqrt iter    5 1.00000000   0.502E-07       0.001       69.632
     Symmetrizing Results
     Final NS sqrt iter    5 1.00000000   0.365E-09

     Est. extremal eigenvalues     -0.92613     1.67304  converged:  T
     TRS4 it   1 1.00000000   0.878E+00       0.000       16.128   0.100E-07
     TRS4 it   2 1.00000000   0.610E+00       0.001       32.256   0.100E-07
     TRS4 it   3 1.00000000   0.412E+00       0.001       32.256   0.100E-07
     TRS4 it   4 1.00000000   0.207E+00       0.001       32.256   0.100E-07
     TRS4 it   5 1.00000000   0.647E-01       0.001       32.256   0.100E-07
     TRS4 it   6 1.00000000   0.757E-02       0.001       32.256   0.100E-07
     TRS4 it   7 1.00000000   0.132E-03       0.001       32.256   0.100E-07
     TRS4 it   8 1.00000000   0.576E-07       0.001       32.256   0.100E-07
     Final TRS4 iteration    8 1.00000000   0.576E-07
     Chemical potential (mu):       0.00927
 
 PAO| energy:  -7.7640069928420932      penalty:   1.3132135204656895E-005
 PAO|LS| adapt:  T T T
 PAO|LS| adapt: scan_steps:    0.0000000000000000       0.43927282303125703       0.87854564606251406     
 PAO|LS| adapt: energies:   -7.7640387841307135       -7.7640823046546439       -7.7640069928420932     
 PAO|LS| adapt: suggested step_size:   0.38051335774776202     
 PAO|LS| adapt: predicted energy  -7.7640833677975367     
 PAO| ======================= Iteration:        25 =============================

     Lanczos converged:  T threshold:   0.100E-02
     Est. extremal eigenvalues:    0.278E+01   0.183E+00
     Est. condition number :    0.152E+02

 Order=           3
     NS sqrt iter    1 1.00000000   0.706E+00       0.001       58.592
     NS sqrt iter    2 1.00000000   0.326E+00       0.001      103.358
     NS sqrt iter    3 1.00000000   0.737E-01       0.001      101.513
     NS sqrt iter    4 1.00000000   0.176E-02       0.001       95.766
     NS sqrt iter    5 1.00000000   0.504E-07       0.001       67.696
     Symmetrizing Results
     Final NS sqrt iter    5 1.00000000   0.365E-09

     Est. extremal eigenvalues     -0.92614     1.67304  converged:  T
     TRS4 it   1 1.00000000   0.878E+00       0.000       16.128   0.100E-07
     TRS4 it   2 1.00000000   0.610E+00       0.001       32.256   0.100E-07
     TRS4 it   3 1.00000000   0.411E+00       0.001       32.256   0.100E-07
     TRS4 it   4 1.00000000   0.207E+00       0.001       32.256   0.100E-07
     TRS4 it   5 1.00000000   0.645E-01       0.001       32.256   0.100E-07
     TRS4 it   6 1.00000000   0.752E-02       0.001       32.256   0.100E-07
     TRS4 it   7 1.00000000   0.130E-03       0.001       32.256   0.100E-07
     TRS4 it   8 1.00000000   0.554E-07       0.001       32.256   0.100E-07
     Final TRS4 iteration    8 1.00000000   0.554E-07
     Chemical potential (mu):       0.00965
 
 PAO| energy:  -7.7640833467235559      penalty:   1.3844096820229529E-005
 PAO|CG| trace_G_new    8.8754979588593372E-005
 PAO|CG| trace_G_prev    2.3297969060331528E-004
 PAO|CG| trace_G_mix    4.9172863061548482E-007
 PAO|CG| trace_D    3.2263611665943282E-004
 PAO|CG| trace_D_Gnew  -3.5159268693015239E-007
 PAO|CG| beta:   0.37884525783949130     
 PAO| norm of gradient:   9.4209861261225387E-003
 PAO| energy improvement:  -4.4562592842467552E-005
 PAO| step     25                   -7.764083347  0.589E-03  0.381E+00     0.057
 PAO|LS| adapt:  T F F
 PAO|LS| adapt: scan_steps:    0.0000000000000000        0.0000000000000000        0.0000000000000000     
 PAO|LS| adapt: energies:   -7.7640833467235559        0.0000000000000000        0.0000000000000000     
 PAO| ======================= Iteration:        26 =============================

     Lanczos converged:  T threshold:   0.100E-02
     Est. extremal eigenvalues:    0.277E+01   0.183E+00
     Est. condition number :    0.152E+02

 Order=           3
     NS sqrt iter    1 1.00000000   0.706E+00       0.001       63.588
     NS sqrt iter    2 1.00000000   0.325E+00       0.002       61.173
     NS sqrt iter    3 1.00000000   0.737E-01       0.001      106.067
     NS sqrt iter    4 1.00000000   0.175E-02       0.001      106.768
     NS sqrt iter    5 1.00000000   0.500E-07       0.001       68.314
     Symmetrizing Results
     Final NS sqrt iter    5 1.00000000   0.365E-09

     Est. extremal eigenvalues     -0.92614     1.67311  converged:  T
     TRS4 it   1 1.00000000   0.878E+00       0.000       16.128   0.100E-07
     TRS4 it   2 1.00000000   0.610E+00       0.001       32.256   0.100E-07
     TRS4 it   3 1.00000000   0.411E+00       0.001       32.256   0.100E-07
     TRS4 it   4 1.00000000   0.207E+00       0.001       32.256   0.100E-07
     TRS4 it   5 1.00000000   0.645E-01       0.001       32.256   0.100E-07
     TRS4 it   6 1.00000000   0.752E-02       0.001       32.256   0.100E-07
     TRS4 it   7 1.00000000   0.130E-03       0.001       32.256   0.100E-07
     TRS4 it   8 1.00000000   0.552E-07       0.001       32.256   0.100E-07
     Final TRS4 iteration    8 1.00000000   0.552E-07
     Chemical potential (mu):       0.00968
 
 PAO| energy:  -7.7640900376772377      penalty:   1.3212765916590113E-005
 PAO|LS| adapt:  T T F
 PAO|LS| adapt: scan_steps:    0.0000000000000000       0.38051335774776202        0.0000000000000000     
 PAO|LS| adapt: energies:   -7.7640833467235559       -7.7640900376772377        0.0000000000000000     
 PAO| ======================= Iteration:        27 =============================

     Lanczos converged:  T threshold:   0.100E-02
     Est. extremal eigenvalues:    0.277E+01   0.183E+00
     Est. condition number :    0.152E+02

 Order=           3
     NS sqrt iter    1 1.00000000   0.706E+00       0.001       62.262
     NS sqrt iter    2 1.00000000   0.325E+00       0.001      106.449
     NS sqrt iter    3 1.00000000   0.736E-01       0.001      107.325
     NS sqrt iter    4 1.00000000   0.175E-02       0.001      107.203
     NS sqrt iter    5 1.00000000   0.497E-07       0.001       68.893
     Symmetrizing Results
     Final NS sqrt iter    5 1.00000000   0.421E-09

     Est. extremal eigenvalues     -0.92614     1.67317  converged:  T
     TRS4 it   1 1.00000000   0.878E+00       0.000       16.128   0.100E-07
     TRS4 it   2 1.00000000   0.610E+00       0.001       32.256   0.100E-07
     TRS4 it   3 1.00000000   0.411E+00       0.001       32.256   0.100E-07
     TRS4 it   4 1.00000000   0.207E+00       0.001       32.256   0.100E-07
     TRS4 it   5 1.00000000   0.645E-01       0.001       32.256   0.100E-07
     TRS4 it   6 1.00000000   0.752E-02       0.001       32.256   0.100E-07
     TRS4 it   7 1.00000000   0.130E-03       0.001       32.256   0.100E-07
     TRS4 it   8 1.00000000   0.551E-07       0.001       32.256   0.100E-07
     Final TRS4 iteration    8 1.00000000   0.551E-07
     Chemical potential (mu):       0.00972
 
 PAO| energy:  -7.7640423599917066      penalty:   1.2599768398133119E-005
 PAO|LS| adapt:  T T T
 PAO|LS| adapt: scan_steps:    0.0000000000000000       0.38051335774776202       0.76102671549552403     
 PAO|LS| adapt: energies:   -7.7640833467235559       -7.7640900376772377       -7.7640423599917066     
 PAO|LS| adapt: suggested step_size:   0.23708509482919146     
 PAO|LS| adapt: predicted energy  -7.7640938999961495     
 PAO| ======================= Iteration:        28 =============================

     Lanczos converged:  T threshold:   0.100E-02
     Est. extremal eigenvalues:    0.277E+01   0.183E+00
     Est. condition number :    0.152E+02

 Order=           3
     NS sqrt iter    1 1.00000000   0.706E+00       0.001       62.697
     NS sqrt iter    2 1.00000000   0.326E+00       0.001      107.202
     NS sqrt iter    3 1.00000000   0.737E-01       0.001      110.016
     NS sqrt iter    4 1.00000000   0.176E-02       0.001      108.127
     NS sqrt iter    5 1.00000000   0.501E-07       0.001       69.504
     Symmetrizing Results
     Final NS sqrt iter    5 1.00000000   0.366E-09

     Est. extremal eigenvalues     -0.92614     1.67308  converged:  T
     TRS4 it   1 1.00000000   0.878E+00       0.000       16.128   0.100E-07
     TRS4 it   2 1.00000000   0.610E+00       0.001       32.256   0.100E-07
     TRS4 it   3 1.00000000   0.411E+00       0.001       32.256   0.100E-07
     TRS4 it   4 1.00000000   0.207E+00       0.001       32.256   0.100E-07
     TRS4 it   5 1.00000000   0.645E-01       0.001       32.256   0.100E-07
     TRS4 it   6 1.00000000   0.752E-02       0.001       32.256   0.100E-07
     TRS4 it   7 1.00000000   0.130E-03       0.001       32.256   0.100E-07
     TRS4 it   8 1.00000000   0.553E-07       0.001       32.256   0.100E-07
     Final TRS4 iteration    8 1.00000000   0.553E-07
     Chemical potential (mu):       0.00967
 
 PAO| energy:  -7.7640938916347206      penalty:   1.3448570478128425E-005
 PAO|CG| trace_G_new    2.1033805129562534E-005
 PAO|CG| trace_G_prev    8.8754979588593372E-005
 PAO|CG| trace_G_mix    8.0793776337012820E-008
 PAO|CG| trace_D    1.3532731673091529E-004
 PAO|CG| trace_D_Gnew  -3.8357503740281414E-008
 PAO|CG| beta:   0.23607702294957619     
 PAO| norm of gradient:   4.5862626537914869E-003
 PAO| energy improvement:  -1.0544911164700466E-005
 PAO| step     28                   -7.764093892  0.287E-03  0.237E+00     0.056
 PAO|LS| adapt:  T F F
 PAO|LS| adapt: scan_steps:    0.0000000000000000        0.0000000000000000        0.0000000000000000     
 PAO|LS| adapt: energies:   -7.7640938916347206        0.0000000000000000        0.0000000000000000     
 PAO| ======================= Iteration:        29 =============================

     Lanczos converged:  T threshold:   0.100E-02
     Est. extremal eigenvalues:    0.277E+01   0.183E+00
     Est. condition number :    0.152E+02

 Order=           3
     NS sqrt iter    1 1.00000000   0.706E+00       0.001       62.789
     NS sqrt iter    2 1.00000000   0.325E+00       0.001      104.926
     NS sqrt iter    3 1.00000000   0.736E-01       0.001      106.524
     NS sqrt iter    4 1.00000000   0.175E-02       0.001      106.185
     NS sqrt iter    5 1.00000000   0.501E-07       0.001       69.504
     Symmetrizing Results
     Final NS sqrt iter    5 1.00000000   0.365E-09

     Est. extremal eigenvalues     -0.92614     1.67314  converged:  T
     TRS4 it   1 1.00000000   0.878E+00       0.000       16.128   0.100E-07
     TRS4 it   2 1.00000000   0.610E+00       0.001       32.256   0.100E-07
     TRS4 it   3 1.00000000   0.411E+00       0.001       32.256   0.100E-07
     TRS4 it   4 1.00000000   0.207E+00       0.001       32.256   0.100E-07
     TRS4 it   5 1.00000000   0.644E-01       0.001       32.256   0.100E-07
     TRS4 it   6 1.00000000   0.751E-02       0.001       32.256   0.100E-07
     TRS4 it   7 1.00000000   0.130E-03       0.001       32.256   0.100E-07
     TRS4 it   8 1.00000000   0.547E-07       0.001       32.256   0.100E-07
     Final TRS4 iteration    8 1.00000000   0.547E-07
     Chemical potential (mu):       0.00977
 
 PAO| energy:  -7.7640982752757353      penalty:   1.3098668678682157E-005
 PAO|LS| adapt:  T T F
 PAO|LS| adapt: scan_steps:    0.0000000000000000       0.23708509482919146        0.0000000000000000     
 PAO|LS| adapt: energies:   -7.7640938916347206       -7.7640982752757353        0.0000000000000000     
 PAO| ======================= Iteration:        30 =============================

     Lanczos converged:  T threshold:   0.100E-02
     Est. extremal eigenvalues:    0.277E+01   0.183E+00
     Est. condition number :    0.152E+02

 Order=           3
     NS sqrt iter    1 1.00000000   0.706E+00       0.001       62.653
     NS sqrt iter    2 1.00000000   0.325E+00       0.001      103.119
     NS sqrt iter    3 1.00000000   0.736E-01       0.001      105.965
     NS sqrt iter    4 1.00000000   0.175E-02       0.001      105.862
     NS sqrt iter    5 1.00000000   0.500E-07       0.001       69.504
     Symmetrizing Results
     Final NS sqrt iter    5 1.00000000   0.365E-09

     Est. extremal eigenvalues     -0.92614     1.67319  converged:  T
     TRS4 it   1 1.00000000   0.878E+00       0.000       16.128   0.100E-07
     TRS4 it   2 1.00000000   0.610E+00       0.001       32.256   0.100E-07
     TRS4 it   3 1.00000000   0.411E+00       0.001       32.256   0.100E-07
     TRS4 it   4 1.00000000   0.207E+00       0.001       32.256   0.100E-07
     TRS4 it   5 1.00000000   0.644E-01       0.001       32.256   0.100E-07
     TRS4 it   6 1.00000000   0.749E-02       0.001       32.256   0.100E-07
     TRS4 it   7 1.00000000   0.129E-03       0.001       32.256   0.100E-07
     TRS4 it   8 1.00000000   0.541E-07       0.001       32.256   0.100E-07
     Final TRS4 iteration    8 1.00000000   0.541E-07
     Chemical potential (mu):       0.00988
 
 PAO| energy:  -7.7641014465855713      penalty:   1.2753785654706616E-005
 PAO|LS| adapt:  T T F
 PAO|LS| adapt: scan_steps:    0.0000000000000000       0.47417018965838292        0.0000000000000000     
 PAO|LS| adapt: energies:   -7.7640938916347206       -7.7641014465855713        0.0000000000000000     
 PAO| ======================= Iteration:        31 =============================

     Lanczos converged:  T threshold:   0.100E-02
     Est. extremal eigenvalues:    0.277E+01   0.183E+00
     Est. condition number :    0.152E+02

 Order=           3
     NS sqrt iter    1 1.00000000   0.705E+00       0.001       63.391
     NS sqrt iter    2 1.00000000   0.325E+00       0.001      107.661
     NS sqrt iter    3 1.00000000   0.735E-01       0.001      110.124
     NS sqrt iter    4 1.00000000   0.175E-02       0.001      107.409
     NS sqrt iter    5 1.00000000   0.498E-07       0.001       69.376
     Symmetrizing Results
     Final NS sqrt iter    5 1.00000000   0.368E-09

     Est. extremal eigenvalues     -0.92614     1.67330  converged:  T
     TRS4 it   1 1.00000000   0.878E+00       0.002       10.359   0.100E-07
     TRS4 it   2 1.00000000   0.610E+00       0.001       32.256   0.100E-07
     TRS4 it   3 1.00000000   0.411E+00       0.001       32.256   0.100E-07
     TRS4 it   4 1.00000000   0.207E+00       0.001       32.256   0.100E-07
     TRS4 it   5 1.00000000   0.643E-01       0.001       32.256   0.100E-07
     TRS4 it   6 1.00000000   0.746E-02       0.001       32.256   0.100E-07
     TRS4 it   7 1.00000000   0.128E-03       0.001       32.256   0.100E-07
     TRS4 it   8 1.00000000   0.530E-07       0.001       32.256   0.100E-07
     Final TRS4 iteration    8 1.00000000   0.530E-07
     Chemical potential (mu):       0.01008
 
 PAO| energy:  -7.7641041522390886      penalty:   1.2079010991109773E-005
 PAO|LS| Need extra step
 PAO|LS| adapt:  T T F
 PAO|LS| adapt: scan_steps:    0.0000000000000000       0.94834037931676585        0.0000000000000000     
 PAO|LS| adapt: energies:   -7.7640938916347206       -7.7641041522390886        0.0000000000000000     
 PAO| ======================= Iteration:        32 =============================

     Lanczos converged:  T threshold:   0.100E-02
     Est. extremal eigenvalues:    0.277E+01   0.183E+00
     Est. condition number :    0.152E+02

 Order=           3
     NS sqrt iter    1 1.00000000   0.704E+00       0.001       61.724
     NS sqrt iter    2 1.00000000   0.325E+00       0.001      106.179
     NS sqrt iter    3 1.00000000   0.733E-01       0.001      109.125
     NS sqrt iter    4 1.00000000   0.174E-02       0.001      107.610
     NS sqrt iter    5 1.00000000   0.495E-07       0.001       68.809
     Symmetrizing Results
     Final NS sqrt iter    5 1.00000000   0.367E-09

     Est. extremal eigenvalues     -0.92615     1.67352  converged:  T
     TRS4 it   1 1.00000000   0.879E+00       0.000       16.128   0.100E-07
     TRS4 it   2 1.00000000   0.610E+00       0.001       32.256   0.100E-07
     TRS4 it   3 1.00000000   0.411E+00       0.001       32.256   0.100E-07
     TRS4 it   4 1.00000000   0.207E+00       0.001       32.256   0.100E-07
     TRS4 it   5 1.00000000   0.640E-01       0.001       32.256   0.100E-07
     TRS4 it   6 1.00000000   0.740E-02       0.001       32.256   0.100E-07
     TRS4 it   7 1.00000000   0.125E-03       0.001       32.256   0.100E-07
     TRS4 it   8 1.00000000   0.508E-07       0.001       32.256   0.100E-07
     Final TRS4 iteration    8 1.00000000   0.508E-07
     Chemical potential (mu):       0.01050
 
 PAO| energy:  -7.7640950121145123      penalty:   1.0788974355609732E-005
 PAO|LS| Need extra step
 PAO|LS| adapt:  T T T
 PAO|LS| adapt: scan_steps:    0.0000000000000000       0.94834037931676585        1.8966807586335317     
 PAO|LS| adapt: energies:   -7.7640938916347206       -7.7641041522390886       -7.7640950121145123     
[...]
     NS sqrt iter    2 1.00000000   0.286E+00       0.003       39.828
     NS sqrt iter    3 1.00000000   0.501E-01       0.003       33.942
     NS sqrt iter    4 1.00000000   0.524E-03       0.006       18.117
     NS sqrt iter    5 1.00000000   0.614E-09       0.005        7.296
     Symmetrizing Results
     Final NS sqrt iter    5 1.00000000   0.424E-10

     Est. extremal eigenvalues     -0.92574     1.49048  converged:  T
     TRS4 it   1 1.00000000   0.838E+00       0.001       15.214   0.100E-07
     TRS4 it   2 1.00000000   0.597E+00       0.001       26.038   0.100E-07
     TRS4 it   3 1.00000000   0.427E+00       0.001       27.615   0.100E-07
     TRS4 it   4 1.00000000   0.258E+00       0.001       22.682   0.100E-07
     TRS4 it   5 1.00000000   0.116E+00       0.002       21.076   0.100E-07
     TRS4 it   6 1.00000000   0.289E-01       0.001       24.238   0.100E-07
     TRS4 it   7 1.00000000   0.245E-02       0.001       25.442   0.100E-07
     TRS4 it   8 1.00000000   0.228E-04       0.001       23.667   0.100E-07
     TRS4 it   9 1.00000000   0.225E-08       0.001       28.286   0.100E-07
     Final TRS4 iteration    9 1.00000000   0.225E-08
     Chemical potential (mu):      -0.06910
 
 PAO| energy:  -7.7627385788548384      penalty:   1.1570883178780776E-011
 PAO|CG| warming up with steepest descent
 PAO|CG| beta:    0.0000000000000000     
 PAO| norm of gradient:   6.1016292870363032E-006
 PAO| energy improvement:  -1.1024070545317954E-011
 PAO| step    861                   -7.762738579  0.381E-06  0.257E+00     0.138
 PAO| converged after          861  steps :-)
 PAO| Recalculating energy after mixing.

     Lanczos converged:  T threshold:   0.100E-02
     Est. extremal eigenvalues:    0.262E+01   0.222E+00
     Est. condition number :    0.118E+02

 Order=           3
     NS sqrt iter    1 1.00000000   0.661E+00       0.002       41.527
     NS sqrt iter    2 1.00000000   0.286E+00       0.001       96.055
     NS sqrt iter    3 1.00000000   0.501E-01       0.001       92.450
     NS sqrt iter    4 1.00000000   0.524E-03       0.001       97.529
     NS sqrt iter    5 1.00000000   0.614E-09       0.001       36.864
     Symmetrizing Results
     Final NS sqrt iter    5 1.00000000   0.424E-10

     Est. extremal eigenvalues     -0.92574     1.49048  converged:  T
     TRS4 it   1 1.00000000   0.838E+00       0.002        7.617   0.100E-07
     TRS4 it   2 1.00000000   0.597E+00       0.001       32.256   0.100E-07
     TRS4 it   3 1.00000000   0.427E+00       0.001       32.256   0.100E-07
     TRS4 it   4 1.00000000   0.258E+00       0.001       32.256   0.100E-07
     TRS4 it   5 1.00000000   0.116E+00       0.001       32.256   0.100E-07
     TRS4 it   6 1.00000000   0.289E-01       0.001       32.256   0.100E-07
     TRS4 it   7 1.00000000   0.245E-02       0.001       32.256   0.100E-07
     TRS4 it   8 1.00000000   0.228E-04       0.001       32.256   0.100E-07
     TRS4 it   9 1.00000000   0.225E-08       0.001       32.256   0.100E-07
     Final TRS4 iteration    9 1.00000000   0.225E-08
     Chemical potential (mu):      -0.06910
 
 PAO| energy:  -7.7627385788520868      penalty:   1.1690115832019673E-011
 PAO| Writing restart file.
     Est. extremal eigenvalues     -0.92574     1.49048  converged:  T
     TRS4 it   1 1.00000000   0.838E+00       0.000       16.128   0.100E-07
     TRS4 it   2 1.00000000   0.597E+00       0.001       32.256   0.100E-07
     TRS4 it   3 1.00000000   0.427E+00       0.001       32.256   0.100E-07
     TRS4 it   4 1.00000000   0.258E+00       0.001       32.256   0.100E-07
     TRS4 it   5 1.00000000   0.116E+00       0.001       32.256   0.100E-07
     TRS4 it   6 1.00000000   0.289E-01       0.001       32.256   0.100E-07
     TRS4 it   7 1.00000000   0.245E-02       0.001       32.256   0.100E-07
     TRS4 it   8 1.00000000   0.228E-04       0.001       32.256   0.100E-07
     TRS4 it   9 1.00000000   0.225E-08       0.001       32.256   0.100E-07
     Final TRS4 iteration    9 1.00000000   0.225E-08
     Chemical potential (mu):      -0.06910

 SCF     1       -34.448528880       -34.448528880    3.590177

*********************************************************
 Using MIXING_FRACTION=0.450 to mix KS matrix:  iscf=  2
 KS_nw=0.450*KS + 0.550*KS_old
*********************************************************
     Est. extremal eigenvalues     -0.92574     1.49048  converged:  T
     TRS4 it   1 1.00000000   0.838E+00       0.001       16.128   0.100E-07
     TRS4 it   2 1.00000000   0.597E+00       0.001       32.256   0.100E-07
     TRS4 it   3 1.00000000   0.427E+00       0.001       32.256   0.100E-07
     TRS4 it   4 1.00000000   0.258E+00       0.001       32.256   0.100E-07
     TRS4 it   5 1.00000000   0.116E+00       0.001       32.256   0.100E-07
     TRS4 it   6 1.00000000   0.289E-01       0.001       32.256   0.100E-07
     TRS4 it   7 1.00000000   0.245E-02       0.001       32.256   0.100E-07
     TRS4 it   8 1.00000000   0.228E-04       0.001       32.256   0.100E-07
     TRS4 it   9 1.00000000   0.225E-08       0.001       32.256   0.100E-07
     Final TRS4 iteration    9 1.00000000   0.225E-08
     Chemical potential (mu):      -0.06910

 SCF     2       -34.448528880        -0.000000000    3.751213


 SCF run converged in     2 steps.

 PAO| Storing density matrix for ASPC guess in slot:           1

 ENERGY| Total FORCE_EVAL ( QS ) energy [a.u.]:              -34.448528879754221

 -------------------------------------------------------------------------------
 -                                                                             -
 -                                DBCSR STATISTICS                             -
 -                                                                             -
 -------------------------------------------------------------------------------
 COUNTER                                    TOTAL       BLAS       SMM       ACC
 flops     5 x     5 x     4                32000       0.0%    100.0%      0.0%
 flops    13 x     5 x     4                33280       0.0%    100.0%      0.0%
 flops     5 x    13 x     4                33280       0.0%    100.0%      0.0%
 flops    13 x    13 x     4                64896       0.0%    100.0%      0.0%
 flops     4 x     4 x     5              6743040       0.0%    100.0%      0.0%
 flops     5 x     4 x     5              8211200       0.0%    100.0%      0.0%
 flops     4 x     4 x    13              8765952       0.0%    100.0%      0.0%
 flops    13 x     4 x     5             10674560       0.0%    100.0%      0.0%
 flops     5 x     4 x    13             10674560       0.0%    100.0%      0.0%
 flops     5 x     4 x     4             12670400       0.0%    100.0%      0.0%
 flops    13 x     4 x    13             13876928       0.0%    100.0%      0.0%
 flops    13 x     4 x     4             16564288       0.0%    100.0%      0.0%
 flops     4 x     4 x     4            854136192       0.0%    100.0%      0.0%
 flops inhomo. stacks                           0       0.0%      0.0%      0.0%
 flops total                       942.480576E+06       0.0%    100.0%      0.0%
 flops max/rank                    942.480576E+06       0.0%    100.0%      0.0%
 matmuls inhomo. stacks                         0       0.0%      0.0%      0.0%
 matmuls total                            6947875       0.0%    100.0%      0.0%
 number of processed stacks                 55326       0.0%    100.0%      0.0%
 average stack size                                     0.0     125.6       0.0
 marketing flops                     1.537613E+09
 -------------------------------------------------------------------------------
 # multiplications                          46342
 max memory usage/rank             506.601472E+06
 # max total images/rank                        1
 # max 3D layers                                1
 # MPI messages exchanged                       0
 -------------------------------------------------------------------------------

 -------------------------------------------------------------------------------
 -                                                                             -
 -                                DBM STATISTICS                               -
 -                                                                             -
 -------------------------------------------------------------------------------
    M  x    N  x    K                                          COUNT     PERCENT
 -------------------------------------------------------------------------------

 -------------------------------------------------------------------------------
 -                                                                             -
 -                                GRID STATISTICS                              -
 -                                                                             -
 -------------------------------------------------------------------------------
 LP    KERNEL             BACKEND                              COUNT     PERCENT
 2     collocate ortho    REF                                  60640      30.73%
 2     integrate ortho    REF                                  60640      30.73%
 3     collocate ortho    REF                                  31232      15.83%
 3     integrate ortho    REF                                  31232      15.83%
 4     collocate ortho    REF                                   6800       3.45%
 4     integrate ortho    REF                                   6800       3.45%
 0     collocate general  REF                                      6       0.00%
 -------------------------------------------------------------------------------

 MEMORY| Estimated peak process memory [MiB]                                 484

 -------------------------------------------------------------------------------
 -                                                                             -
 -                           R E F E R E N C E S                               -
 -                                                                             -
 -------------------------------------------------------------------------------
 
 CP2K version 2023.1 (Development Version), the CP2K developers group (2023).
 CP2K is freely available from https://www.cp2k.org/ .

 Kuehne,Thomas D.; Iannuzzi,Marcella; Del Ben,Mauro;
 Rybkin,Vladimir V.; Seewald,Patrick; Stein,Frederick; Laino,Teodoro;
 Khaliullin,Rustam Z.; Schuett,Ole; Schiffmann,Florian; Golze,Dorothea;
 Wilhelm,Jan; Chulkov,Sergey; Bani-Hashemian,Mohammad Hossein;
 Weber,Valery; Borstnik,Urban; Taillefumier,Mathieu;
 Jakobovits,Alice Shoshana; Lazzaro,Alfio; Pabst,Hans; Mueller,Tiziano;
 Schade,Robert; Guidon,Manuel; Andermatt,Samuel; Holmberg,Nico;
 Schenter,Gregory K.; Hehn,Anna; Bussy,Augustin; Belleflamme,Fabian;
 Tabacchi,Gloria; Gloess,Andreas; Lass,Michael; Bethune,Iain;
 Mundy,Christopher J.; Plessl,Christian; Watkins,Matt;
 VandeVondele,Joost; Krack,Matthias; Hutter,Juerg. 
 The Journal of Chemical Physics, 152 (19), (2020). 
 CP2K: An electronic structure and molecular dynamics software package -
 Quickstep: Efficient and accurate electronic structure calculations.
 https://doi.org/10.1063/5.0007045

 Schuett, O; VandeVondele, J. 
 Journal of Chemical Theory and Computation, 14, (2018). 
 Machine Learning Adaptive Basis Sets for Efficient Large Scale
 Density Functional Theory Simulation.
 https://doi.org/10.1021/acs.jctc.8b00378

 Schuett, Ole; Messmer, Peter; Hutter, Juerg; VandeVondele, Joost. 
 Electronic Structure Calculations on Graphics Processing Units, John
 Wiley & Sons, Ltd, 173-190 (2016). 
 GPU-Accelerated Sparse Matrix-Matrix Multiplication for
 Linear Scaling Density Functional Theory.
 https://doi.org/10.1002/9781118670712.ch8

 Heinecke, A; Henry, G; Hutchinson, M; Pabst, H. 
 Proceedings of Intl. Supercomputing Conference, 981-991 (2016). 
 LIBXSMM: Accelerating Small Matrix Multiplications
 by Runtime Code Generation.
 https://doi.org/10.1109/SC.2016.83

 Borstnik, U; VandeVondele, J; Weber, V; Hutter, J. 
 PARALLEL COMPUTING, 40 (5-6), 47-58 (2014). 
 Sparse matrix multiplication: The distributed block-compressed sparse
 row library.
 https://doi.org/10.1016/j.parco.2014.03.012

 Hutter, J; Iannuzzi, M; Schiffmann, F; VandeVondele, J. 
 WIREs Comput Mol Sci., 4 (1), 15-25 (2014). 
 CP2K: atomistic simulations of condensed matter systems.
 https://doi.org/10.1002/wcms.1159

 VandeVondele, J; Borstnik, U; Hutter, J. 
 JOURNAL OF CHEMICAL THEORY AND COMPUTATION, 8 (10), 3565-3573 (2012). 
 Linear Scaling Self-Consistent Field Calculations with Millions of Atoms
 in the Condensed Phase.
 https://doi.org/10.1021/ct200897x

 VandeVondele, J; Hutter, J. 
 JOURNAL OF CHEMICAL PHYSICS, 127 (11), 114105 (2007). 
 Gaussian basis sets for accurate calculations on molecular systems in
 gas and condensed phases.
 https://doi.org/10.1063/1.2770708

 Krack, M. 
 THEORETICAL CHEMISTRY ACCOUNTS, 114 (1-3), 145-152 (2005). 
 Pseudopotentials for H to Kr optimized for gradient-corrected
 exchange-correlation functionals.
 https://doi.org/10.1007/s00214-005-0655-y

 VandeVondele, J; Krack, M; Mohamed, F; Parrinello, M; Chassaing, T;
 Hutter, J. COMPUTER PHYSICS COMMUNICATIONS, 167 (2), 103-128 (2005). 
 QUICKSTEP: Fast and accurate density functional calculations using a
 mixed Gaussian and plane waves approach.
 https://doi.org/10.1016/j.cpc.2004.12.014

 Frigo, M; Johnson, SG. 
 PROCEEDINGS OF THE IEEE, 93 (2), 216-231 (2005). 
 The design and implementation of FFTW3.
 https://doi.org/10.1109/JPROC.2004.840301

 Niklasson, AMN; Tymczak, CJ; Challacombe, M. 
 JOURNAL OF CHEMICAL PHYSICS, 118 (19), 8611-8620 (2003). 
 Trace resetting density matrix purification in O(N)
 self-consistent-field theory.
 https://doi.org/10.1063/1.1559913

 Hartwigsen, C; Goedecker, S; Hutter, J. 
 PHYSICAL REVIEW B, 58 (7), 3641-3662 (1998). 
 Relativistic separable dual-space Gaussian pseudopotentials from H to Rn.
 https://doi.org/10.1103/PhysRevB.58.3641

 Lippert, G; Hutter, J; Parrinello, M. 
 MOLECULAR PHYSICS, 92 (3), 477-487 (1997). 
 A hybrid Gaussian and plane wave density functional scheme.
 https://doi.org/10.1080/002689797170220

 Perdew, JP; Burke, K; Ernzerhof, M. 
 PHYSICAL REVIEW LETTERS, 77 (18), 3865-3868 (1996). 
 Generalized gradient approximation made simple.
 https://doi.org/10.1103/PhysRevLett.77.3865

 Goedecker, S; Teter, M; Hutter, J. 
 PHYSICAL REVIEW B, 54 (3), 1703-1710 (1996). 
 Separable dual-space Gaussian pseudopotentials.
 https://doi.org/10.1103/PhysRevB.54.1703


 -------------------------------------------------------------------------------
 -                                                                             -
 -                                T I M I N G                                  -
 -                                                                             -
 -------------------------------------------------------------------------------
 SUBROUTINE                       CALLS  ASD         SELF TIME        TOTAL TIME
                                MAXIMUM       AVERAGE  MAXIMUM  AVERAGE  MAXIMUM
 CP2K                                 1  1.0    0.037    0.037   73.031   73.031
 qs_energies                          1  2.0    0.000    0.000   72.328   72.328
 ls_scf                               1  3.0    0.000    0.000   72.145   72.145
 ls_scf_main                          7  4.0    0.002    0.002   50.341   50.341
 ls_scf_dm_to_ks                     15  5.0    0.001    0.001   50.124   50.124
 qs_ks_update_qs_env                 16  6.0    0.000    0.000   41.001   41.001
 rebuild_ks_matrix                   16  7.0    0.000    0.000   41.000   41.000
 qs_ks_build_kohn_sham_matrix        16  8.0    0.005    0.005   41.000   41.000
 qs_vxc_create                       16  9.0    0.001    0.001   25.405   25.405
 xc_vxc_pw_create                    16 10.0    0.535    0.535   25.404   25.404
 pw_transfer                        305 11.1    0.038    0.038   20.225   20.225
 fft_wrap_pw1pw2                    273 12.3    0.006    0.006   19.760   19.760
 fft_wrap_pw1pw2_200                177 13.7    2.052    2.052   19.146   19.146
 pao_update                           7  4.0    0.019    0.019   18.046   18.046
 pao_calc_energy                    867  5.0    0.007    0.007   16.360   16.360
 xc_pw_derive                        96 12.0    0.002    0.002   14.337   14.337
 xc_rho_set_and_dset_create          16 11.0    0.600    0.600   14.236   14.236
 dbcsr_multiply_generic           46342  8.4    0.783    0.783   12.853   12.853
 qs_rho_update_rho_low               16  6.0    0.000    0.000   12.742   12.742
 calculate_rho_elec                  16  7.0    0.069    0.069   12.742   12.742
 sum_up_and_integrate                16  9.0    0.343    0.343   12.555   12.555
 integrate_v_rspace                  16 10.0    0.018    0.018   12.212   12.212
 xc_pw_divergence                    16 11.0    0.001    0.001   10.276   10.276
 grid_integrate_task_list            16 11.0    9.641    9.641    9.641    9.641
 grid_collocate_task_list            16  8.0    8.975    8.975    8.975    8.975
 fft3d_s                            274 14.2    8.900    8.900    8.920    8.920
 pao_dm_trs4                        867  6.0    0.023    0.023    8.407    8.407
 density_matrix_trs4                882  7.0    0.271    0.271    8.081    8.081
 ls_scf_init_matrix_S               874  7.0    0.007    0.007    7.909    7.909
 pao_rebuild_S                      867  6.0    0.003    0.003    7.813    7.813
 matrix_sqrt_Newton_Schulz          874  8.0    0.226    0.226    7.094    7.094
 xc_functional_eval                  16 12.0    0.000    0.000    6.263    6.263
 pbe_lda_eval                        16 13.0    6.263    6.263    6.263    6.263
 make_m2s                         92684  9.4    0.318    0.318    4.830    4.830
 multiply_cannon                  46342  9.4    1.931    1.931    4.777    4.777
 pw_gather_s                        129 13.8    4.462    4.462    4.462    4.462
 make_images                      92684 10.4    1.153    1.153    4.245    4.245
 pw_scatter_s                       144 14.7    4.234    4.234    4.234    4.234
 density_rs2pw                       16  8.0    0.001    0.001    3.698    3.698
 pao_guess_initial_P                  1  4.0    0.000    0.000    3.639    3.639
 pao_read_preopt_dm                   1  5.0    0.000    0.000    3.639    3.639
 pw_derive                           96 13.0    2.761    2.761    2.761    2.761
 arnoldi_extremal                  1756  8.5    0.007    0.007    2.677    2.677
 arnoldi_normal_ev                 1756  9.5    0.022    0.022    2.670    2.670
 potential_pw2rs                     16 11.0    0.007    0.007    2.553    2.553
 build_subspace                    1756 10.5    0.103    0.103    2.090    2.090
 dbcsr_matrix_vector_mult         42129 11.5    0.214    0.214    1.925    1.925
 pw_copy                            192 11.8    1.751    1.751    1.751    1.751
 pao_calc_AB                       1138  5.8    0.002    0.002    1.691    1.691
 pao_calc_AB_equi                  1138  6.8    0.057    0.057    1.689    1.689
 pao_calc_grad_lnv_wrt_AB           270  7.0    0.012    0.012    1.497    1.497
 -------------------------------------------------------------------------------

 The number of warnings for this run is : 0
 
 -------------------------------------------------------------------------------
  **** **** ******  **  PROGRAM ENDED AT                 2023-02-01 10:49:08.757
 ***** ** ***  *** **   PROGRAM RAN ON                                    moritz
 **    ****   ******    PROGRAM RAN BY                                       ole
 ***** **    ** ** **   PROGRAM PROCESS ID                                148743
  **** **  *******  **  PROGRAM STOPPED IN /home/ole/git/pao_ml_equivar/2H2O_MD/
                                           frame_0900
