 DBCSR| CPU Multiplication driver                                           XSMM (U)
 DBCSR| Multrec recursion limit                                              512 (U)
 DBCSR| Multiplication stack size                                           1000 (D)
 DBCSR| Maximum elements for images                                    UNLIMITED (U)
 DBCSR| Multiplicative factor virtual images                                   1 (U)
 DBCSR| Use multiplication densification                                       T (D)
 DBCSR| Multiplication size stacks                                             3 (U)
 DBCSR| Use memory pool for CPU allocation                                     F (U)
 DBCSR| Number of 3D layers                                               SINGLE (U)
 DBCSR| Use MPI memory allocation                                              F (U)
 DBCSR| Use RMA algorithm                                                      F (U)
 DBCSR| Use Communication thread                                               T (U)
 DBCSR| Communication thread load                                             87 (D)
 DBCSR| MPI: My process id                                                     0
 DBCSR| MPI: Number of processes                                              32
 DBCSR| OMP: Current number of threads                                         1
 DBCSR| OMP: Max number of threads                                             1
 DBCSR| Split modifier for TAS multiplication algorithm                  1.0E+00 (U)


  **** **** ******  **  PROGRAM STARTED AT               2024-09-23 17:41:50.410
 ***** ** ***  *** **   PROGRAM STARTED ON                                moritz
 **    ****   ******    PROGRAM STARTED BY                                   ole
 ***** **    ** ** **   PROGRAM PROCESS ID                                158122
  **** **  *******  **  PROGRAM STARTED IN /home/ole/git/pao_ml_equivar/64H2O_MD
                                           /Frame3500

 CP2K| version string:                 CP2K version 2024.3 (Development Version)
 CP2K| source code revision number:                                  git:3f890bb
 CP2K| cp2kflags: omp libint fftw3 libxc libgrpp pexsi elpa parallel scalapack c
 CP2K|            osma quip deepmd xsmm plumed2 spglib libdftd4 sirius libvori l
 CP2K|            libbqb libvdwxc hdf5
 CP2K| is freely available from                            https://www.cp2k.org/
 CP2K| Program compiled at                          Mo 23 Sep 2024 17:17:04 CEST
 CP2K| Program compiled on                                                moritz
 CP2K| Program compiled for                                                local
 CP2K| Data directory path                               /home/ole/git/cp2k/data
 CP2K| Input file name                                             64H2O_ref.inp

 GLOBAL| Force Environment number                                              1
 GLOBAL| Basis set file name                                        BASIS_MOLOPT
 GLOBAL| Potential file name                                      GTH_POTENTIALS
 GLOBAL| MM Potential file name                                     MM_POTENTIAL
 GLOBAL| Coordinate file name                                         coords.xyz
 GLOBAL| Method name                                                        CP2K
 GLOBAL| Project name                                                  64H2O_ref
 GLOBAL| Run type                                                         ENERGY
 GLOBAL| FFT library                                                       FFTW3
 GLOBAL| Diagonalization library                                            ELPA
 GLOBAL| DGEMM library                                                      BLAS
 GLOBAL| Minimum number of eigenvectors for ELPA usage                        16
 GLOBAL| Orthonormality check for eigenvectors                          DISABLED
 GLOBAL| Matrix multiplication library                                     COSMA
 GLOBAL| All-to-all communication in single precision                          F
 GLOBAL| FFTs using library dependent lengths                                  F
 GLOBAL| Grid backend                                                       AUTO
 GLOBAL| Global print level                                                  LOW
 GLOBAL| MPI I/O enabled                                                       T
 GLOBAL| Total number of message passing processes                            32
 GLOBAL| Number of threads for this process                                    1
 GLOBAL| This output is from process                                           0
 GLOBAL| Stack size for threads created by OpenMP (OMP_STACKSIZE)        default
 GLOBAL| CPU model name           AMD Ryzen Threadripper 3970X 32-Core Processor
 GLOBAL| CPUID                                                              1002

 MEMORY| system memory details [Kb]
 MEMORY|                        rank 0           min           max       average
 MEMORY| MemTotal            131752136     131752136     131752136     131752136
 MEMORY| MemFree             118191836     118191836     118191836     118191836
 MEMORY| Buffers                260156        260156        260156        260156
 MEMORY| Cached                7304820       7304820       7304824       7304820
 MEMORY| Slab                   713752        713752        713752        713752
 MEMORY| SReclaimable           276668        276668        276668        276668
 MEMORY| MemLikelyFree       126033480     126033480     126033484     126033480


 GENERATE|  Preliminary Number of Bonds generated:                             0
 GENERATE|  Achieved consistency in connectivity generation.

 *******************************************************************************
 *******************************************************************************
 **                                                                           **
 **     #####                         ##              ##                      **
 **    ##   ##            ##          ##              ##                      **
 **   ##     ##                       ##            ######                    **
 **   ##     ##  ##   ##  ##   #####  ##  ##   ####   ##    #####    #####    **
 **   ##     ##  ##   ##  ##  ##      ## ##   ##      ##   ##   ##  ##   ##   **
 **   ##  ## ##  ##   ##  ##  ##      ####     ###    ##   ######   ######    **
 **    ##  ###   ##   ##  ##  ##      ## ##      ##   ##   ##       ##        **
 **     #######   #####   ##   #####  ##  ##  ####    ##    #####   ##        **
 **           ##                                                    ##        **
 **                                                                           **
 **                                                ... make the atoms dance   **
 **                                                                           **
 **            Copyright (C) by CP2K developers group (2000-2024)             **
 **                      J. Chem. Phys. 152, 194103 (2020)                    **
 **                                                                           **
 *******************************************************************************


 TOTAL NUMBERS AND MAXIMUM NUMBERS

  Total number of            - Atomic kinds:                                   2
                             - Atoms:                                        192
                             - Shell sets:                                   192
                             - Shells:                                       704
                             - Primitive Cartesian functions:               1344
                             - Cartesian basis functions:                   1536
                             - Spherical basis functions:                   1472

  Maximum angular momentum of- Orbital basis functions:                        2
                             - Local part of the GTH pseudopotential:          2
                             - Non-local part of the GTH pseudopotential:      0

 ------------------------------ Linear scaling SCF -----------------------------
 eps_scf:                                                              0.100E-07
 eps_filter:                                                           0.100E-11
 mixing_fraction:                                                      0.450E+00
 max_scf:                                                                     25
 fixed chemical potential (mu)                                                 F
 has unit metric:                                                              F
 Computing inv(S):                                                             T
 Computing sqrt(S):                                                            T
 Computing S preconditioner                                                    F
 S sqrt method:                                                     NEWTONSCHULZ
 S sqrt order:                                                                 3
 Extrapolation order:                                                          1
 S preconditioner type                                                      NONE
 Polarized Atomic Orbitals (PAO)                                               F
 Purification method                                   Trace resetting 4th order
 Cluster type                                                             ATOMIC
 Computing Chebyshev                                                       FALSE
 Using PAO                                                                     F
 -------------------------------------------------------------------------------


     Lanczos converged:  F threshold:   0.100E-02
     Est. extremal eigenvalues:    0.876E+01   0.542E-02
     Est. condition number :    0.162E+04

 Order=           3
     NS sqrt iter    1 1.00000000   0.227E+01       0.066     6115.527
     NS sqrt iter    2 1.00000000   0.118E+01       0.099     8041.135
     NS sqrt iter    3 1.00000000   0.582E+00       0.099     8090.361
     NS sqrt iter    4 1.00000000   0.334E+00       0.098     8117.853
     NS sqrt iter    5 1.00000000   0.226E+00       0.098     8123.548
     NS sqrt iter    6 1.00000000   0.107E+00       0.098     8123.571
     NS sqrt iter    7 1.00000000   0.137E-01       0.098     8096.556
     NS sqrt iter    8 1.00000000   0.803E-04       0.099     8046.461
     NS sqrt iter    9 1.00000000   0.918E-10       0.070     6103.033
     Symmetrizing Results
     Final NS sqrt iter    9 1.00000000   0.641E-11



 Guess for atomic kind: O

 Electronic structure
    Total number of core electrons                                          2.00
    Total number of valence electrons                                       6.00
    Total number of electrons                                               8.00
    Multiplicity                                                   not specified
    S   [  2.00] 2.00
    P      4.00


 *******************************************************************************
                  Iteration          Convergence                     Energy [au]
 *******************************************************************************
                          1        0.708315                     -15.576645311500
                          2        0.608879                     -15.587933561584
                          3        0.102828E-01                 -15.656849565404
                          4        0.113889E-02                 -15.656866888140
                          5        0.434197E-03                 -15.656867072159
                          6        0.263771E-03                 -15.656867091904
                          7        0.478536E-06                 -15.656867103452

 Energy components [Hartree]           Total Energy ::          -15.656867103452
                                        Band Energy ::           -3.000198112285
                                     Kinetic Energy ::           11.759971203220
                                   Potential Energy ::          -27.416838306672
                                      Virial (-V/T) ::            2.331369510426
                                        Core Energy ::          -26.140716385623
                                          XC Energy ::           -3.154051012914
                                     Coulomb Energy ::           13.637900295084
                       Total Pseudopotential Energy ::          -37.935781716540
                       Local Pseudopotential Energy ::          -39.218907440693
                    Nonlocal Pseudopotential Energy ::            1.283125724153
                                        Confinement ::            0.350941276976

 Orbital energies  State     L     Occupation   Energy[a.u.]          Energy[eV]

                       1     0          2.000      -0.864471          -23.523463

                       1     1          4.000      -0.317814           -8.648154


 Total Electron Density at R=0:                                         0.000068

 Guess for atomic kind: H

 Electronic structure
    Total number of core electrons                                          0.00
    Total number of valence electrons                                       1.00
    Total number of electrons                                               1.00
    Multiplicity                                                   not specified
    S      1.00


 *******************************************************************************
                  Iteration          Convergence                     Energy [au]
 *******************************************************************************
                          1        0.437545E-02                  -0.424159432110
                          2        0.531356E-03                  -0.424178438213
                          3        0.259176E-06                  -0.424178722480

 Energy components [Hartree]           Total Energy ::           -0.424178722480
                                        Band Energy ::           -0.199015229016
                                     Kinetic Energy ::            0.464007633961
                                   Potential Energy ::           -0.888186356441
                                      Virial (-V/T) ::            1.914163240935
                                        Core Energy ::           -0.479160803564
                                          XC Energy ::           -0.244352904054
                                     Coulomb Energy ::            0.299334985138
                       Total Pseudopotential Energy ::           -0.962295316385
                       Local Pseudopotential Energy ::           -0.962295316385
                    Nonlocal Pseudopotential Energy ::            0.000000000000
                                        Confinement ::            0.191268788606

 Orbital energies  State     L     Occupation   Energy[a.u.]          Energy[eV]

                       1     0          1.000      -0.199015           -5.415480


 Total Electron Density at R=0:                                         0.242907
 Re-scaling the density matrix to get the right number of electrons
                  # Electrons              Trace(P)               Scaling factor
                          512               512.001                        1.000
 Energy with the initial guess:     -1095.594258118

     Est. extremal eigenvalues     -0.94229     5.29493  converged:  T
     TRS4 it   1 1.00000000   0.565E+02       0.018     5457.633   0.100E-11
     TRS4 it   2 1.00000000   0.544E+02       0.018     5572.687   0.100E-11
     TRS4 it   3 1.00000000   0.342E+02       0.036     5576.436   0.100E-11
     TRS4 it   4 1.00000000   0.176E+02       0.036     5505.618   0.100E-11
     TRS4 it   5 1.00000000   0.106E+02       0.035     5670.733   0.100E-11
     TRS4 it   6 1.00000000   0.483E+01       0.036     5645.324   0.100E-11
     TRS4 it   7 1.00000000   0.143E+01       0.036     5539.663   0.100E-11
     TRS4 it   8 1.00000000   0.214E+00       0.035     5664.686   0.100E-11
     TRS4 it   9 1.00000000   0.894E-02       0.036     5565.049   0.100E-11
     TRS4 it  10 1.00000000   0.237E-04       0.036     5542.736   0.100E-11
     TRS4 it  11 1.00000000   0.590E-10       0.036     5612.340   0.100E-11
     Final TRS4 iteration   11 1.00000000   0.590E-10
     Chemical potential (mu):      -0.10715

 SCF     1     -1097.831349363     -1097.831349363    2.054237

*********************************************************
 Using MIXING_FRACTION=0.450 to mix KS matrix:  iscf=  2
 KS_nw=0.450*KS + 0.550*KS_old
*********************************************************
     Est. extremal eigenvalues     -0.82627     5.38433  converged:  F
     TRS4 it   1 1.00000000   0.557E+02       0.018     5520.003   0.100E-11
     TRS4 it   2 1.00000000   0.545E+02       0.019     5355.718   0.100E-11
     TRS4 it   3 1.00000000   0.355E+02       0.036     5621.969   0.100E-11
     TRS4 it   4 1.00000000   0.183E+02       0.036     5598.246   0.100E-11
     TRS4 it   5 1.00000000   0.118E+02       0.036     5650.650   0.100E-11
     TRS4 it   6 1.00000000   0.616E+01       0.036     5541.727   0.100E-11
     TRS4 it   7 1.00000000   0.246E+01       0.036     5595.640   0.100E-11
     TRS4 it   8 1.00000000   0.677E+00       0.036     5646.377   0.100E-11
     TRS4 it   9 1.00000000   0.104E+00       0.036     5537.209   0.100E-11
     TRS4 it  10 1.00000000   0.627E-02       0.036     5581.258   0.100E-11
     TRS4 it  11 1.00000000   0.289E-04       0.035     5713.924   0.100E-11
     TRS4 it  12 1.00000000   0.207E-08       0.036     5573.335   0.100E-11
     TRS4 it  13 1.00000000   0.231E-13       0.036     5564.705   0.100E-11
     Final TRS4 iteration   13 1.00000000   0.231E-13
     Chemical potential (mu):      -0.01414

 SCF     2     -1102.923774808        -5.092425446    2.131482

*********************************************************
 Using MIXING_FRACTION=0.450 to mix KS matrix:  iscf=  3
 KS_nw=0.450*KS + 0.550*KS_old
*********************************************************
     Est. extremal eigenvalues     -0.83930     5.37377  converged:  T
     TRS4 it   1 1.00000000   0.558E+02       0.018     5521.592   0.100E-11
     TRS4 it   2 1.00000000   0.545E+02       0.019     5371.942   0.100E-11
     TRS4 it   3 1.00000000   0.353E+02       0.037     5469.917   0.100E-11
     TRS4 it   4 1.00000000   0.182E+02       0.036     5533.977   0.100E-11
     TRS4 it   5 1.00000000   0.116E+02       0.036     5646.607   0.100E-11
     TRS4 it   6 1.00000000   0.599E+01       0.036     5578.435   0.100E-11
     TRS4 it   7 1.00000000   0.232E+01       0.036     5505.234   0.100E-11
     TRS4 it   8 1.00000000   0.601E+00       0.036     5610.698   0.100E-11
     TRS4 it   9 1.00000000   0.818E-01       0.036     5530.030   0.100E-11
     TRS4 it  10 1.00000000   0.372E-02       0.036     5606.901   0.100E-11
     TRS4 it  11 1.00000000   0.980E-05       0.036     5564.114   0.100E-11
     TRS4 it  12 1.00000000   0.246E-09       0.036     5649.474   0.100E-11
     Final TRS4 iteration   12 1.00000000   0.246E-09
     Chemical potential (mu):      -0.02273

 SCF     3     -1103.088974624        -0.165199815    2.076551

*********************************************************
 Using MIXING_FRACTION=0.450 to mix KS matrix:  iscf=  4
 KS_nw=0.450*KS + 0.550*KS_old
*********************************************************
     Est. extremal eigenvalues     -0.83182     5.37872  converged:  T
     TRS4 it   1 1.00000000   0.558E+02       0.018     5488.847   0.100E-11
     TRS4 it   2 1.00000000   0.545E+02       0.019     5343.978   0.100E-11
     TRS4 it   3 1.00000000   0.354E+02       0.036     5499.963   0.100E-11
     TRS4 it   4 1.00000000   0.182E+02       0.036     5523.534   0.100E-11
     TRS4 it   5 1.00000000   0.117E+02       0.035     5670.451   0.100E-11
     TRS4 it   6 1.00000000   0.604E+01       0.036     5617.035   0.100E-11
     TRS4 it   7 1.00000000   0.236E+01       0.035     5677.550   0.100E-11
     TRS4 it   8 1.00000000   0.630E+00       0.036     5520.192   0.100E-11
     TRS4 it   9 1.00000000   0.921E-01       0.036     5579.795   0.100E-11
     TRS4 it  10 1.00000000   0.517E-02       0.036     5553.935   0.100E-11
     TRS4 it  11 1.00000000   0.280E-04       0.036     5554.207   0.100E-11
     TRS4 it  12 1.00000000   0.257E-08       0.036     5590.824   0.100E-11
     TRS4 it  13 1.00000000   0.124E-13       0.036     5625.148   0.100E-11
     Final TRS4 iteration   13 1.00000000   0.124E-13
     Chemical potential (mu):      -0.01510

 SCF     4     -1103.097491401        -0.008516777    2.113192

*********************************************************
 Using MIXING_FRACTION=0.450 to mix KS matrix:  iscf=  5
 KS_nw=0.450*KS + 0.550*KS_old
*********************************************************
     Est. extremal eigenvalues     -0.83159     5.37934  converged:  T
     TRS4 it   1 1.00000000   0.558E+02       0.019     5416.175   0.100E-11
     TRS4 it   2 1.00000000   0.545E+02       0.018     5428.631   0.100E-11
     TRS4 it   3 1.00000000   0.353E+02       0.037     5477.141   0.100E-11
     TRS4 it   4 1.00000000   0.183E+02       0.036     5566.152   0.100E-11
     TRS4 it   5 1.00000000   0.117E+02       0.035     5656.012   0.100E-11
     TRS4 it   6 1.00000000   0.605E+01       0.036     5649.379   0.100E-11
     TRS4 it   7 1.00000000   0.237E+01       0.036     5619.001   0.100E-11
     TRS4 it   8 1.00000000   0.633E+00       0.035     5796.456   0.100E-11
     TRS4 it   9 1.00000000   0.930E-01       0.036     5553.553   0.100E-11
     TRS4 it  10 1.00000000   0.529E-02       0.036     5618.860   0.100E-11
     TRS4 it  11 1.00000000   0.298E-04       0.036     5620.366   0.100E-11
     TRS4 it  12 1.00000000   0.293E-08       0.036     5581.051   0.100E-11
     TRS4 it  13 1.00000000   0.338E-13       0.036     5558.714   0.100E-11
     Final TRS4 iteration   13 1.00000000   0.338E-13
     Chemical potential (mu):      -0.01424

 SCF     5     -1103.098170956        -0.000679556    2.109385

*********************************************************
 Using MIXING_FRACTION=0.450 to mix KS matrix:  iscf=  6
 KS_nw=0.450*KS + 0.550*KS_old
*********************************************************
     Est. extremal eigenvalues     -0.83054     5.38006  converged:  T
     TRS4 it   1 1.00000000   0.558E+02       0.019     5335.202   0.100E-11
     TRS4 it   2 1.00000000   0.545E+02       0.018     5496.720   0.100E-11
     TRS4 it   3 1.00000000   0.354E+02       0.036     5556.334   0.100E-11
     TRS4 it   4 1.00000000   0.183E+02       0.036     5564.815   0.100E-11
     TRS4 it   5 1.00000000   0.117E+02       0.036     5548.559   0.100E-11
     TRS4 it   6 1.00000000   0.605E+01       0.035     5665.281   0.100E-11
     TRS4 it   7 1.00000000   0.237E+01       0.036     5642.874   0.100E-11
     TRS4 it   8 1.00000000   0.636E+00       0.036     5543.171   0.100E-11
     TRS4 it   9 1.00000000   0.944E-01       0.035     5674.727   0.100E-11
     TRS4 it  10 1.00000000   0.553E-02       0.036     5541.069   0.100E-11
     TRS4 it  11 1.00000000   0.350E-04       0.036     5600.453   0.100E-11
     TRS4 it  12 1.00000000   0.418E-08       0.036     5578.955   0.100E-11
     TRS4 it  13 1.00000000   0.142E-13       0.035     5661.269   0.100E-11
     Final TRS4 iteration   13 1.00000000   0.142E-13
     Chemical potential (mu):      -0.01294

 SCF     6     -1103.098270631        -0.000099675    2.110767

*********************************************************
 Using MIXING_FRACTION=0.450 to mix KS matrix:  iscf=  7
 KS_nw=0.450*KS + 0.550*KS_old
*********************************************************
     Est. extremal eigenvalues     -0.83020     5.38034  converged:  T
     TRS4 it   1 1.00000000   0.558E+02       0.019     5389.845   0.100E-11
     TRS4 it   2 1.00000000   0.545E+02       0.018     5438.667   0.100E-11
     TRS4 it   3 1.00000000   0.354E+02       0.037     5443.537   0.100E-11
     TRS4 it   4 1.00000000   0.183E+02       0.036     5541.412   0.100E-11
     TRS4 it   5 1.00000000   0.117E+02       0.036     5636.598   0.100E-11
     TRS4 it   6 1.00000000   0.605E+01       0.036     5615.791   0.100E-11
     TRS4 it   7 1.00000000   0.237E+01       0.036     5648.986   0.100E-11
     TRS4 it   8 1.00000000   0.637E+00       0.036     5610.778   0.100E-11
     TRS4 it   9 1.00000000   0.948E-01       0.036     5588.953   0.100E-11
     TRS4 it  10 1.00000000   0.560E-02       0.036     5572.894   0.100E-11
     TRS4 it  11 1.00000000   0.363E-04       0.036     5617.139   0.100E-11
     TRS4 it  12 1.00000000   0.451E-08       0.036     5595.503   0.100E-11
     TRS4 it  13 1.00000000   0.124E-13       0.036     5545.340   0.100E-11
     Final TRS4 iteration   13 1.00000000   0.124E-13
     Chemical potential (mu):      -0.01252

 SCF     7     -1103.098291413        -0.000020782    2.112489

*********************************************************
 Using MIXING_FRACTION=0.450 to mix KS matrix:  iscf=  8
 KS_nw=0.450*KS + 0.550*KS_old
*********************************************************
     Est. extremal eigenvalues     -0.82996     5.38050  converged:  T
     TRS4 it   1 1.00000000   0.558E+02       0.018     5471.042   0.100E-11
     TRS4 it   2 1.00000000   0.545E+02       0.019     5299.389   0.100E-11
     TRS4 it   3 1.00000000   0.354E+02       0.037     5481.996   0.100E-11
     TRS4 it   4 1.00000000   0.183E+02       0.036     5559.489   0.100E-11
     TRS4 it   5 1.00000000   0.117E+02       0.036     5632.453   0.100E-11
     TRS4 it   6 1.00000000   0.605E+01       0.035     5663.643   0.100E-11
     TRS4 it   7 1.00000000   0.237E+01       0.036     5564.028   0.100E-11
     TRS4 it   8 1.00000000   0.638E+00       0.036     5559.646   0.100E-11
     TRS4 it   9 1.00000000   0.951E-01       0.036     5589.126   0.100E-11
     TRS4 it  10 1.00000000   0.566E-02       0.036     5505.023   0.100E-11
     TRS4 it  11 1.00000000   0.375E-04       0.036     5584.509   0.100E-11
     TRS4 it  12 1.00000000   0.485E-08       0.036     5553.498   0.100E-11
     TRS4 it  13 1.00000000   0.107E-13       0.036     5607.051   0.100E-11
     Final TRS4 iteration   13 1.00000000   0.107E-13
     Chemical potential (mu):      -0.01222

 SCF     8     -1103.098296384        -0.000004971    2.111155


 SCF run converged in     8 steps.

 Writing restart DM 64H2O_ref_LS_DM_SPIN_1_RESTART.dm with checksum:       0.61238122E+04

 ENERGY| Total FORCE_EVAL ( QS ) energy [a.u.]:            -1103.098296383833713

 -------------------------------------------------------------------------------
 -                                                                             -
 -                                DBCSR STATISTICS                             -
 -                                                                             -
 -------------------------------------------------------------------------------
 COUNTER                                    TOTAL       BLAS       SMM       ACC
 flops     5 x     5 x     5          82689822750       0.0%    100.0%      0.0%     
 flops    13 x     5 x     5         107033598750       0.0%    100.0%      0.0%     
 flops     5 x    13 x     5         107073407350       0.0%    100.0%      0.0%     
 flops     5 x     5 x    13         107602173900       0.0%    100.0%      0.0%     
 flops    13 x     5 x    13         139256050700       0.0%    100.0%      0.0%     
 flops     5 x    13 x    13         139358408930       0.0%    100.0%      0.0%     
 flops    13 x    13 x     5         140574216900       0.0%    100.0%      0.0%     
 flops    13 x    13 x    13         182926763396       0.0%    100.0%      0.0%     
 flops inhomo. stacks                           0       0.0%      0.0%      0.0%
 flops total                         1.006514E+12       0.0%    100.0%      0.0%
 flops max/rank                     32.325858E+09       0.0%    100.0%      0.0%
 matmuls inhomo. stacks                         0       0.0%      0.0%      0.0%
 matmuls total                         1115368162       0.0%    100.0%      0.0%
 number of processed stacks               1582341       0.0%    100.0%      0.0%
 average stack size                                     0.0     704.9       0.0
 marketing flops                     1.645785E+12
 -------------------------------------------------------------------------------
 # multiplications                            258
 max memory usage/rank             619.261952E+06
 # max total images/rank                        2
 # max 3D layers                                1
 # MPI messages exchanged                  107328
 MPI messages size (bytes):
  total size                        44.478218E+09
  min size                           0.000000E+00
  max size                         541.696000E+03
  average size                     414.413938E+03
 MPI breakdown and total messages size (bytes):
             size <=      128                 312                        0
       128 < size <=     8192                  42                   279312
      8192 < size <=    32768                  62                   841968
     32768 < size <=   131072                   0                        0
    131072 < size <=  4194304              106912              44477097600
   4194304 < size <= 16777216                   0                        0
  16777216 < size                               0                        0
 -------------------------------------------------------------------------------

 *** WARNING in dbcsr_mm.F:301 :: Using a non-square number of MPI ranks ***
 *** might lead to poor performance. Used ranks: 32 Suggested: 36 64     ***

 -------------------------------------------------------------------------------
 -                                                                             -
 -                      DBCSR MESSAGE PASSING PERFORMANCE                      -
 -                                                                             -
 -------------------------------------------------------------------------------
 ROUTINE             CALLS      AVE VOLUME [Bytes]
 MP_Bcast                9                     12.
 MP_Allreduce         1852                     34.
 MP_Alltoall           570                  33393.
 MP_ISend             9036                 170808.
 MP_IRecv             8646                 179132.
 -------------------------------------------------------------------------------

 -------------------------------------------------------------------------------
 -                                                                             -
 -                                DBM STATISTICS                               -
 -                                                                             -
 -------------------------------------------------------------------------------
    M  x    N  x    K                                          COUNT     PERCENT
 -------------------------------------------------------------------------------

 -------------------------------------------------------------------------------
 -                                                                             -
 -                                GRID STATISTICS                              -
 -                                                                             -
 -------------------------------------------------------------------------------
 LP    KERNEL             BACKEND                              COUNT     PERCENT
 2     collocate ortho    CPU                                7376130      28.83%
 2     integrate ortho    CPU                                7376130      28.83%
 3     collocate ortho    CPU                                4740246      18.53%
 3     integrate ortho    CPU                                4740246      18.53%
 4     collocate ortho    CPU                                 673407       2.63%
 4     integrate ortho    CPU                                 673407       2.63%
 0     collocate general  CPU                                   6144       0.02%
 -------------------------------------------------------------------------------

 MEMORY| Estimated peak process memory [MiB]                                 592

 -------------------------------------------------------------------------------
 -                                                                             -
 -                         MESSAGE PASSING PERFORMANCE                         -
 -                                                                             -
 -------------------------------------------------------------------------------

 ROUTINE             CALLS      AVE VOLUME [Bytes]
 MP_Group                5
 MP_Bcast             2052                 189741.
 MP_Allreduce         5576                    941.
 MP_Sync                 5
 MP_Alltoall           244               11440795.
 MP_SendRecv           837                  18832.
 MP_ISendRecv          837                  18832.
 MP_Wait              2391
 MP_ISend             1406                 108579.
 MP_IRecv             1406                 108603.
 -------------------------------------------------------------------------------


 -------------------------------------------------------------------------------
 -                                                                             -
 -                           R E F E R E N C E S                               -
 -                                                                             -
 -------------------------------------------------------------------------------
 
 CP2K version 2024.3 (Development Version), the CP2K developers group (2024).
 CP2K is freely available from https://www.cp2k.org/ .
 
 T. D. Kuehne, M. Iannuzzi, M. Del Ben, V. V. Rybkin, P. Seewald, F. Stein, T. 
 Laino, R. Z. Khaliullin, O. Schuett, F. Schiffmann, D. Golze, J. Wilhelm, S. 
 Chulkov, M. H. Bani-Hashemian, V. Weber, U. Borstnik, M. Taillefumier, A. S. 
 Jakobovits, A. Lazzaro, H. Pabst, T. Mueller, R. Schade, M. Guidon, S. 
 Andermatt, N. Holmberg, G. K. Schenter, A. Hehn, A. Bussy, F. Belleflamme, G. 
 Tabacchi, A. Gloess, M. Lass, I. Bethune, C. J. Mundy, C. Plessl, M. Watkins, 
 J. VandeVondele, M. Krack, J. Hutter.
 J. Chem. Phys. 152, 194103 (2020).
 CP2K: An electronic structure and molecular dynamics software package - 
 Quickstep: Efficient and accurate electronic structure calculations.
 https://doi.org/10.1063/5.0007045

 O. Schuett, P. Messmer, J. Hutter, J. VandeVondele.
 Electronic Structure Calculations on Graphics Processing Units, 173-190 (2016).
 GPU-Accelerated Sparse Matrix-Matrix Multiplication for Linear Scaling Density 
 Functional Theory.
 https://doi.org/10.1002/9781118670712.ch8

 A. Heinecke, G. Henry, M. Hutchinson, H. Pabst.
 Proceedings of Intl. Supercomputing Conference, 981-991 (2016).
 LIBXSMM: Accelerating Small Matrix Multiplications by Runtime Code Generation.
 https://doi.org/10.1109/SC.2016.83

 J. Hutter, M. Iannuzzi, F. Schiffmann, J. VandeVondele.
 WIREs Comput Mol Sci. 4, 15-25 (2014).
 CP2K: atomistic simulations of condensed matter systems.
 https://doi.org/10.1002/wcms.1159

 U. Borstnik, J. VandeVondele, V. Weber, J. Hutter.
 Parallel Comput. 40, 47-58 (2014).
 Sparse matrix multiplication: The distributed block-compressed sparse row 
 library.
 https://doi.org/10.1016/j.parco.2014.03.012

 A. Marek, V. Blum, R. Johanni, V. Havu, B. Lang, T. Auckenthaler, A. Heinecke, 
 H. Bungartz, H. Lederer.
 J. Phys. Condens. Matter 26, 213201 (2014).
 The ELPA library: scalable parallel eigenvalue solutions for electronic 
 structure theory and computational science.
 https://doi.org/10.1088/0953-8984/26/21/213201

 J. VandeVondele, U. Borstnik, J. Hutter.
 J. Chem. Theory Comput. 8, 3565-3573 (2012).
 Linear Scaling Self-Consistent Field Calculations with Millions of Atoms in the 
 Condensed Phase.
 https://doi.org/10.1021/ct200897x

 J. VandeVondele, J. Hutter.
 J. Chem. Phys. 127, 114105 (2007).
 Gaussian basis sets for accurate calculations on molecular systems in gas and 
 condensed phases.
 https://doi.org/10.1063/1.2770708

 J. VandeVondele, M. Krack, F. Mohamed, M. Parrinello, T. Chassaing, J. Hutter.
 Comput. Phys. Commun. 167, 103-128 (2005).
 QUICKSTEP: Fast and accurate density functional calculations using a mixed 
 Gaussian and plane waves approach.
 https://doi.org/10.1016/j.cpc.2004.12.014

 M. Krack.
 Theor. Chem. Acc. 114, 145-152 (2005).
 Pseudopotentials for H to Kr optimized for gradient-corrected 
 exchange-correlation functionals.
 https://doi.org/10.1007/s00214-005-0655-y

 M. Frigo, S. G. Johnson.
 Proc. IEEE 93, 216-231 (2005).
 The design and implementation of FFTW3.
 https://doi.org/10.1109/JPROC.2004.840301

 A. M. N. Niklasson, C. J. Tymczak, M. Challacombe.
 J. Chem. Phys. 118, 8611-8620 (2003).
 Trace resetting density matrix purification in O(N) self-consistent-field 
 theory.
 https://doi.org/10.1063/1.1559913

 C. Hartwigsen, S. Goedecker, J. Hutter.
 Phys. Rev. B 58, 3641-3662 (1998).
 Relativistic separable dual-space Gaussian pseudopotentials from H to Rn.
 https://doi.org/10.1103/PhysRevB.58.3641

 G. Lippert, J. Hutter, M. Parrinello.
 Mol. Phys. 92, 477-487 (1997).
 A hybrid Gaussian and plane wave density functional scheme.
 https://doi.org/10.1080/002689797170220

 S. Goedecker, M. Teter, J. Hutter.
 Phys. Rev. B 54, 1703-1710 (1996).
 Separable dual-space Gaussian pseudopotentials.
 https://doi.org/10.1103/PhysRevB.54.1703

 J. P. Perdew, K. Burke, M. Ernzerhof.
 Phys. Rev. Lett. 77, 3865-3868 (1996).
 Generalized gradient approximation made simple.
 https://doi.org/10.1103/PhysRevLett.77.3865


 -------------------------------------------------------------------------------
 -                                                                             -
 -                                T I M I N G                                  -
 -                                                                             -
 -------------------------------------------------------------------------------
 SUBROUTINE                       CALLS  ASD         SELF TIME        TOTAL TIME
                                MAXIMUM       AVERAGE  MAXIMUM  AVERAGE  MAXIMUM
 CP2K                                 1  1.0    0.013    0.016   20.691   20.691
 qs_energies                          1  2.0    0.000    0.000   20.535   20.536
 ls_scf                               1  3.0    0.000    0.000   19.380   19.381
 ls_scf_main                          1  4.0    0.000    0.000   16.820   16.820
 ls_scf_dm_to_ks                      8  5.0    0.000    0.000   12.430   12.434
 qs_ks_update_qs_env                  9  6.1    0.000    0.000    7.852    7.854
 rebuild_ks_matrix                    9  7.1    0.000    0.000    7.846    7.848
 qs_ks_build_kohn_sham_matrix         9  8.1    0.002    0.002    7.846    7.848
 qs_rho_update_rho_low                9  6.1    0.000    0.000    6.136    6.140
 calculate_rho_elec                   9  7.1    0.003    0.003    6.136    6.140
 sum_up_and_integrate                 9  9.1    0.000    0.000    5.936    5.938
 integrate_v_rspace                   9 10.1    0.000    0.000    5.928    5.931
 grid_collocate_task_list             9  8.1    5.438    5.574    5.438    5.574
 grid_integrate_task_list             9 11.1    5.199    5.326    5.199    5.326
 dbcsr_multiply_generic             258  6.1    0.013    0.013    4.835    4.840
 density_matrix_trs4                  8  5.0    0.004    0.006    4.385    4.387
 multiply_cannon                    258  7.1    0.019    0.022    3.927    3.985
 multiply_cannon_loop               258  8.1    0.020    0.022    3.848    3.885
 ls_scf_init_scf                      1  4.0    0.000    0.000    2.493    2.493
 multiply_cannon_multrec           2064  9.1    2.186    2.240    2.192    2.247
 mp_waitall_1                     17497 10.5    1.801    1.899    1.801    1.899
 fft_wrap_pw1pw2                    172 11.3    0.003    0.003    1.773    1.793
 fft_wrap_pw1pw2_200                100 12.8    0.102    0.109    1.698    1.735
 qs_vxc_create                        9  9.1    0.000    0.000    1.562    1.592
 xc_vxc_pw_create                     9 10.1    0.013    0.022    1.562    1.592
 ls_scf_initial_guess                 1  5.0    0.000    0.000    1.562    1.563
 ls_scf_qs_atomic_guess               1  6.0    0.000    0.000    1.562    1.563
 multiply_cannon_metrocomm3        2064  9.1    0.006    0.006    1.404    1.496
 fft3d_ps                           172 13.3    0.717    0.804    1.338    1.372
 xc_pw_derive                        54 12.1    0.001    0.001    1.108    1.188
 qs_energies_init_hamiltonians        1  3.0    0.000    0.000    1.154    1.154
 build_core_hamiltonian_matrix        1  4.0    0.000    0.000    0.722    0.965
 ls_scf_init_matrix_S                 1  5.0    0.000    0.000    0.930    0.931
 matrix_sqrt_Newton_Schulz            1  6.0    0.001    0.001    0.906    0.907
 xc_rho_set_and_dset_create           9 11.1    0.020    0.024    0.785    0.803
 xc_pw_divergence                     9 11.1    0.000    0.000    0.743    0.780
 density_rs2pw                        9  8.1    0.000    0.000    0.664    0.763
 make_m2s                           516  7.1    0.005    0.007    0.712    0.728
 mp_waitany                        1406 12.5    0.613    0.723    0.613    0.723
 make_images                        516  8.1    0.041    0.041    0.701    0.716
 build_core_ppl                       1  5.0    0.494    0.670    0.494    0.670
 mp_alltoall_z22v                   172 15.3    0.449    0.662    0.449    0.662
 transfer_rs2pw                      46  9.0    0.001    0.001    0.543    0.645
 potential_pw2rs                      9 11.1    0.000    0.001    0.598    0.600
 transfer_rs2pw_200                  10  9.8    0.032    0.046    0.440    0.542
 qs_env_update_s_mstruct              1  4.0    0.000    0.000    0.412    0.496
 make_images_data                   516  9.1    0.006    0.008    0.390    0.427
 yz_to_x                             64 14.2    0.059    0.083    0.291    0.422
 -------------------------------------------------------------------------------

 The number of warnings for this run is : 1
 
 -------------------------------------------------------------------------------
  **** **** ******  **  PROGRAM ENDED AT                 2024-09-23 17:42:11.687
 ***** ** ***  *** **   PROGRAM RAN ON                                    moritz
 **    ****   ******    PROGRAM RAN BY                                       ole
 ***** **    ** ** **   PROGRAM PROCESS ID                                158122
  **** **  *******  **  PROGRAM STOPPED IN /home/ole/git/pao_ml_equivar/64H2O_MD
                                           /Frame3500
