 DBCSR| CPU Multiplication driver                                           XSMM (U)
 DBCSR| Multrec recursion limit                                              512 (U)
 DBCSR| Multiplication stack size                                           1000 (D)
 DBCSR| Maximum elements for images                                    UNLIMITED (U)
 DBCSR| Multiplicative factor virtual images                                   1 (U)
 DBCSR| Use multiplication densification                                       T (D)
 DBCSR| Multiplication size stacks                                             3 (U)
 DBCSR| Use memory pool for CPU allocation                                     F (U)
 DBCSR| Number of 3D layers                                               SINGLE (U)
 DBCSR| Use MPI memory allocation                                              F (U)
 DBCSR| Use RMA algorithm                                                      F (U)
 DBCSR| Use Communication thread                                               T (U)
 DBCSR| Communication thread load                                             87 (D)
 DBCSR| MPI: My process id                                                     0
 DBCSR| MPI: Number of processes                                              32
 DBCSR| OMP: Current number of threads                                         1
 DBCSR| OMP: Max number of threads                                             1
 DBCSR| Split modifier for TAS multiplication algorithm                  1.0E+00 (U)


  **** **** ******  **  PROGRAM STARTED AT               2024-09-24 06:11:45.285
 ***** ** ***  *** **   PROGRAM STARTED ON                                moritz
 **    ****   ******    PROGRAM STARTED BY                                   ole
 ***** **    ** ** **   PROGRAM PROCESS ID                                170071
  **** **  *******  **  PROGRAM STARTED IN /home/ole/git/pao_ml_equivar/64H2O_MD
                                           /Frame6400

 CP2K| version string:                 CP2K version 2024.3 (Development Version)
 CP2K| source code revision number:                                  git:3f890bb
 CP2K| cp2kflags: omp libint fftw3 libxc libgrpp pexsi elpa parallel scalapack c
 CP2K|            osma quip deepmd xsmm plumed2 spglib libdftd4 sirius libvori l
 CP2K|            libbqb libvdwxc hdf5
 CP2K| is freely available from                            https://www.cp2k.org/
 CP2K| Program compiled at                          Mo 23 Sep 2024 17:17:04 CEST
 CP2K| Program compiled on                                                moritz
 CP2K| Program compiled for                                                local
 CP2K| Data directory path                               /home/ole/git/cp2k/data
 CP2K| Input file name                                           64H2O_pao44.inp

 GLOBAL| Force Environment number                                              1
 GLOBAL| Basis set file name                                        BASIS_MOLOPT
 GLOBAL| Potential file name                                      GTH_POTENTIALS
 GLOBAL| MM Potential file name                                     MM_POTENTIAL
 GLOBAL| Coordinate file name                                         coords.xyz
 GLOBAL| Method name                                                        CP2K
 GLOBAL| Project name                                                64H2O_pao44
 GLOBAL| Run type                                                         ENERGY
 GLOBAL| FFT library                                                       FFTW3
 GLOBAL| Diagonalization library                                            ELPA
 GLOBAL| DGEMM library                                                      BLAS
 GLOBAL| Minimum number of eigenvectors for ELPA usage                        16
 GLOBAL| Orthonormality check for eigenvectors                          DISABLED
 GLOBAL| Matrix multiplication library                                     COSMA
 GLOBAL| All-to-all communication in single precision                          F
 GLOBAL| FFTs using library dependent lengths                                  F
 GLOBAL| Grid backend                                                       AUTO
 GLOBAL| Global print level                                                  LOW
 GLOBAL| MPI I/O enabled                                                       T
 GLOBAL| Total number of message passing processes                            32
 GLOBAL| Number of threads for this process                                    1
 GLOBAL| This output is from process                                           0
 GLOBAL| Stack size for threads created by OpenMP (OMP_STACKSIZE)        default
 GLOBAL| CPU model name           AMD Ryzen Threadripper 3970X 32-Core Processor
 GLOBAL| CPUID                                                              1002

 MEMORY| system memory details [Kb]
 MEMORY|                        rank 0           min           max       average
 MEMORY| MemTotal            131752136     131752136     131752136     131752136
 MEMORY| MemFree             114263100     114263100     114263100     114263100
 MEMORY| Buffers               2028924       2028924       2028924       2028924
 MEMORY| Cached                8721700       8721700       8721700       8721700
 MEMORY| Slab                  1643376       1643376       1643376       1643376
 MEMORY| SReclaimable          1146212       1146212       1146212       1146212
 MEMORY| MemLikelyFree       126159936     126159936     126159936     126159936


 GENERATE|  Preliminary Number of Bonds generated:                             0
 GENERATE|  Achieved consistency in connectivity generation.

 *******************************************************************************
 *******************************************************************************
 **                                                                           **
 **     #####                         ##              ##                      **
 **    ##   ##            ##          ##              ##                      **
 **   ##     ##                       ##            ######                    **
 **   ##     ##  ##   ##  ##   #####  ##  ##   ####   ##    #####    #####    **
 **   ##     ##  ##   ##  ##  ##      ## ##   ##      ##   ##   ##  ##   ##   **
 **   ##  ## ##  ##   ##  ##  ##      ####     ###    ##   ######   ######    **
 **    ##  ###   ##   ##  ##  ##      ## ##      ##   ##   ##       ##        **
 **     #######   #####   ##   #####  ##  ##  ####    ##    #####   ##        **
 **           ##                                                    ##        **
 **                                                                           **
 **                                                ... make the atoms dance   **
 **                                                                           **
 **            Copyright (C) by CP2K developers group (2000-2024)             **
 **                      J. Chem. Phys. 152, 194103 (2020)                    **
 **                                                                           **
 *******************************************************************************


 TOTAL NUMBERS AND MAXIMUM NUMBERS

  Total number of            - Atomic kinds:                                   2
                             - Atoms:                                        192
                             - Shell sets:                                   192
                             - Shells:                                       704
                             - Primitive Cartesian functions:               1344
                             - Cartesian basis functions:                   1536
                             - Spherical basis functions:                   1472

  Maximum angular momentum of- Orbital basis functions:                        2
                             - Local part of the GTH pseudopotential:          2
                             - Non-local part of the GTH pseudopotential:      0

 ------------------------------ Linear scaling SCF -----------------------------
 eps_scf:                                                              0.100E-07
 eps_filter:                                                           0.100E-11
 mixing_fraction:                                                      0.450E+00
 max_scf:                                                                     25
 fixed chemical potential (mu)                                                 F
 has unit metric:                                                              F
 Computing inv(S):                                                             T
 Computing sqrt(S):                                                            T
 Computing S preconditioner                                                    F
 S sqrt method:                                                     NEWTONSCHULZ
 S sqrt order:                                                                 3
 Extrapolation order:                                                          1
 S preconditioner type                                                      NONE
 Polarized Atomic Orbitals (PAO)                                               T
 Purification method                                   Trace resetting 4th order
 Cluster type                                                             ATOMIC
 Computing Chebyshev                                                       FALSE
 Using PAO                                                                     T
 -------------------------------------------------------------------------------

 
 PAO|                                  EPS_PAO                           0.5E-06
 PAO|                                  MIXING                            0.5E+00
 PAO|                                  MAX_PAO                              1500
 PAO|                                  MAX_CYCLES                           1000
 PAO|                                  PARAMETERIZATION              EQUIVARIANT
 PAO|                                  PRECONDITION                            F
 PAO|                                  REGULARIZATION                    0.0E+00
 PAO|                                  EPS_PGF                           0.1E-09
 PAO|                                  PENALTY_DISTANCE                  0.1E+00
 PAO|                                  PENALTY_STRENGTH                  0.5E-02
 PAO|                                  LINPOT_PRECONDITION_DELTA         0.0E+00
 PAO|                                  LINPOT_INITGUESS_DELT             0.0E+00
 PAO|                                  LINPOT_REGULARIZATION_DELTA       0.0E+00
 PAO|                                  LINPOT_REGULARIZATION_STRENGTH    0.0E+00
 PAO|                                  OPTIMIZER                              CG
 PAO|                                  CG_INIT_STEPS                           2
 PAO|                                  CG_RESET_LIMIT                    0.1E+00
 PAO|                                  CHECK_UNITARY_TOL                -0.1E+01
 PAO|                                  CHECK_GRADIENT_TOL               -0.1E+01
 PAO|                                  NUM_GRADIENT_ORDER                      2
 PAO|                                  NUM_GRADIENT_EPS                  0.1E-07
 PAO|                                  PRINT%RESTART%WRITE_CYCLES            100
 PAO|                                  RESTART_FILE 
 PAO|                                  PREOPT_DM_FILE 64H2O_ref_LS_DM_SPIN_1_RESTART.dm
 PAO|                                  MACHINE_LEARNING%METHOD       GAUSSIAN_PR
 PAO|                                  MACHINE_LEARNING%PRIOR               ZERO
 PAO|                                  MACHINE_LEARNING%DESCRIPTOR     POTENTIAL
 PAO|                                  MACHINE_LEARNING%TOLERANCE        0.1E-01
 PAO|                                  MACHINE_LEARNING%GP_NOISE_VAR     0.1E+00
 PAO|                                  MACHINE_LEARNING%GP_SCALE         0.5E-01
 

 Calculating atomic Fock matrix for atomic kind: O

 Electronic structure
    Total number of core electrons                                          2.00
    Total number of valence electrons                                       6.00
    Total number of electrons                                               8.00
    Multiplicity                                                   not specified
    S   [  2.00] 2.00
    P      4.00


 *******************************************************************************
                  Iteration          Convergence                     Energy [au]
 *******************************************************************************
                          1        0.708315                     -15.576645311500
                          2        0.608879                     -15.587933561584
                          3        0.102828E-01                 -15.656849565404
                          4        0.113889E-02                 -15.656866888140
                          5        0.434197E-03                 -15.656867072159
                          6        0.263771E-03                 -15.656867091904
                          7        0.478536E-06                 -15.656867103452

 Energy components [Hartree]           Total Energy ::          -15.656867103452
                                        Band Energy ::           -3.000198112285
                                     Kinetic Energy ::           11.759971203220
                                   Potential Energy ::          -27.416838306672
                                      Virial (-V/T) ::            2.331369510426
                                        Core Energy ::          -26.140716385623
                                          XC Energy ::           -3.154051012914
                                     Coulomb Energy ::           13.637900295084
                       Total Pseudopotential Energy ::          -37.935781716540
                       Local Pseudopotential Energy ::          -39.218907440693
                    Nonlocal Pseudopotential Energy ::            1.283125724153
                                        Confinement ::            0.350941276976

 Orbital energies  State     L     Occupation   Energy[a.u.]          Energy[eV]

                       1     0          2.000      -0.864471          -23.523463

                       1     1          4.000      -0.317814           -8.648154


 Total Electron Density at R=0:                                         0.000068

 Calculating atomic Fock matrix for atomic kind: H

 Electronic structure
    Total number of core electrons                                          0.00
    Total number of valence electrons                                       1.00
    Total number of electrons                                               1.00
    Multiplicity                                                   not specified
    S      1.00


 *******************************************************************************
                  Iteration          Convergence                     Energy [au]
 *******************************************************************************
                          1        0.437545E-02                  -0.424159432110
                          2        0.531356E-03                  -0.424178438213
                          3        0.259176E-06                  -0.424178722480

 Energy components [Hartree]           Total Energy ::           -0.424178722480
                                        Band Energy ::           -0.199015229016
                                     Kinetic Energy ::            0.464007633961
                                   Potential Energy ::           -0.888186356441
                                      Virial (-V/T) ::            1.914163240935
                                        Core Energy ::           -0.479160803564
                                          XC Energy ::           -0.244352904054
                                     Coulomb Energy ::            0.299334985138
                       Total Pseudopotential Energy ::           -0.962295316385
                       Local Pseudopotential Energy ::           -0.962295316385
                    Nonlocal Pseudopotential Energy ::            0.000000000000
                                        Confinement ::            0.191268788606

 Orbital energies  State     L     Occupation   Energy[a.u.]          Energy[eV]

                       1     0          1.000      -0.199015           -5.415480


 Total Electron Density at R=0:                                         0.242907
 PAO| Made initial guess for matrix_X with norm:   27.712812921102035     

     Lanczos converged:  F threshold:   0.100E-02
     Est. extremal eigenvalues:    0.609E+01   0.913E-01
     Est. condition number :    0.667E+02

 Order=           3
     NS sqrt iter    1 1.00000000   0.149E+01       0.021     2696.600
     NS sqrt iter    2 1.00000000   0.811E+00       0.034     3341.585
     NS sqrt iter    3 1.00000000   0.327E+00       0.034     3309.562
     NS sqrt iter    4 1.00000000   0.910E-01       0.034     3312.015
     NS sqrt iter    5 1.00000000   0.320E-02       0.034     3339.519
     NS sqrt iter    6 1.00000000   0.261E-06       0.029     2902.025
     Symmetrizing Results
     Final NS sqrt iter    6 1.00000000   0.159E-12

 PAO| Read restart DM 64H2O_ref_LS_DM_SPIN_1_RESTART.dm with checksum:    5917.4932938392840     
 PAO| Quickstep energy from restart density:  -1103.1300187467550     
 PAO| ======================= Iteration:         1 =============================

     Lanczos converged:  F threshold:   0.100E-02
     Est. extremal eigenvalues:    0.609E+01   0.913E-01
     Est. condition number :    0.667E+02

 Order=           3
     NS sqrt iter    1 1.00000000   0.149E+01       0.021     2685.554
     NS sqrt iter    2 1.00000000   0.811E+00       0.034     3336.622
     NS sqrt iter    3 1.00000000   0.327E+00       0.034     3360.298
     NS sqrt iter    4 1.00000000   0.910E-01       0.034     3371.916
     NS sqrt iter    5 1.00000000   0.320E-02       0.034     3345.662
     NS sqrt iter    6 1.00000000   0.261E-06       0.029     2902.685
     Symmetrizing Results
     Final NS sqrt iter    6 1.00000000   0.159E-12

     Est. extremal eigenvalues     -0.81668     2.67541  converged:  T
     TRS4 it   1 1.00000000   0.274E+02       0.007     2091.601   0.100E-11
     TRS4 it   2 1.00000000   0.239E+02       0.013     2159.322   0.100E-11
     TRS4 it   3 1.00000000   0.160E+02       0.013     2157.805   0.100E-11
     TRS4 it   4 1.00000000   0.997E+01       0.013     2186.190   0.100E-11
     TRS4 it   5 1.00000000   0.478E+01       0.013     2177.559   0.100E-11
     TRS4 it   6 1.00000000   0.157E+01       0.013     2168.117   0.100E-11
     TRS4 it   7 1.00000000   0.306E+00       0.013     2183.622   0.100E-11
     TRS4 it   8 1.00000000   0.214E-01       0.013     2177.394   0.100E-11
     TRS4 it   9 1.00000000   0.183E-03       0.013     2171.710   0.100E-11
     TRS4 it  10 1.00000000   0.170E-07       0.013     2166.981   0.100E-11
     TRS4 it  11 1.00000000   0.124E-13       0.013     2151.713   0.100E-11
     Final TRS4 iteration   11 1.00000000   0.124E-13
     Chemical potential (mu):       0.00963
 
 PAO| energy:  -186.78742566000031      penalty:   1.3010041960324655E-031
 PAO|CG| warming up with steepest descent
 PAO|CG| beta:    0.0000000000000000     
 PAO| norm of gradient:   3.9888491313711465     
 PAO|LS| adapt:  T F F
 PAO|LS| adapt: scan_steps:    0.0000000000000000        0.0000000000000000        0.0000000000000000     
 PAO|LS| adapt: energies:   -186.78742566000031        0.0000000000000000        0.0000000000000000     
 PAO| ======================= Iteration:         2 =============================

     Lanczos converged:  T threshold:   0.100E-02
     Est. extremal eigenvalues:    0.587E+01   0.971E-01
     Est. condition number :    0.605E+02

 Order=           3
     NS sqrt iter    1 1.00000000   0.144E+01       0.021     2688.689
     NS sqrt iter    2 1.00000000   0.781E+00       0.034     3333.715
     NS sqrt iter    3 1.00000000   0.306E+00       0.034     3337.630
     NS sqrt iter    4 1.00000000   0.762E-01       0.034     3327.463
     NS sqrt iter    5 1.00000000   0.198E-02       0.034     3348.729
     NS sqrt iter    6 1.00000000   0.750E-07       0.029     2890.042
     Symmetrizing Results
     Final NS sqrt iter    6 1.00000000   0.171E-13

     Est. extremal eigenvalues     -0.82010     2.66685  converged:  T
     TRS4 it   1 1.00000000   0.276E+02       0.007     2106.410   0.100E-11
     TRS4 it   2 1.00000000   0.238E+02       0.013     2193.875   0.100E-11
     TRS4 it   3 1.00000000   0.159E+02       0.013     2182.684   0.100E-11
     TRS4 it   4 1.00000000   0.977E+01       0.013     2180.073   0.100E-11
     TRS4 it   5 1.00000000   0.456E+01       0.013     2151.059   0.100E-11
     TRS4 it   6 1.00000000   0.144E+01       0.013     2181.963   0.100E-11
     TRS4 it   7 1.00000000   0.262E+00       0.013     2187.748   0.100E-11
     TRS4 it   8 1.00000000   0.154E-01       0.013     2174.571   0.100E-11
     TRS4 it   9 1.00000000   0.855E-04       0.013     2140.603   0.100E-11
     TRS4 it  10 1.00000000   0.421E-08       0.013     2190.581   0.100E-11
     TRS4 it  11 1.00000000   0.231E-13       0.013     2191.282   0.100E-11
     Final TRS4 iteration   11 1.00000000   0.231E-13
     Chemical potential (mu):       0.01552
 
 PAO| energy:  -188.24769040305779      penalty:   4.7453692090435745E-007
 PAO|LS| adapt:  T T F
 PAO|LS| adapt: scan_steps:    0.0000000000000000       0.10000000000000001        0.0000000000000000     
 PAO|LS| adapt: energies:   -186.78742566000031       -188.24769040305779        0.0000000000000000     
 PAO| ======================= Iteration:         3 =============================

     Lanczos converged:  T threshold:   0.100E-02
     Est. extremal eigenvalues:    0.566E+01   0.102E+00
     Est. condition number :    0.553E+02

 Order=           3
     NS sqrt iter    1 1.00000000   0.140E+01       0.021     2675.858
     NS sqrt iter    2 1.00000000   0.752E+00       0.034     3339.062
     NS sqrt iter    3 1.00000000   0.286E+00       0.034     3343.382
     NS sqrt iter    4 1.00000000   0.636E-01       0.034     3337.801
     NS sqrt iter    5 1.00000000   0.124E-02       0.034     3343.353
     NS sqrt iter    6 1.00000000   0.226E-07       0.030     2865.917
     Symmetrizing Results
     Final NS sqrt iter    6 1.00000000   0.337E-14

     Est. extremal eigenvalues     -0.82336     2.66089  converged:  T
     TRS4 it   1 1.00000000   0.279E+02       0.007     2109.060   0.100E-11
     TRS4 it   2 1.00000000   0.238E+02       0.013     2199.538   0.100E-11
     TRS4 it   3 1.00000000   0.158E+02       0.013     2183.319   0.100E-11
     TRS4 it   4 1.00000000   0.958E+01       0.013     2174.579   0.100E-11
     TRS4 it   5 1.00000000   0.436E+01       0.013     2175.916   0.100E-11
     TRS4 it   6 1.00000000   0.132E+01       0.013     2161.095   0.100E-11
     TRS4 it   7 1.00000000   0.222E+00       0.013     2159.678   0.100E-11
     TRS4 it   8 1.00000000   0.107E-01       0.013     2163.357   0.100E-11
     TRS4 it   9 1.00000000   0.374E-04       0.013     2159.830   0.100E-11
     TRS4 it  10 1.00000000   0.902E-09       0.013     2188.660   0.100E-11
     TRS4 it  11 1.00000000   0.888E-14       0.013     2142.879   0.100E-11
     Final TRS4 iteration   11 1.00000000   0.888E-14
     Chemical potential (mu):       0.02223
 
 PAO| energy:  -189.43007606632557      penalty:   7.5925907344791297E-006
 PAO|LS| adapt:  T T F
 PAO|LS| adapt: scan_steps:    0.0000000000000000       0.20000000000000001        0.0000000000000000     
 PAO|LS| adapt: energies:   -186.78742566000031       -189.43007606632557        0.0000000000000000     
 PAO| ======================= Iteration:         4 =============================

     Lanczos converged:  F threshold:   0.100E-02
     Est. extremal eigenvalues:    0.525E+01   0.112E+00
     Est. condition number :    0.470E+02

 Order=           3
     NS sqrt iter    1 1.00000000   0.132E+01       0.021     2675.781
     NS sqrt iter    2 1.00000000   0.696E+00       0.034     3348.057
     NS sqrt iter    3 1.00000000   0.248E+00       0.034     3352.164
     NS sqrt iter    4 1.00000000   0.444E-01       0.034     3339.530
     NS sqrt iter    5 1.00000000   0.509E-03       0.034     3361.001
     NS sqrt iter    6 1.00000000   0.216E-08       0.029     2854.742
     Symmetrizing Results
     Final NS sqrt iter    6 1.00000000   0.152E-13

     Est. extremal eigenvalues     -0.82877     2.65469  converged:  T
     TRS4 it   1 1.00000000   0.282E+02       0.007     2117.377   0.100E-11
     TRS4 it   2 1.00000000   0.238E+02       0.013     2186.832   0.100E-11
     TRS4 it   3 1.00000000   0.156E+02       0.013     2168.027   0.100E-11
     TRS4 it   4 1.00000000   0.925E+01       0.013     2175.615   0.100E-11
     TRS4 it   5 1.00000000   0.401E+01       0.013     2160.140   0.100E-11
     TRS4 it   6 1.00000000   0.111E+01       0.013     2192.410   0.100E-11
     TRS4 it   7 1.00000000   0.158E+00       0.013     2168.692   0.100E-11
     TRS4 it   8 1.00000000   0.502E-02       0.013     2157.761   0.100E-11
     TRS4 it   9 1.00000000   0.692E-05       0.013     2193.855   0.100E-11
     TRS4 it  10 1.00000000   0.325E-10       0.013     2164.321   0.100E-11
     Final TRS4 iteration   10 1.00000000   0.325E-10
     Chemical potential (mu):       0.04078
 
 PAO| energy:  -190.91939918685301      penalty:   1.2148145175174196E-004
 PAO|LS| Need extra step
 PAO|LS| adapt:  T T F
 PAO|LS| adapt: scan_steps:    0.0000000000000000       0.40000000000000002        0.0000000000000000     
 PAO|LS| adapt: energies:   -186.78742566000031       -190.91939918685301        0.0000000000000000     
 PAO| ======================= Iteration:         5 =============================

     Lanczos converged:  F threshold:   0.100E-02
     Est. extremal eigenvalues:    0.463E+01   0.127E+00
     Est. condition number :    0.365E+02

 Order=           3
     NS sqrt iter    1 1.00000000   0.120E+01       0.021     2685.889
     NS sqrt iter    2 1.00000000   0.611E+00       0.034     3362.180
     NS sqrt iter    3 1.00000000   0.192E+00       0.034     3337.936
     NS sqrt iter    4 1.00000000   0.235E-01       0.034     3345.257
     NS sqrt iter    5 1.00000000   0.101E-03       0.034     3316.244
     NS sqrt iter    6 1.00000000   0.253E-10       0.019     2171.266
     Symmetrizing Results
     Final NS sqrt iter    6 1.00000000   0.210E-11

     Est. extremal eigenvalues     -0.83222     2.64762  converged:  T
     TRS4 it   1 1.00000000   0.288E+02       0.007     2115.740   0.100E-11
     TRS4 it   2 1.00000000   0.238E+02       0.013     2167.238   0.100E-11
     TRS4 it   3 1.00000000   0.154E+02       0.013     2163.230   0.100E-11
     TRS4 it   4 1.00000000   0.876E+01       0.013     2172.459   0.100E-11
     TRS4 it   5 1.00000000   0.350E+01       0.013     2186.913   0.100E-11
     TRS4 it   6 1.00000000   0.826E+00       0.013     2163.869   0.100E-11
     TRS4 it   7 1.00000000   0.868E-01       0.013     2153.546   0.100E-11
     TRS4 it   8 1.00000000   0.141E-02       0.013     2181.871   0.100E-11
     TRS4 it   9 1.00000000   0.550E-06       0.013     2156.732   0.100E-11
     TRS4 it  10 1.00000000   0.224E-12       0.013     2191.375   0.100E-11
     Final TRS4 iteration   10 1.00000000   0.224E-12
     Chemical potential (mu):       0.06238
 
 PAO| energy:  -190.52217265413719      penalty:   1.9437032280284726E-003
 PAO|LS| Need extra step
 PAO|LS| adapt:  T T T
 PAO|LS| adapt: scan_steps:    0.0000000000000000       0.40000000000000002       0.80000000000000004     
 PAO|LS| adapt: energies:   -186.78742566000031       -190.91939918685301       -190.52217265413719     
 PAO|LS| adapt: suggested step_size:   0.56491861454636993     
 PAO|LS| adapt: predicted energy  -191.30435499932443     
 PAO| ======================= Iteration:         6 =============================

     Lanczos converged:  F threshold:   0.100E-02
     Est. extremal eigenvalues:    0.496E+01   0.119E+00
     Est. condition number :    0.418E+02

 Order=           3
     NS sqrt iter    1 1.00000000   0.126E+01       0.021     2682.900
     NS sqrt iter    2 1.00000000   0.657E+00       0.034     3341.529
     NS sqrt iter    3 1.00000000   0.222E+00       0.034     3324.753
     NS sqrt iter    4 1.00000000   0.336E-01       0.034     3339.705
     NS sqrt iter    5 1.00000000   0.254E-03       0.034     3334.446
     NS sqrt iter    6 1.00000000   0.327E-09       0.028     2664.589
     Symmetrizing Results
     Final NS sqrt iter    6 1.00000000   0.416E-12

     Est. extremal eigenvalues     -0.83156     2.65190  converged:  T
     TRS4 it   1 1.00000000   0.285E+02       0.007     2074.673   0.100E-11
     TRS4 it   2 1.00000000   0.238E+02       0.013     2185.695   0.100E-11
     TRS4 it   3 1.00000000   0.155E+02       0.013     2176.204   0.100E-11
     TRS4 it   4 1.00000000   0.902E+01       0.013     2163.482   0.100E-11
     TRS4 it   5 1.00000000   0.377E+01       0.013     2188.667   0.100E-11
     TRS4 it   6 1.00000000   0.971E+00       0.013     2175.700   0.100E-11
     TRS4 it   7 1.00000000   0.121E+00       0.013     2158.399   0.100E-11
     TRS4 it   8 1.00000000   0.281E-02       0.013     2177.271   0.100E-11
     TRS4 it   9 1.00000000   0.209E-05       0.013     2204.245   0.100E-11
     TRS4 it  10 1.00000000   0.302E-11       0.013     2186.603   0.100E-11
     Final TRS4 iteration   10 1.00000000   0.302E-11
     Chemical potential (mu):       0.05089
 
 PAO| energy:  -191.27818291690716      penalty:   4.8329638794802649E-004
 PAO|CG| warming up with steepest descent
 PAO|CG| beta:    0.0000000000000000     
 PAO| norm of gradient:   2.1373503029475729     
 PAO| energy improvement:  -4.4907572569068464     
 PAO| step      6                 -191.278182917  0.417E-02  0.565E+00     2.505
 PAO|LS| adapt:  T F F
 PAO|LS| adapt: scan_steps:    0.0000000000000000        0.0000000000000000        0.0000000000000000     
 PAO|LS| adapt: energies:   -191.27818291690716        0.0000000000000000        0.0000000000000000     
 PAO| ======================= Iteration:         7 =============================

     Lanczos converged:  F threshold:   0.100E-02
     Est. extremal eigenvalues:    0.482E+01   0.128E+00
     Est. condition number :    0.378E+02

 Order=           3
     NS sqrt iter    1 1.00000000   0.123E+01       0.021     2686.806
     NS sqrt iter    2 1.00000000   0.633E+00       0.034     3332.558
     NS sqrt iter    3 1.00000000   0.205E+00       0.034     3356.101
     NS sqrt iter    4 1.00000000   0.270E-01       0.034     3360.442
     NS sqrt iter    5 1.00000000   0.140E-03       0.034     3352.929
     NS sqrt iter    6 1.00000000   0.581E-10       0.023     2389.574
     Symmetrizing Results
     Final NS sqrt iter    6 1.00000000   0.215E-11

     Est. extremal eigenvalues     -0.83109     2.63145  converged:  T
     TRS4 it   1 1.00000000   0.286E+02       0.007     2097.035   0.100E-11
     TRS4 it   2 1.00000000   0.238E+02       0.013     2189.991   0.100E-11
     TRS4 it   3 1.00000000   0.156E+02       0.013     2168.229   0.100E-11
     TRS4 it   4 1.00000000   0.914E+01       0.013     2181.704   0.100E-11
     TRS4 it   5 1.00000000   0.385E+01       0.013     2175.871   0.100E-11
     TRS4 it   6 1.00000000   0.991E+00       0.013     2194.804   0.100E-11
     TRS4 it   7 1.00000000   0.121E+00       0.014     2103.923   0.100E-11
     TRS4 it   8 1.00000000   0.277E-02       0.013     2150.726   0.100E-11
     TRS4 it   9 1.00000000   0.212E-05       0.013     2163.841   0.100E-11
     TRS4 it  10 1.00000000   0.330E-11       0.013     2175.367   0.100E-11
     Final TRS4 iteration   10 1.00000000   0.330E-11
     Chemical potential (mu):       0.05295
 
 PAO| energy:  -190.30725455324347      penalty:   7.0085655217626557E-004
 PAO|LS| adapt:  T F T
 PAO|LS| adapt: scan_steps:    0.0000000000000000        0.0000000000000000       0.56491861454636993     
 PAO|LS| adapt: energies:   -191.27818291690716        0.0000000000000000       -190.30725455324347     
 PAO| ======================= Iteration:         8 =============================

     Lanczos converged:  F threshold:   0.100E-02
     Est. extremal eigenvalues:    0.489E+01   0.126E+00
     Est. condition number :    0.388E+02

 Order=           3
     NS sqrt iter    1 1.00000000   0.125E+01       0.021     2685.345
     NS sqrt iter    2 1.00000000   0.645E+00       0.034     3360.719
     NS sqrt iter    3 1.00000000   0.214E+00       0.034     3314.303
     NS sqrt iter    4 1.00000000   0.302E-01       0.034     3345.194
     NS sqrt iter    5 1.00000000   0.190E-03       0.034     3339.037
     NS sqrt iter    6 1.00000000   0.141E-09       0.026     2537.975
     Symmetrizing Results
     Final NS sqrt iter    6 1.00000000   0.131E-11

     Est. extremal eigenvalues     -0.83252     2.64166  converged:  T
     TRS4 it   1 1.00000000   0.285E+02       0.007     2072.537   0.100E-11
     TRS4 it   2 1.00000000   0.238E+02       0.013     2187.974   0.100E-11
     TRS4 it   3 1.00000000   0.155E+02       0.013     2163.600   0.100E-11
     TRS4 it   4 1.00000000   0.905E+01       0.013     2166.549   0.100E-11
     TRS4 it   5 1.00000000   0.378E+01       0.013     2198.089   0.100E-11
     TRS4 it   6 1.00000000   0.972E+00       0.013     2186.031   0.100E-11
     TRS4 it   7 1.00000000   0.120E+00       0.013     2173.707   0.100E-11
     TRS4 it   8 1.00000000   0.277E-02       0.013     2185.383   0.100E-11
     TRS4 it   9 1.00000000   0.209E-05       0.013     2184.915   0.100E-11
     TRS4 it  10 1.00000000   0.312E-11       0.013     2158.420   0.100E-11
     Final TRS4 iteration   10 1.00000000   0.312E-11
     Chemical potential (mu):       0.05087
 
 PAO| energy:  -191.66578117563733      penalty:   5.1623007478734928E-004
 PAO|LS| adapt:  T T T
 PAO|LS| adapt: scan_steps:    0.0000000000000000       0.28245930727318497       0.56491861454636993     
 PAO|LS| adapt: energies:   -191.27818291690716       -191.66578117563733       -190.30725455324347     
 PAO|LS| adapt: suggested step_size:   0.20392891234639468     
 PAO|LS| adapt: predicted energy  -191.73326646102251     
 PAO| ======================= Iteration:         9 =============================

     Lanczos converged:  F threshold:   0.100E-02
     Est. extremal eigenvalues:    0.491E+01   0.124E+00
     Est. condition number :    0.397E+02

 Order=           3
     NS sqrt iter    1 1.00000000   0.125E+01       0.021     2678.474
     NS sqrt iter    2 1.00000000   0.648E+00       0.034     3313.204
     NS sqrt iter    3 1.00000000   0.216E+00       0.034     3339.416
     NS sqrt iter    4 1.00000000   0.311E-01       0.034     3338.791
     NS sqrt iter    5 1.00000000   0.207E-03       0.034     3364.775
     NS sqrt iter    6 1.00000000   0.179E-09       0.027     2573.116
     Symmetrizing Results
     Final NS sqrt iter    6 1.00000000   0.103E-11

     Est. extremal eigenvalues     -0.83250     2.64451  converged:  T
     TRS4 it   1 1.00000000   0.285E+02       0.007     2129.449   0.100E-11
     TRS4 it   2 1.00000000   0.238E+02       0.013     2162.857   0.100E-11
     TRS4 it   3 1.00000000   0.155E+02       0.013     2180.103   0.100E-11
     TRS4 it   4 1.00000000   0.903E+01       0.013     2164.579   0.100E-11
     TRS4 it   5 1.00000000   0.377E+01       0.013     2169.404   0.100E-11
     TRS4 it   6 1.00000000   0.970E+00       0.013     2172.174   0.100E-11
     TRS4 it   7 1.00000000   0.120E+00       0.013     2180.768   0.100E-11
     TRS4 it   8 1.00000000   0.278E-02       0.013     2165.032   0.100E-11
     TRS4 it   9 1.00000000   0.209E-05       0.013     2156.711   0.100E-11
     TRS4 it  10 1.00000000   0.311E-11       0.013     2184.185   0.100E-11
     Final TRS4 iteration   10 1.00000000   0.311E-11
     Chemical potential (mu):       0.05067
 
 PAO| energy:  -191.73802943106074      penalty:   4.9692920059081643E-004
 PAO|CG| trace_G_new   0.77002571775525797     
 PAO|CG| trace_G_prev    4.5682663175100817     
 PAO|CG| trace_G_mix   -4.5994316042671096E-002
 PAO|CG| trace_D    4.5682663175100817     
 PAO|CG| trace_D_Gnew   4.5994316042671096E-002
 PAO|CG| beta:   0.17862794703324084     
 PAO| norm of gradient:  0.87751109266792626     
 PAO| energy improvement: -0.45984651415358258     
 PAO| step      9                 -191.738029431  0.171E-02  0.204E+00     1.548
 PAO|LS| adapt:  T F F
 PAO|LS| adapt: scan_steps:    0.0000000000000000        0.0000000000000000        0.0000000000000000     
 PAO|LS| adapt: energies:   -191.73802943106074        0.0000000000000000        0.0000000000000000     
 PAO| ======================= Iteration:        10 =============================

     Lanczos converged:  F threshold:   0.100E-02
     Est. extremal eigenvalues:    0.486E+01   0.127E+00
     Est. condition number :    0.382E+02

 Order=           3
     NS sqrt iter    1 1.00000000   0.124E+01       0.021     2691.114
     NS sqrt iter    2 1.00000000   0.640E+00       0.034     3342.780
     NS sqrt iter    3 1.00000000   0.210E+00       0.034     3332.178
     NS sqrt iter    4 1.00000000   0.288E-01       0.034     3338.135
     NS sqrt iter    5 1.00000000   0.165E-03       0.034     3337.732
     NS sqrt iter    6 1.00000000   0.907E-10       0.025     2415.201
     Symmetrizing Results
     Final NS sqrt iter    6 1.00000000   0.179E-11

     Est. extremal eigenvalues     -0.83309     2.62747  converged:  T
     TRS4 it   1 1.00000000   0.285E+02       0.007     2091.496   0.100E-11
     TRS4 it   2 1.00000000   0.237E+02       0.013     2189.098   0.100E-11
     TRS4 it   3 1.00000000   0.155E+02       0.013     2172.897   0.100E-11
     TRS4 it   4 1.00000000   0.902E+01       0.013     2172.688   0.100E-11
     TRS4 it   5 1.00000000   0.375E+01       0.013     2176.204   0.100E-11
     TRS4 it   6 1.00000000   0.958E+00       0.013     2168.657   0.100E-11
     TRS4 it   7 1.00000000   0.117E+00       0.013     2199.640   0.100E-11
     TRS4 it   8 1.00000000   0.263E-02       0.013     2185.284   0.100E-11
     TRS4 it   9 1.00000000   0.190E-05       0.013     2191.066   0.100E-11
     TRS4 it  10 1.00000000   0.258E-11       0.013     2187.430   0.100E-11
     Final TRS4 iteration   10 1.00000000   0.258E-11
     Chemical potential (mu):       0.05143
 
 PAO| energy:  -191.84402644786692      penalty:   5.0037609992169849E-004
 PAO|LS| adapt:  T T F
 PAO|LS| adapt: scan_steps:    0.0000000000000000       0.20392891234639468        0.0000000000000000     
 PAO|LS| adapt: energies:   -191.73802943106074       -191.84402644786692        0.0000000000000000     
 PAO| ======================= Iteration:        11 =============================

     Lanczos converged:  F threshold:   0.100E-02
     Est. extremal eigenvalues:    0.481E+01   0.130E+00
     Est. condition number :    0.371E+02

 Order=           3
     NS sqrt iter    1 1.00000000   0.123E+01       0.021     2683.523
     NS sqrt iter    2 1.00000000   0.632E+00       0.034     3340.659
     NS sqrt iter    3 1.00000000   0.205E+00       0.034     3352.439
     NS sqrt iter    4 1.00000000   0.267E-01       0.034     3342.028
     NS sqrt iter    5 1.00000000   0.131E-03       0.034     3341.512
     NS sqrt iter    6 1.00000000   0.453E-10       0.021     2272.355
     Symmetrizing Results
     Final NS sqrt iter    6 1.00000000   0.227E-11

     Est. extremal eigenvalues     -0.83323     2.61047  converged:  T
     TRS4 it   1 1.00000000   0.285E+02       0.007     2087.934   0.100E-11
     TRS4 it   2 1.00000000   0.236E+02       0.013     2170.036   0.100E-11
     TRS4 it   3 1.00000000   0.155E+02       0.013     2187.735   0.100E-11
     TRS4 it   4 1.00000000   0.899E+01       0.013     2175.966   0.100E-11
     TRS4 it   5 1.00000000   0.372E+01       0.013     2188.337   0.100E-11
     TRS4 it   6 1.00000000   0.943E+00       0.013     2183.435   0.100E-11
     TRS4 it   7 1.00000000   0.113E+00       0.013     2183.190   0.100E-11
     TRS4 it   8 1.00000000   0.247E-02       0.013     2185.940   0.100E-11
     TRS4 it   9 1.00000000   0.169E-05       0.013     2199.210   0.100E-11
     TRS4 it  10 1.00000000   0.207E-11       0.013     2211.164   0.100E-11
     Final TRS4 iteration   10 1.00000000   0.207E-11
     Chemical potential (mu):       0.05227
 
 PAO| energy:  -191.85413380380544      penalty:   5.1439445968806479E-004
 PAO|LS| adapt:  T T F
 PAO|LS| adapt: scan_steps:    0.0000000000000000       0.40785782469278936        0.0000000000000000     
 PAO|LS| adapt: energies:   -191.73802943106074       -191.85413380380544        0.0000000000000000     
 PAO| ======================= Iteration:        12 =============================

     Lanczos converged:  F threshold:   0.100E-02
     Est. extremal eigenvalues:    0.472E+01   0.135E+00
     Est. condition number :    0.349E+02

 Order=           3
     NS sqrt iter    1 1.00000000   0.122E+01       0.021     2690.928
     NS sqrt iter    2 1.00000000   0.616E+00       0.034     3350.839
     NS sqrt iter    3 1.00000000   0.194E+00       0.034     3336.943
     NS sqrt iter    4 1.00000000   0.229E-01       0.034     3325.591
     NS sqrt iter    5 1.00000000   0.821E-04       0.034     3360.142
     NS sqrt iter    6 1.00000000   0.109E-10       0.015     2116.370
     Symmetrizing Results
     Final NS sqrt iter    6 1.00000000   0.162E-11

     Est. extremal eigenvalues     -0.83229     2.57741  converged:  T
     TRS4 it   1 1.00000000   0.284E+02       0.007     2109.645   0.100E-11
     TRS4 it   2 1.00000000   0.234E+02       0.013     2202.560   0.100E-11
     TRS4 it   3 1.00000000   0.154E+02       0.013     2192.273   0.100E-11
     TRS4 it   4 1.00000000   0.892E+01       0.013     2176.605   0.100E-11
     TRS4 it   5 1.00000000   0.366E+01       0.013     2166.987   0.100E-11
     TRS4 it   6 1.00000000   0.908E+00       0.013     2184.234   0.100E-11
     TRS4 it   7 1.00000000   0.104E+00       0.013     2184.492   0.100E-11
     TRS4 it   8 1.00000000   0.213E-02       0.013     2205.321   0.100E-11
     TRS4 it   9 1.00000000   0.128E-05       0.013     2185.220   0.100E-11
     TRS4 it  10 1.00000000   0.118E-11       0.013     2179.837   0.100E-11
     Final TRS4 iteration   10 1.00000000   0.118E-11
     Chemical potential (mu):       0.05414
 
 PAO| energy:  -191.60453597468376      penalty:   5.8219099193870100E-004
 PAO|LS| Need extra step
 PAO|LS| adapt:  T T T
 PAO|LS| adapt: scan_steps:    0.0000000000000000       0.40785782469278936       0.81571564938557872     
 PAO|LS| adapt: energies:   -191.73802943106074       -191.85413380380544       -191.60453597468376     
 PAO|LS| adapt: suggested step_size:   0.33341699489908377     
 PAO|LS| adapt: predicted energy  -191.86022499726985     
 PAO| ======================= Iteration:        13 =============================

     Lanczos converged:  F threshold:   0.100E-02
     Est. extremal eigenvalues:    0.483E+01   0.129E+00
     Est. condition number :    0.375E+02

 Order=           3
     NS sqrt iter    1 1.00000000   0.124E+01       0.021     2685.745
     NS sqrt iter    2 1.00000000   0.635E+00       0.034     3328.979
     NS sqrt iter    3 1.00000000   0.207E+00       0.034     3349.638
     NS sqrt iter    4 1.00000000   0.275E-01       0.034     3340.503
     NS sqrt iter    5 1.00000000   0.142E-03       0.034     3356.299
     NS sqrt iter    6 1.00000000   0.585E-10       0.022     2350.086
     Symmetrizing Results
     Final NS sqrt iter    6 1.00000000   0.217E-11

     Est. extremal eigenvalues     -0.83323     2.61666  converged:  T
     TRS4 it   1 1.00000000   0.285E+02       0.007     2074.834   0.100E-11
     TRS4 it   2 1.00000000   0.236E+02       0.013     2182.331   0.100E-11
     TRS4 it   3 1.00000000   0.155E+02       0.013     2187.049   0.100E-11
     TRS4 it   4 1.00000000   0.900E+01       0.013     2196.142   0.100E-11
     TRS4 it   5 1.00000000   0.373E+01       0.013     2157.808   0.100E-11
     TRS4 it   6 1.00000000   0.949E+00       0.013     2187.062   0.100E-11
     TRS4 it   7 1.00000000   0.114E+00       0.013     2203.772   0.100E-11
     TRS4 it   8 1.00000000   0.253E-02       0.013     2170.453   0.100E-11
     TRS4 it   9 1.00000000   0.177E-05       0.013     2186.881   0.100E-11
     TRS4 it  10 1.00000000   0.226E-11       0.013     2178.366   0.100E-11
     Final TRS4 iteration   10 1.00000000   0.226E-11
     Chemical potential (mu):       0.05195
 
 PAO| energy:  -191.86128217284914      penalty:   5.0795973352915028E-004
 PAO|CG| trace_G_new   0.29373516334017069     
 PAO|CG| trace_G_prev   0.77002571775525797     
 PAO|CG| trace_G_mix   -1.3078197208128388E-002
 PAO|CG| trace_D   0.89935796063077689     
 PAO|CG| trace_D_Gnew   1.3172733556825779E-002
 PAO|CG| beta:   0.39844560184652877     
 PAO| norm of gradient:  0.54197339726242166     
 PAO| energy improvement: -0.12325274178840573     
 PAO| step     13                 -191.861282173  0.106E-02  0.333E+00     1.990
 PAO|LS| adapt:  T F F
 PAO|LS| adapt: scan_steps:    0.0000000000000000        0.0000000000000000        0.0000000000000000     
 PAO|LS| adapt: energies:   -191.86128217284914        0.0000000000000000        0.0000000000000000     
 PAO| ======================= Iteration:        14 =============================

     Lanczos converged:  F threshold:   0.100E-02
     Est. extremal eigenvalues:    0.476E+01   0.133E+00
     Est. condition number :    0.357E+02

 Order=           3
     NS sqrt iter    1 1.00000000   0.122E+01       0.021     2686.518
     NS sqrt iter    2 1.00000000   0.625E+00       0.034     3346.668
     NS sqrt iter    3 1.00000000   0.201E+00       0.034     3356.835
     NS sqrt iter    4 1.00000000   0.254E-01       0.034     3353.014
     NS sqrt iter    5 1.00000000   0.114E-03       0.034     3342.328
     NS sqrt iter    6 1.00000000   0.306E-10       0.019     2203.063
     Symmetrizing Results
     Final NS sqrt iter    6 1.00000000   0.221E-11

     Est. extremal eigenvalues     -0.83369     2.61042  converged:  T
     TRS4 it   1 1.00000000   0.285E+02       0.007     2097.428   0.100E-11
     TRS4 it   2 1.00000000   0.236E+02       0.013     2187.891   0.100E-11
     TRS4 it   3 1.00000000   0.155E+02       0.013     2174.413   0.100E-11
     TRS4 it   4 1.00000000   0.894E+01       0.013     2188.928   0.100E-11
     TRS4 it   5 1.00000000   0.368E+01       0.013     2167.138   0.100E-11
     TRS4 it   6 1.00000000   0.919E+00       0.013     2188.909   0.100E-11
     TRS4 it   7 1.00000000   0.107E+00       0.013     2191.881   0.100E-11
     TRS4 it   8 1.00000000   0.224E-02       0.013     2159.001   0.100E-11
     TRS4 it   9 1.00000000   0.139E-05       0.013     2177.141   0.100E-11
     TRS4 it  10 1.00000000   0.143E-11       0.013     2179.637   0.100E-11
     Final TRS4 iteration   10 1.00000000   0.143E-11
     Chemical potential (mu):       0.05376
 
 PAO| energy:  -191.91592222306792      penalty:   5.1204253424547619E-004
 PAO|LS| adapt:  T T F
 PAO|LS| adapt: scan_steps:    0.0000000000000000       0.33341699489908377        0.0000000000000000     
 PAO|LS| adapt: energies:   -191.86128217284914       -191.91592222306792        0.0000000000000000     
 PAO| ======================= Iteration:        15 =============================

     Lanczos converged:  F threshold:   0.100E-02
     Est. extremal eigenvalues:    0.470E+01   0.134E+00
     Est. condition number :    0.352E+02

 Order=           3
     NS sqrt iter    1 1.00000000   0.121E+01       0.021     2706.487
     NS sqrt iter    2 1.00000000   0.614E+00       0.034     3348.309
     NS sqrt iter    3 1.00000000   0.194E+00       0.034     3316.400
     NS sqrt iter    4 1.00000000   0.234E-01       0.034     3326.841
     NS sqrt iter    5 1.00000000   0.916E-04       0.034     3336.429
     NS sqrt iter    6 1.00000000   0.159E-10       0.016     2139.424
     Symmetrizing Results
     Final NS sqrt iter    6 1.00000000   0.189E-11

     Est. extremal eigenvalues     -0.83373     2.60386  converged:  T
     TRS4 it   1 1.00000000   0.286E+02       0.007     2080.214   0.100E-11
     TRS4 it   2 1.00000000   0.235E+02       0.013     2197.509   0.100E-11
     TRS4 it   3 1.00000000   0.154E+02       0.013     2188.776   0.100E-11
     TRS4 it   4 1.00000000   0.888E+01       0.013     2194.501   0.100E-11
     TRS4 it   5 1.00000000   0.362E+01       0.013     2179.851   0.100E-11
     TRS4 it   6 1.00000000   0.890E+00       0.013     2181.772   0.100E-11
     TRS4 it   7 1.00000000   0.101E+00       0.013     2173.775   0.100E-11
     TRS4 it   8 1.00000000   0.198E-02       0.013     2194.542   0.100E-11
     TRS4 it   9 1.00000000   0.110E-05       0.013     2171.629   0.100E-11
     TRS4 it  10 1.00000000   0.906E-12       0.013     2176.467   0.100E-11
     Final TRS4 iteration   10 1.00000000   0.906E-12
     Chemical potential (mu):       0.05549
 
 PAO| energy:  -191.88871918656170      penalty:   5.3283360982560378E-004
 PAO|LS| adapt:  T T T
 PAO|LS| adapt: scan_steps:    0.0000000000000000       0.33341699489908377       0.66683398979816755     
 PAO|LS| adapt: energies:   -191.86128217284914       -191.91592222306792       -191.88871918656170     
 PAO|LS| adapt: suggested step_size:   0.38930422390709762     
 PAO|LS| adapt: predicted energy  -191.91707196850089     
 PAO| ======================= Iteration:        16 =============================

     Lanczos converged:  F threshold:   0.100E-02
     Est. extremal eigenvalues:    0.475E+01   0.134E+00
     Est. condition number :    0.356E+02

 Order=           3
     NS sqrt iter    1 1.00000000   0.122E+01       0.021     2663.189
     NS sqrt iter    2 1.00000000   0.623E+00       0.034     3338.496
     NS sqrt iter    3 1.00000000   0.199E+00       0.034     3348.540
     NS sqrt iter    4 1.00000000   0.250E-01       0.034     3329.778
     NS sqrt iter    5 1.00000000   0.110E-03       0.034     3354.899
     NS sqrt iter    6 1.00000000   0.274E-10       0.019     2197.771
     Symmetrizing Results
     Final NS sqrt iter    6 1.00000000   0.218E-11

     Est. extremal eigenvalues     -0.83372     2.60934  converged:  T
     TRS4 it   1 1.00000000   0.286E+02       0.007     2119.853   0.100E-11
     TRS4 it   2 1.00000000   0.236E+02       0.013     2158.757   0.100E-11
     TRS4 it   3 1.00000000   0.154E+02       0.013     2180.487   0.100E-11
     TRS4 it   4 1.00000000   0.893E+01       0.013     2179.455   0.100E-11
     TRS4 it   5 1.00000000   0.367E+01       0.013     2177.776   0.100E-11
     TRS4 it   6 1.00000000   0.914E+00       0.013     2188.702   0.100E-11
     TRS4 it   7 1.00000000   0.106E+00       0.013     2184.754   0.100E-11
     TRS4 it   8 1.00000000   0.219E-02       0.013     2164.612   0.100E-11
     TRS4 it   9 1.00000000   0.134E-05       0.013     2150.674   0.100E-11
     TRS4 it  10 1.00000000   0.132E-11       0.013     2180.038   0.100E-11
     Final TRS4 iteration   10 1.00000000   0.132E-11
     Chemical potential (mu):       0.05405
 
 PAO| energy:  -191.91701996850273      penalty:   5.1431042595466263E-004
 PAO|CG| trace_G_new   0.11461994735579778     
 PAO|CG| trace_G_prev   0.29373516334017069     
 PAO|CG| trace_G_mix    4.9510128217747675E-003
 PAO|CG| trace_D   0.42601900624540873     
 PAO|CG| trace_D_Gnew   8.7945560405291729E-004
 PAO|CG| beta:   0.37335991131241214     
 PAO| norm of gradient:  0.33855567836885825     
 PAO| energy improvement:  -5.5737795653584499E-002
 PAO| step     16                 -191.917019969  0.661E-03  0.389E+00     1.525
 PAO|LS| adapt:  T F F
 PAO|LS| adapt: scan_steps:    0.0000000000000000        0.0000000000000000        0.0000000000000000     
 PAO|LS| adapt: energies:   -191.91701996850273        0.0000000000000000        0.0000000000000000     
 PAO| ======================= Iteration:        17 =============================

     Lanczos converged:  F threshold:   0.100E-02
     Est. extremal eigenvalues:    0.472E+01   0.131E+00
     Est. condition number :    0.359E+02

 Order=           3
     NS sqrt iter    1 1.00000000   0.121E+01       0.021     2685.645
     NS sqrt iter    2 1.00000000   0.618E+00       0.034     3357.047
     NS sqrt iter    3 1.00000000   0.197E+00       0.034     3348.679
     NS sqrt iter    4 1.00000000   0.242E-01       0.034     3335.211
     NS sqrt iter    5 1.00000000   0.100E-03       0.034     3352.122
     NS sqrt iter    6 1.00000000   0.209E-10       0.018     2151.532
     Symmetrizing Results
     Final NS sqrt iter    6 1.00000000   0.206E-11

     Est. extremal eigenvalues     -0.83379     2.60805  converged:  T
     TRS4 it   1 1.00000000   0.286E+02       0.007     2109.182   0.100E-11
     TRS4 it   2 1.00000000   0.236E+02       0.013     2192.411   0.100E-11
     TRS4 it   3 1.00000000   0.154E+02       0.013     2174.744   0.100E-11
     TRS4 it   4 1.00000000   0.889E+01       0.013     2163.059   0.100E-11
     TRS4 it   5 1.00000000   0.363E+01       0.013     2169.113   0.100E-11
     TRS4 it   6 1.00000000   0.894E+00       0.013     2187.827   0.100E-11
     TRS4 it   7 1.00000000   0.102E+00       0.013     2188.347   0.100E-11
     TRS4 it   8 1.00000000   0.202E-02       0.013     2186.951   0.100E-11
     TRS4 it   9 1.00000000   0.115E-05       0.013     2162.156   0.100E-11
     TRS4 it  10 1.00000000   0.961E-12       0.013     2160.375   0.100E-11
     Final TRS4 iteration   10 1.00000000   0.961E-12
     Chemical potential (mu):       0.05517
 
 PAO| energy:  -191.92189032728808      penalty:   5.0860071285771286E-004
 PAO|LS| adapt:  T T F
 PAO|LS| adapt: scan_steps:    0.0000000000000000       0.38930422390709762        0.0000000000000000     
 PAO|LS| adapt: energies:   -191.91701996850273       -191.92189032728808        0.0000000000000000     
 PAO| ======================= Iteration:        18 =============================

     Lanczos converged:  F threshold:   0.100E-02
     Est. extremal eigenvalues:    0.468E+01   0.132E+00
     Est. condition number :    0.356E+02

 Order=           3
     NS sqrt iter    1 1.00000000   0.120E+01       0.021     2678.160
     NS sqrt iter    2 1.00000000   0.613E+00       0.034     3345.747
     NS sqrt iter    3 1.00000000   0.194E+00       0.034     3343.206
     NS sqrt iter    4 1.00000000   0.234E-01       0.034     3318.316
     NS sqrt iter    5 1.00000000   0.914E-04       0.034     3352.526
     NS sqrt iter    6 1.00000000   0.163E-10       0.016     2132.107
     Symmetrizing Results
     Final NS sqrt iter    6 1.00000000   0.190E-11

     Est. extremal eigenvalues     -0.83361     2.60674  converged:  T
     TRS4 it   1 1.00000000   0.286E+02       0.007     2089.384   0.100E-11
     TRS4 it   2 1.00000000   0.235E+02       0.013     2186.961   0.100E-11
     TRS4 it   3 1.00000000   0.154E+02       0.013     2172.254   0.100E-11
     TRS4 it   4 1.00000000   0.884E+01       0.013     2154.109   0.100E-11
     TRS4 it   5 1.00000000   0.358E+01       0.013     2183.351   0.100E-11
     TRS4 it   6 1.00000000   0.875E+00       0.013     2194.982   0.100E-11
     TRS4 it   7 1.00000000   0.981E-01       0.013     2182.870   0.100E-11
     TRS4 it   8 1.00000000   0.187E-02       0.013     2191.866   0.100E-11
     TRS4 it   9 1.00000000   0.980E-06       0.013     2188.046   0.100E-11
     TRS4 it  10 1.00000000   0.679E-12       0.013     2182.467   0.100E-11
     Final TRS4 iteration   10 1.00000000   0.679E-12
     Chemical potential (mu):       0.05634
 
 PAO| energy:  -191.84735915096121      penalty:   5.1139417152988391E-004
 PAO|LS| adapt:  T T T
 PAO|LS| adapt: scan_steps:    0.0000000000000000       0.38930422390709762       0.77860844781419525     
 PAO|LS| adapt: energies:   -191.91701996850273       -191.92189032728808       -191.84735915096121     
 PAO|LS| adapt: suggested step_size:   0.21853138890205381     
 PAO|LS| adapt: predicted energy  -191.92952970965911     
 PAO| ======================= Iteration:        19 =============================

     Lanczos converged:  F threshold:   0.100E-02
     Est. extremal eigenvalues:    0.473E+01   0.132E+00
     Est. condition number :    0.359E+02

 Order=           3
     NS sqrt iter    1 1.00000000   0.122E+01       0.021     2676.282
     NS sqrt iter    2 1.00000000   0.620E+00       0.034     3319.944
     NS sqrt iter    3 1.00000000   0.198E+00       0.034     3331.031
     NS sqrt iter    4 1.00000000   0.245E-01       0.034     3304.886
     NS sqrt iter    5 1.00000000   0.104E-03       0.034     3366.233
     NS sqrt iter    6 1.00000000   0.235E-10       0.018     2181.850
     Symmetrizing Results
     Final NS sqrt iter    6 1.00000000   0.211E-11

     Est. extremal eigenvalues     -0.83379     2.60862  converged:  T
     TRS4 it   1 1.00000000   0.286E+02       0.007     2108.351   0.100E-11
     TRS4 it   2 1.00000000   0.236E+02       0.013     2168.921   0.100E-11
     TRS4 it   3 1.00000000   0.154E+02       0.013     2174.770   0.100E-11
     TRS4 it   4 1.00000000   0.891E+01       0.013     2188.547   0.100E-11
     TRS4 it   5 1.00000000   0.364E+01       0.013     2200.084   0.100E-11
     TRS4 it   6 1.00000000   0.903E+00       0.013     2161.952   0.100E-11
     TRS4 it   7 1.00000000   0.104E+00       0.013     2165.370   0.100E-11
     TRS4 it   8 1.00000000   0.210E-02       0.013     2176.274   0.100E-11
     TRS4 it   9 1.00000000   0.123E-05       0.013     2190.547   0.100E-11
     TRS4 it  10 1.00000000   0.109E-11       0.013     2176.553   0.100E-11
     Final TRS4 iteration   10 1.00000000   0.109E-11
     Chemical potential (mu):       0.05467
 
 PAO| energy:  -191.92951793376477      penalty:   5.1008101234142791E-004
 PAO|CG| trace_G_new    2.0437761616758414E-002
 PAO|CG| trace_G_prev   0.11461994735579778     
 PAO|CG| trace_G_mix   -4.2887932011121771E-004
 PAO|CG| trace_D   0.17334927740641268     
 PAO|CG| trace_D_Gnew  -4.4580068207335569E-005
 PAO|CG| beta:   0.18205069377755340     
 PAO| norm of gradient:  0.14296069955326329     
 PAO| energy improvement:  -1.2497965262042499E-002
 PAO| step     19                 -191.929517934  0.279E-03  0.219E+00     1.522
 PAO|LS| adapt:  T F F
 PAO|LS| adapt: scan_steps:    0.0000000000000000        0.0000000000000000        0.0000000000000000     
 PAO|LS| adapt: energies:   -191.92951793376477        0.0000000000000000        0.0000000000000000     
 PAO| ======================= Iteration:        20 =============================

     Lanczos converged:  F threshold:   0.100E-02
     Est. extremal eigenvalues:    0.473E+01   0.131E+00
     Est. condition number :    0.360E+02

 Order=           3
     NS sqrt iter    1 1.00000000   0.121E+01       0.021     2671.082
     NS sqrt iter    2 1.00000000   0.619E+00       0.034     3337.958
     NS sqrt iter    3 1.00000000   0.198E+00       0.034     3346.600
     NS sqrt iter    4 1.00000000   0.245E-01       0.034     3331.762
     NS sqrt iter    5 1.00000000   0.104E-03       0.034     3345.693
     NS sqrt iter    6 1.00000000   0.232E-10       0.018     2174.190
     Symmetrizing Results
     Final NS sqrt iter    6 1.00000000   0.210E-11

     Est. extremal eigenvalues     -0.83380     2.60732  converged:  T
     TRS4 it   1 1.00000000   0.286E+02       0.007     2073.093   0.100E-11
     TRS4 it   2 1.00000000   0.235E+02       0.013     2173.456   0.100E-11
     TRS4 it   3 1.00000000   0.154E+02       0.013     2164.347   0.100E-11
     TRS4 it   4 1.00000000   0.890E+01       0.013     2179.562   0.100E-11
     TRS4 it   5 1.00000000   0.363E+01       0.013     2189.315   0.100E-11
     TRS4 it   6 1.00000000   0.899E+00       0.013     2183.860   0.100E-11
     TRS4 it   7 1.00000000   0.103E+00       0.013     2174.749   0.100E-11
     TRS4 it   8 1.00000000   0.207E-02       0.013     2174.170   0.100E-11
     TRS4 it   9 1.00000000   0.119E-05       0.013     2174.832   0.100E-11
     TRS4 it  10 1.00000000   0.104E-11       0.013     2194.596   0.100E-11
     Final TRS4 iteration   10 1.00000000   0.104E-11
     Chemical potential (mu):       0.05484
 
 PAO| energy:  -191.93312959630961      penalty:   5.0063714863205985E-004
 PAO|LS| adapt:  T T F
 PAO|LS| adapt: scan_steps:    0.0000000000000000       0.21853138890205381        0.0000000000000000     
 PAO|LS| adapt: energies:   -191.92951793376477       -191.93312959630961        0.0000000000000000     
 PAO| ======================= Iteration:        21 =============================

     Lanczos converged:  F threshold:   0.100E-02
     Est. extremal eigenvalues:    0.472E+01   0.131E+00
     Est. condition number :    0.361E+02

 Order=           3
     NS sqrt iter    1 1.00000000   0.121E+01       0.021     2674.069
     NS sqrt iter    2 1.00000000   0.619E+00       0.034     3349.879
     NS sqrt iter    3 1.00000000   0.198E+00       0.034     3345.748
     NS sqrt iter    4 1.00000000   0.245E-01       0.034     3342.614
     NS sqrt iter    5 1.00000000   0.104E-03       0.034     3356.944
     NS sqrt iter    6 1.00000000   0.230E-10       0.018     2179.912
     Symmetrizing Results
     Final NS sqrt iter    6 1.00000000   0.213E-11

     Est. extremal eigenvalues     -0.83381     2.60601  converged:  T
     TRS4 it   1 1.00000000   0.286E+02       0.007     2104.590   0.100E-11
     TRS4 it   2 1.00000000   0.235E+02       0.013     2176.919   0.100E-11
     TRS4 it   3 1.00000000   0.154E+02       0.013     2173.490   0.100E-11
     TRS4 it   4 1.00000000   0.888E+01       0.013     2183.028   0.100E-11
     TRS4 it   5 1.00000000   0.363E+01       0.013     2183.076   0.100E-11
     TRS4 it   6 1.00000000   0.895E+00       0.013     2170.289   0.100E-11
     TRS4 it   7 1.00000000   0.103E+00       0.013     2192.271   0.100E-11
     TRS4 it   8 1.00000000   0.204E-02       0.013     2163.262   0.100E-11
     TRS4 it   9 1.00000000   0.116E-05       0.013     2171.967   0.100E-11
     TRS4 it  10 1.00000000   0.100E-11       0.013     2189.015   0.100E-11
     Final TRS4 iteration   10 1.00000000   0.100E-11
     Chemical potential (mu):       0.05501
 
 PAO| energy:  -191.93501619800162      penalty:   4.9158159045202348E-004
 PAO|LS| adapt:  T T F
 PAO|LS| adapt: scan_steps:    0.0000000000000000       0.43706277780410763        0.0000000000000000     
 PAO|LS| adapt: energies:   -191.92951793376477       -191.93501619800162        0.0000000000000000     
 PAO| ======================= Iteration:        22 =============================

     Lanczos converged:  F threshold:   0.100E-02
     Est. extremal eigenvalues:    0.472E+01   0.130E+00
     Est. condition number :    0.361E+02

 Order=           3
     NS sqrt iter    1 1.00000000   0.121E+01       0.021     2689.309
     NS sqrt iter    2 1.00000000   0.618E+00       0.034     3331.303
     NS sqrt iter    3 1.00000000   0.198E+00       0.034     3351.603
     NS sqrt iter    4 1.00000000   0.245E-01       0.034     3328.330
     NS sqrt iter    5 1.00000000   0.103E-03       0.034     3343.847
     NS sqrt iter    6 1.00000000   0.226E-10       0.018     2173.974
     Symmetrizing Results
     Final NS sqrt iter    6 1.00000000   0.211E-11

     Est. extremal eigenvalues     -0.83381     2.60337  converged:  T
     TRS4 it   1 1.00000000   0.286E+02       0.007     2112.260   0.100E-11
     TRS4 it   2 1.00000000   0.235E+02       0.013     2194.051   0.100E-11
     TRS4 it   3 1.00000000   0.154E+02       0.013     2174.883   0.100E-11
     TRS4 it   4 1.00000000   0.886E+01       0.013     2184.254   0.100E-11
     TRS4 it   5 1.00000000   0.361E+01       0.013     2161.026   0.100E-11
     TRS4 it   6 1.00000000   0.888E+00       0.013     2188.244   0.100E-11
     TRS4 it   7 1.00000000   0.101E+00       0.013     2201.321   0.100E-11
     TRS4 it   8 1.00000000   0.199E-02       0.013     2191.743   0.100E-11
     TRS4 it   9 1.00000000   0.110E-05       0.013     2174.767   0.100E-11
     TRS4 it  10 1.00000000   0.828E-12       0.013     2183.879   0.100E-11
     Final TRS4 iteration   10 1.00000000   0.828E-12
     Chemical potential (mu):       0.05535
 
 PAO| energy:  -191.93354022151726      penalty:   4.7461175869997502E-004
 PAO|LS| Need extra step
 PAO|LS| adapt:  T T T
 PAO|LS| adapt: scan_steps:    0.0000000000000000       0.43706277780410763       0.87412555560821525     
 PAO|LS| adapt: energies:   -191.92951793376477       -191.93501619800162       -191.93354022151726     
 PAO|LS| adapt: suggested step_size:   0.56309744799306505     
 PAO|LS| adapt: predicted energy  -191.93530617219756     
 PAO| ======================= Iteration:        23 =============================

     Lanczos converged:  F threshold:   0.100E-02
     Est. extremal eigenvalues:    0.472E+01   0.131E+00
     Est. condition number :    0.361E+02

 Order=           3
     NS sqrt iter    1 1.00000000   0.121E+01       0.021     2681.271
     NS sqrt iter    2 1.00000000   0.619E+00       0.034     3341.135
     NS sqrt iter    3 1.00000000   0.198E+00       0.034     3349.874
     NS sqrt iter    4 1.00000000   0.245E-01       0.034     3360.899
     NS sqrt iter    5 1.00000000   0.103E-03       0.034     3333.396
     NS sqrt iter    6 1.00000000   0.229E-10       0.018     2188.097
     Symmetrizing Results
     Final NS sqrt iter    6 1.00000000   0.212E-11

     Est. extremal eigenvalues     -0.83381     2.60525  converged:  T
     TRS4 it   1 1.00000000   0.286E+02       0.007     2100.474   0.100E-11
     TRS4 it   2 1.00000000   0.235E+02       0.013     2157.620   0.100E-11
     TRS4 it   3 1.00000000   0.154E+02       0.013     2150.755   0.100E-11
     TRS4 it   4 1.00000000   0.888E+01       0.013     2182.763   0.100E-11
     TRS4 it   5 1.00000000   0.362E+01       0.013     2148.544   0.100E-11
     TRS4 it   6 1.00000000   0.893E+00       0.013     2174.365   0.100E-11
     TRS4 it   7 1.00000000   0.102E+00       0.013     2187.666   0.100E-11
     TRS4 it   8 1.00000000   0.202E-02       0.013     2190.459   0.100E-11
     TRS4 it   9 1.00000000   0.114E-05       0.013     2181.972   0.100E-11
     TRS4 it  10 1.00000000   0.986E-12       0.013     2195.203   0.100E-11
     Final TRS4 iteration   10 1.00000000   0.986E-12
     Chemical potential (mu):       0.05510
 
 PAO| energy:  -191.93531270955140      penalty:   4.8653300066076483E-004
 PAO|CG| trace_G_new    1.5555313585196063E-002
 PAO|CG| trace_G_prev    2.0437761616758414E-002
 PAO|CG| trace_G_mix    1.0279824619787636E-004
 PAO|CG| trace_D    2.6199213925356905E-002
 PAO|CG| trace_D_Gnew  -4.2506303082784770E-005
 PAO|CG| beta:   0.75607669904161823     
 PAO| norm of gradient:  0.12472094284921062     
 PAO| energy improvement:  -5.7947757866259053E-003
 PAO| step     23                 -191.935312710  0.244E-03  0.563E+00     1.976
 PAO|LS| adapt:  T F F
 PAO|LS| adapt: scan_steps:    0.0000000000000000        0.0000000000000000        0.0000000000000000     
 PAO|LS| adapt: energies:   -191.93531270955140        0.0000000000000000        0.0000000000000000     
 PAO| ======================= Iteration:        24 =============================

     Lanczos converged:  F threshold:   0.100E-02
     Est. extremal eigenvalues:    0.471E+01   0.131E+00
     Est. condition number :    0.361E+02

 Order=           3
     NS sqrt iter    1 1.00000000   0.121E+01       0.021     2688.668
     NS sqrt iter    2 1.00000000   0.618E+00       0.034     3342.532
     NS sqrt iter    3 1.00000000   0.197E+00       0.035     3269.388
     NS sqrt iter    4 1.00000000   0.245E-01       0.034     3369.152
     NS sqrt iter    5 1.00000000   0.103E-03       0.034     3354.011
     NS sqrt iter    6 1.00000000   0.228E-10       0.018     2184.857
     Symmetrizing Results
     Final NS sqrt iter    6 1.00000000   0.211E-11

     Est. extremal eigenvalues     -0.83382     2.60108  converged:  T
     TRS4 it   1 1.00000000   0.286E+02       0.007     2122.746   0.100E-11
     TRS4 it   2 1.00000000   0.235E+02       0.013     2203.337   0.100E-11
     TRS4 it   3 1.00000000   0.154E+02       0.013     2176.453   0.100E-11
     TRS4 it   4 1.00000000   0.885E+01       0.013     2181.903   0.100E-11
     TRS4 it   5 1.00000000   0.360E+01       0.013     2202.896   0.100E-11
     TRS4 it   6 1.00000000   0.885E+00       0.013     2163.767   0.100E-11
     TRS4 it   7 1.00000000   0.100E+00       0.013     2178.241   0.100E-11
     TRS4 it   8 1.00000000   0.196E-02       0.013     2203.723   0.100E-11
     TRS4 it   9 1.00000000   0.108E-05       0.013     2175.903   0.100E-11
     TRS4 it  10 1.00000000   0.885E-12       0.013     2146.172   0.100E-11
     Final TRS4 iteration   10 1.00000000   0.885E-12
     Chemical potential (mu):       0.05544
 
 PAO| energy:  -191.93793247538974      penalty:   4.4922624960282067E-004
 PAO|LS| adapt:  T T F
 PAO|LS| adapt: scan_steps:    0.0000000000000000       0.56309744799306505        0.0000000000000000     
 PAO|LS| adapt: energies:   -191.93531270955140       -191.93793247538974        0.0000000000000000     
 PAO| ======================= Iteration:        25 =============================

     Lanczos converged:  F threshold:   0.100E-02
     Est. extremal eigenvalues:    0.470E+01   0.131E+00
     Est. condition number :    0.360E+02

 Order=           3
     NS sqrt iter    1 1.00000000   0.121E+01       0.021     2693.749
     NS sqrt iter    2 1.00000000   0.617E+00       0.034     3350.591
     NS sqrt iter    3 1.00000000   0.197E+00       0.034     3345.108
     NS sqrt iter    4 1.00000000   0.245E-01       0.034     3337.444
     NS sqrt iter    5 1.00000000   0.103E-03       0.034     3335.563
     NS sqrt iter    6 1.00000000   0.229E-10       0.018     2210.517
     Symmetrizing Results
     Final NS sqrt iter    6 1.00000000   0.209E-11

     Est. extremal eigenvalues     -0.83382     2.59679  converged:  T
     TRS4 it   1 1.00000000   0.286E+02       0.007     2103.048   0.100E-11
     TRS4 it   2 1.00000000   0.235E+02       0.013     2166.846   0.100E-11
     TRS4 it   3 1.00000000   0.154E+02       0.013     2160.744   0.100E-11
     TRS4 it   4 1.00000000   0.883E+01       0.013     2160.096   0.100E-11
     TRS4 it   5 1.00000000   0.358E+01       0.013     2170.370   0.100E-11
     TRS4 it   6 1.00000000   0.876E+00       0.013     2198.794   0.100E-11
     TRS4 it   7 1.00000000   0.988E-01       0.013     2169.627   0.100E-11
     TRS4 it   8 1.00000000   0.191E-02       0.013     2179.145   0.100E-11
     TRS4 it   9 1.00000000   0.102E-05       0.013     2170.330   0.100E-11
     TRS4 it  10 1.00000000   0.782E-12       0.013     2188.584   0.100E-11
     Final TRS4 iteration   10 1.00000000   0.782E-12
     Chemical potential (mu):       0.05578
 
 PAO| energy:  -191.92804064658290      penalty:   4.1561637223230932E-004
 PAO|LS| adapt:  T T T
 PAO|LS| adapt: scan_steps:    0.0000000000000000       0.56309744799306505        1.1261948959861301     
 PAO|LS| adapt: energies:   -191.93531270955140       -191.93793247538974       -191.92804064658290     
 PAO|LS| adapt: suggested step_size:   0.39945403500974974     
 PAO|LS| adapt: predicted energy  -191.93846081431570     
 PAO| ======================= Iteration:        26 =============================

     Lanczos converged:  F threshold:   0.100E-02
     Est. extremal eigenvalues:    0.471E+01   0.131E+00
     Est. condition number :    0.361E+02

 Order=           3
     NS sqrt iter    1 1.00000000   0.121E+01       0.021     2664.038
     NS sqrt iter    2 1.00000000   0.618E+00       0.034     3339.221
     NS sqrt iter    3 1.00000000   0.198E+00       0.034     3338.374
     NS sqrt iter    4 1.00000000   0.245E-01       0.034     3330.728
     NS sqrt iter    5 1.00000000   0.103E-03       0.034     3349.648
     NS sqrt iter    6 1.00000000   0.228E-10       0.018     2181.243
     Symmetrizing Results
     Final NS sqrt iter    6 1.00000000   0.212E-11

     Est. extremal eigenvalues     -0.83382     2.60231  converged:  T
     TRS4 it   1 1.00000000   0.286E+02       0.007     2097.162   0.100E-11
     TRS4 it   2 1.00000000   0.235E+02       0.013     2188.554   0.100E-11
     TRS4 it   3 1.00000000   0.154E+02       0.013     2184.883   0.100E-11
     TRS4 it   4 1.00000000   0.886E+01       0.013     2173.247   0.100E-11
     TRS4 it   5 1.00000000   0.361E+01       0.013     2180.689   0.100E-11
     TRS4 it   6 1.00000000   0.887E+00       0.013     2195.783   0.100E-11
     TRS4 it   7 1.00000000   0.101E+00       0.013     2183.595   0.100E-11
     TRS4 it   8 1.00000000   0.198E-02       0.013     2189.143   0.100E-11
     TRS4 it   9 1.00000000   0.110E-05       0.013     2174.961   0.100E-11
     TRS4 it  10 1.00000000   0.899E-12       0.013     2185.423   0.100E-11
     Final TRS4 iteration   10 1.00000000   0.899E-12
     Chemical potential (mu):       0.05534
 
 PAO| energy:  -191.93844768587874      penalty:   4.5967980900018493E-004
 PAO|CG| trace_G_new    1.1171464886817492E-002
 PAO|CG| trace_G_prev    1.5555313585196063E-002
 PAO|CG| trace_G_mix    2.1450647043142862E-004
 PAO|CG| trace_D    3.0596422015362709E-002
 PAO|CG| trace_D_Gnew  -6.5301877211998980E-005
 PAO|CG| beta:   0.70438685510099663     
 PAO| norm of gradient:  0.10569515072517514     
 PAO| energy improvement:  -3.1349763273453846E-003
 PAO| step     26                 -191.938447686  0.206E-03  0.399E+00     1.523
 PAO|LS| adapt:  T F F
 PAO|LS| adapt: scan_steps:    0.0000000000000000        0.0000000000000000        0.0000000000000000     
 PAO|LS| adapt: energies:   -191.93844768587874        0.0000000000000000        0.0000000000000000     
 PAO| ======================= Iteration:        27 =============================

     Lanczos converged:  F threshold:   0.100E-02
     Est. extremal eigenvalues:    0.470E+01   0.131E+00
     Est. condition number :    0.359E+02

 Order=           3
     NS sqrt iter    1 1.00000000   0.121E+01       0.021     2683.551
     NS sqrt iter    2 1.00000000   0.617E+00       0.034     3335.906
     NS sqrt iter    3 1.00000000   0.197E+00       0.034     3317.545
     NS sqrt iter    4 1.00000000   0.244E-01       0.034     3317.770
     NS sqrt iter    5 1.00000000   0.103E-03       0.034     3337.172
     NS sqrt iter    6 1.00000000   0.230E-10       0.018     2177.094
     Symmetrizing Results
     Final NS sqrt iter    6 1.00000000   0.211E-11

     Est. extremal eigenvalues     -0.83383     2.59999  converged:  T
     TRS4 it   1 1.00000000   0.286E+02       0.007     2049.915   0.100E-11
     TRS4 it   2 1.00000000   0.235E+02       0.013     2194.332   0.100E-11
     TRS4 it   3 1.00000000   0.154E+02       0.013     2184.532   0.100E-11
     TRS4 it   4 1.00000000   0.884E+01       0.013     2164.076   0.100E-11
     TRS4 it   5 1.00000000   0.359E+01       0.013     2168.047   0.100E-11
     TRS4 it   6 1.00000000   0.881E+00       0.013     2174.185   0.100E-11
     TRS4 it   7 1.00000000   0.996E-01       0.013     2192.013   0.100E-11
     TRS4 it   8 1.00000000   0.193E-02       0.013     2166.560   0.100E-11
     TRS4 it   9 1.00000000   0.105E-05       0.013     2202.829   0.100E-11
     TRS4 it  10 1.00000000   0.826E-12       0.013     2165.998   0.100E-11
     Final TRS4 iteration   10 1.00000000   0.826E-12
     Chemical potential (mu):       0.05564
 
 PAO| energy:  -191.94072817945363      penalty:   4.2760608957475866E-004
 PAO|LS| adapt:  T T F
 PAO|LS| adapt: scan_steps:    0.0000000000000000       0.39945403500974974        0.0000000000000000     
 PAO|LS| adapt: energies:   -191.93844768587874       -191.94072817945363        0.0000000000000000     
 PAO| ======================= Iteration:        28 =============================

     Lanczos converged:  F threshold:   0.100E-02
     Est. extremal eigenvalues:    0.469E+01   0.133E+00
     Est. condition number :    0.352E+02

 Order=           3
     NS sqrt iter    1 1.00000000   0.121E+01       0.021     2678.434
     NS sqrt iter    2 1.00000000   0.616E+00       0.034     3359.298
     NS sqrt iter    3 1.00000000   0.197E+00       0.034     3331.389
     NS sqrt iter    4 1.00000000   0.244E-01       0.034     3322.349
     NS sqrt iter    5 1.00000000   0.104E-03       0.034     3344.671
     NS sqrt iter    6 1.00000000   0.235E-10       0.018     2198.327
     Symmetrizing Results
     Final NS sqrt iter    6 1.00000000   0.210E-11

     Est. extremal eigenvalues     -0.83383     2.59760  converged:  T
     TRS4 it   1 1.00000000   0.286E+02       0.007     2109.017   0.100E-11
     TRS4 it   2 1.00000000   0.235E+02       0.013     2183.545   0.100E-11
     TRS4 it   3 1.00000000   0.154E+02       0.013     2211.815   0.100E-11
     TRS4 it   4 1.00000000   0.883E+01       0.013     2204.010   0.100E-11
     TRS4 it   5 1.00000000   0.358E+01       0.013     2168.102   0.100E-11
     TRS4 it   6 1.00000000   0.874E+00       0.013     2182.877   0.100E-11
     TRS4 it   7 1.00000000   0.982E-01       0.013     2187.916   0.100E-11
     TRS4 it   8 1.00000000   0.189E-02       0.013     2170.806   0.100E-11
     TRS4 it   9 1.00000000   0.100E-05       0.013     2188.298   0.100E-11
     TRS4 it  10 1.00000000   0.741E-12       0.013     2190.569   0.100E-11
     Final TRS4 iteration   10 1.00000000   0.741E-12
     Chemical potential (mu):       0.05593
 
 PAO| energy:  -191.93857277288890      penalty:   3.9777649268662421E-004
 PAO|LS| adapt:  T T T
 PAO|LS| adapt: scan_steps:    0.0000000000000000       0.39945403500974974       0.79890807001949948     
 PAO|LS| adapt: energies:   -191.93844768587874       -191.94072817945363       -191.93857277288890     
 PAO|LS| adapt: suggested step_size:   0.40508609494839737     
 PAO|LS| adapt: predicted energy  -191.94072862036640     
 PAO| ======================= Iteration:        29 =============================

     Lanczos converged:  F threshold:   0.100E-02
     Est. extremal eigenvalues:    0.470E+01   0.131E+00
     Est. condition number :    0.359E+02

 Order=           3
     NS sqrt iter    1 1.00000000   0.121E+01       0.021     2680.560
     NS sqrt iter    2 1.00000000   0.617E+00       0.034     3342.694
     NS sqrt iter    3 1.00000000   0.197E+00       0.034     3334.899
     NS sqrt iter    4 1.00000000   0.244E-01       0.034     3330.705
     NS sqrt iter    5 1.00000000   0.103E-03       0.034     3355.003
     NS sqrt iter    6 1.00000000   0.230E-10       0.018     2180.544
     Symmetrizing Results
     Final NS sqrt iter    6 1.00000000   0.211E-11

     Est. extremal eigenvalues     -0.83383     2.59996  converged:  T
     TRS4 it   1 1.00000000   0.286E+02       0.007     2147.117   0.100E-11
     TRS4 it   2 1.00000000   0.235E+02       0.013     2160.440   0.100E-11
     TRS4 it   3 1.00000000   0.154E+02       0.013     2169.388   0.100E-11
     TRS4 it   4 1.00000000   0.884E+01       0.013     2180.211   0.100E-11
     TRS4 it   5 1.00000000   0.359E+01       0.013     2169.826   0.100E-11
     TRS4 it   6 1.00000000   0.881E+00       0.013     2195.767   0.100E-11
     TRS4 it   7 1.00000000   0.996E-01       0.013     2169.723   0.100E-11
     TRS4 it   8 1.00000000   0.193E-02       0.013     2157.455   0.100E-11
     TRS4 it   9 1.00000000   0.105E-05       0.013     2178.793   0.100E-11
[...]
     TRS4 it   4 1.00000000   0.919E+01       0.013     2171.357   0.100E-11
     TRS4 it   5 1.00000000   0.408E+01       0.013     2171.576   0.100E-11
     TRS4 it   6 1.00000000   0.124E+01       0.013     2159.583   0.100E-11
     TRS4 it   7 1.00000000   0.212E+00       0.013     2174.524   0.100E-11
     TRS4 it   8 1.00000000   0.101E-01       0.013     2154.177   0.100E-11
     TRS4 it   9 1.00000000   0.313E-04       0.013     2160.437   0.100E-11
     TRS4 it  10 1.00000000   0.603E-09       0.013     2193.828   0.100E-11
     TRS4 it  11 1.00000000   0.533E-14       0.013     2183.317   0.100E-11
     Final TRS4 iteration   11 1.00000000   0.533E-14
     Chemical potential (mu):       0.02514
 
 PAO| energy:  -191.55680344446927      penalty:   9.8462034862722938E-009
 PAO| Writing restart file.
     Est. extremal eigenvalues     -0.83364     2.60599  converged:  T
     TRS4 it   1 1.00000000   0.289E+02       0.007     2114.086   0.100E-11
     TRS4 it   2 1.00000000   0.238E+02       0.013     2181.119   0.100E-11
     TRS4 it   3 1.00000000   0.156E+02       0.013     2165.716   0.100E-11
     TRS4 it   4 1.00000000   0.919E+01       0.013     2175.550   0.100E-11
     TRS4 it   5 1.00000000   0.408E+01       0.013     2189.487   0.100E-11
     TRS4 it   6 1.00000000   0.124E+01       0.013     2177.839   0.100E-11
     TRS4 it   7 1.00000000   0.212E+00       0.013     2150.960   0.100E-11
     TRS4 it   8 1.00000000   0.101E-01       0.013     2178.326   0.100E-11
     TRS4 it   9 1.00000000   0.313E-04       0.013     2173.437   0.100E-11
     TRS4 it  10 1.00000000   0.603E-09       0.013     2185.452   0.100E-11
     TRS4 it  11 1.00000000   0.533E-14       0.013     2186.461   0.100E-11
     Final TRS4 iteration   11 1.00000000   0.533E-14
     Chemical potential (mu):       0.02514

 SCF     1     -1103.039274862     -1103.039274862    1.777924

*********************************************************
 Using MIXING_FRACTION=0.450 to mix KS matrix:  iscf=  2
 KS_nw=0.450*KS + 0.550*KS_old
*********************************************************
     Est. extremal eigenvalues     -0.83364     2.60599  converged:  T
     TRS4 it   1 1.00000000   0.289E+02       0.007     2103.862   0.100E-11
     TRS4 it   2 1.00000000   0.238E+02       0.013     2161.353   0.100E-11
     TRS4 it   3 1.00000000   0.156E+02       0.013     2150.934   0.100E-11
     TRS4 it   4 1.00000000   0.919E+01       0.013     2190.179   0.100E-11
     TRS4 it   5 1.00000000   0.408E+01       0.013     2174.277   0.100E-11
     TRS4 it   6 1.00000000   0.124E+01       0.013     2134.646   0.100E-11
     TRS4 it   7 1.00000000   0.212E+00       0.013     2184.130   0.100E-11
     TRS4 it   8 1.00000000   0.101E-01       0.013     2170.561   0.100E-11
     TRS4 it   9 1.00000000   0.313E-04       0.013     2164.321   0.100E-11
     TRS4 it  10 1.00000000   0.603E-09       0.013     2162.966   0.100E-11
     TRS4 it  11 1.00000000   0.533E-14       0.013     2170.008   0.100E-11
     Final TRS4 iteration   11 1.00000000   0.533E-14
     Chemical potential (mu):       0.02514

 SCF     2     -1103.039274863        -0.000000000    1.769729


 SCF run converged in     2 steps.

 PAO| Storing density matrix for ASPC guess in slot:           1

 ENERGY| Total FORCE_EVAL ( QS ) energy [a.u.]:            -1103.039274862574530

 -------------------------------------------------------------------------------
 -                                                                             -
 -                                DBCSR STATISTICS                             -
 -                                                                             -
 -------------------------------------------------------------------------------
 COUNTER                                    TOTAL       BLAS       SMM       ACC
 flops     5 x     5 x     4             26419200       0.0%    100.0%      0.0%     
 flops    13 x     5 x     4             34078720       0.0%    100.0%      0.0%     
 flops     5 x    13 x     4             34078720       0.0%    100.0%      0.0%     
 flops    13 x    13 x     4             44994560       0.0%    100.0%      0.0%     
 flops     4 x     4 x     5           6464471040       0.0%    100.0%      0.0%     
 flops     5 x     4 x     5           7962624000       0.0%    100.0%      0.0%     
 flops     4 x     4 x    13           8403812352       0.0%    100.0%      0.0%     
 flops    13 x     4 x     5          10351411200       0.0%    100.0%      0.0%     
 flops     5 x     4 x    13          10351411200       0.0%    100.0%      0.0%     
 flops    13 x     4 x    13          13456834560       0.0%    100.0%      0.0%     
 flops     5 x     4 x     4         399908977920       0.0%    100.0%      0.0%     
 flops    13 x     4 x     4         528487175008       0.0%    100.0%      0.0%     
 flops     4 x     4 x     4       29455698451200       0.0%    100.0%      0.0%     
 flops inhomo. stacks                           0       0.0%      0.0%      0.0%
 flops total                        30.441225E+12       0.0%    100.0%      0.0%
 flops max/rank                    961.351077E+09       0.0%    100.0%      0.0%
 matmuls inhomo. stacks                         0       0.0%      0.0%      0.0%
 matmuls total                       234042957509       0.0%    100.0%      0.0%
 number of processed stacks             239119134       0.0%    100.0%      0.0%
 average stack size                                     0.0     978.8       0.0
 marketing flops                    53.100430E+12
 -------------------------------------------------------------------------------
 # multiplications                          49828
 max memory usage/rank             615.911424E+06
 # max total images/rank                        2
 # max 3D layers                                1
 # MPI messages exchanged                20728448
 MPI messages size (bytes):
  total size                         2.445603E+12
  min size                           0.000000E+00
  max size                         541.696000E+03
  average size                     117.982930E+03
 MPI breakdown and total messages size (bytes):
             size <=      128              886626                    13440
       128 < size <=     8192              332322               1338095872
      8192 < size <=    32768               84800               1954222976
     32768 < size <=   131072             8865532             648714733312
    131072 < size <=  4194304            10559168            1793940856832
   4194304 < size <= 16777216                   0                        0
  16777216 < size                               0                        0
 -------------------------------------------------------------------------------

 *** WARNING in dbcsr_mm.F:301 :: Using a non-square number of MPI ranks ***
 *** might lead to poor performance. Used ranks: 32 Suggested: 36 64     ***

 -------------------------------------------------------------------------------
 -                                                                             -
 -                      DBCSR MESSAGE PASSING PERFORMANCE                      -
 -                                                                             -
 -------------------------------------------------------------------------------
 ROUTINE             CALLS      AVE VOLUME [Bytes]
 MP_Bcast               14                     12.
 MP_Allreduce       299938                     37.
 MP_Alltoall        128636                  14585.
 MP_ISend          1667568                  54914.
 MP_IRecv          1631032                  56218.
 -------------------------------------------------------------------------------

 -------------------------------------------------------------------------------
 -                                                                             -
 -                                DBM STATISTICS                               -
 -                                                                             -
 -------------------------------------------------------------------------------
    M  x    N  x    K                                          COUNT     PERCENT
 -------------------------------------------------------------------------------

 -------------------------------------------------------------------------------
 -                                                                             -
 -                                GRID STATISTICS                              -
 -                                                                             -
 -------------------------------------------------------------------------------
 LP    KERNEL             BACKEND                              COUNT     PERCENT
 2     collocate ortho    CPU                               13113664      28.83%
 2     integrate ortho    CPU                               13113664      28.83%
 3     collocate ortho    CPU                                8426224      18.53%
 3     integrate ortho    CPU                                8426224      18.53%
 4     collocate ortho    CPU                                1196832       2.63%
 4     integrate ortho    CPU                                1196832       2.63%
 0     collocate general  CPU                                   6144       0.01%
 -------------------------------------------------------------------------------

 MEMORY| Estimated peak process memory [MiB]                                 588

 -------------------------------------------------------------------------------
 -                                                                             -
 -                         MESSAGE PASSING PERFORMANCE                         -
 -                                                                             -
 -------------------------------------------------------------------------------

 ROUTINE             CALLS      AVE VOLUME [Bytes]
 MP_Group                5
 MP_Bcast           322095                   2094.
 MP_Allreduce       801080                    514.
 MP_Sync                 5
 MP_Alltoall           419                1021798.
 MP_SendRecv          1488                  18832.
 MP_ISendRecv         1488                  18832.
 MP_Wait              4218
 MP_ISend             2470                 108139.
 MP_IRecv             2470                 108153.
 -------------------------------------------------------------------------------


 -------------------------------------------------------------------------------
 -                                                                             -
 -                           R E F E R E N C E S                               -
 -                                                                             -
 -------------------------------------------------------------------------------
 
 CP2K version 2024.3 (Development Version), the CP2K developers group (2024).
 CP2K is freely available from https://www.cp2k.org/ .
 
 T. D. Kuehne, M. Iannuzzi, M. Del Ben, V. V. Rybkin, P. Seewald, F. Stein, T. 
 Laino, R. Z. Khaliullin, O. Schuett, F. Schiffmann, D. Golze, J. Wilhelm, S. 
 Chulkov, M. H. Bani-Hashemian, V. Weber, U. Borstnik, M. Taillefumier, A. S. 
 Jakobovits, A. Lazzaro, H. Pabst, T. Mueller, R. Schade, M. Guidon, S. 
 Andermatt, N. Holmberg, G. K. Schenter, A. Hehn, A. Bussy, F. Belleflamme, G. 
 Tabacchi, A. Gloess, M. Lass, I. Bethune, C. J. Mundy, C. Plessl, M. Watkins, 
 J. VandeVondele, M. Krack, J. Hutter.
 J. Chem. Phys. 152, 194103 (2020).
 CP2K: An electronic structure and molecular dynamics software package - 
 Quickstep: Efficient and accurate electronic structure calculations.
 https://doi.org/10.1063/5.0007045

 O. Schuett, J. VandeVondele.
 J. Chem. Theory Comput. 14, 4168-4175 (2018).
 Machine Learning Adaptive Basis Sets for Efficient Large Scale Density 
 Functional Theory Simulation.
 https://doi.org/10.1021/acs.jctc.8b00378

 O. Schuett, P. Messmer, J. Hutter, J. VandeVondele.
 Electronic Structure Calculations on Graphics Processing Units, 173-190 (2016).
 GPU-Accelerated Sparse Matrix-Matrix Multiplication for Linear Scaling Density 
 Functional Theory.
 https://doi.org/10.1002/9781118670712.ch8

 A. Heinecke, G. Henry, M. Hutchinson, H. Pabst.
 Proceedings of Intl. Supercomputing Conference, 981-991 (2016).
 LIBXSMM: Accelerating Small Matrix Multiplications by Runtime Code Generation.
 https://doi.org/10.1109/SC.2016.83

 J. Hutter, M. Iannuzzi, F. Schiffmann, J. VandeVondele.
 WIREs Comput Mol Sci. 4, 15-25 (2014).
 CP2K: atomistic simulations of condensed matter systems.
 https://doi.org/10.1002/wcms.1159

 U. Borstnik, J. VandeVondele, V. Weber, J. Hutter.
 Parallel Comput. 40, 47-58 (2014).
 Sparse matrix multiplication: The distributed block-compressed sparse row 
 library.
 https://doi.org/10.1016/j.parco.2014.03.012

 A. Marek, V. Blum, R. Johanni, V. Havu, B. Lang, T. Auckenthaler, A. Heinecke, 
 H. Bungartz, H. Lederer.
 J. Phys. Condens. Matter 26, 213201 (2014).
 The ELPA library: scalable parallel eigenvalue solutions for electronic 
 structure theory and computational science.
 https://doi.org/10.1088/0953-8984/26/21/213201

 J. VandeVondele, U. Borstnik, J. Hutter.
 J. Chem. Theory Comput. 8, 3565-3573 (2012).
 Linear Scaling Self-Consistent Field Calculations with Millions of Atoms in the 
 Condensed Phase.
 https://doi.org/10.1021/ct200897x

 J. VandeVondele, J. Hutter.
 J. Chem. Phys. 127, 114105 (2007).
 Gaussian basis sets for accurate calculations on molecular systems in gas and 
 condensed phases.
 https://doi.org/10.1063/1.2770708

 J. VandeVondele, M. Krack, F. Mohamed, M. Parrinello, T. Chassaing, J. Hutter.
 Comput. Phys. Commun. 167, 103-128 (2005).
 QUICKSTEP: Fast and accurate density functional calculations using a mixed 
 Gaussian and plane waves approach.
 https://doi.org/10.1016/j.cpc.2004.12.014

 M. Krack.
 Theor. Chem. Acc. 114, 145-152 (2005).
 Pseudopotentials for H to Kr optimized for gradient-corrected 
 exchange-correlation functionals.
 https://doi.org/10.1007/s00214-005-0655-y

 M. Frigo, S. G. Johnson.
 Proc. IEEE 93, 216-231 (2005).
 The design and implementation of FFTW3.
 https://doi.org/10.1109/JPROC.2004.840301

 A. M. N. Niklasson, C. J. Tymczak, M. Challacombe.
 J. Chem. Phys. 118, 8611-8620 (2003).
 Trace resetting density matrix purification in O(N) self-consistent-field 
 theory.
 https://doi.org/10.1063/1.1559913

 C. Hartwigsen, S. Goedecker, J. Hutter.
 Phys. Rev. B 58, 3641-3662 (1998).
 Relativistic separable dual-space Gaussian pseudopotentials from H to Rn.
 https://doi.org/10.1103/PhysRevB.58.3641

 G. Lippert, J. Hutter, M. Parrinello.
 Mol. Phys. 92, 477-487 (1997).
 A hybrid Gaussian and plane wave density functional scheme.
 https://doi.org/10.1080/002689797170220

 S. Goedecker, M. Teter, J. Hutter.
 Phys. Rev. B 54, 1703-1710 (1996).
 Separable dual-space Gaussian pseudopotentials.
 https://doi.org/10.1103/PhysRevB.54.1703

 J. P. Perdew, K. Burke, M. Ernzerhof.
 Phys. Rev. Lett. 77, 3865-3868 (1996).
 Generalized gradient approximation made simple.
 https://doi.org/10.1103/PhysRevLett.77.3865


 -------------------------------------------------------------------------------
 -                                                                             -
 -                                T I M I N G                                  -
 -                                                                             -
 -------------------------------------------------------------------------------
 SUBROUTINE                       CALLS  ASD         SELF TIME        TOTAL TIME
                                MAXIMUM       AVERAGE  MAXIMUM  AVERAGE  MAXIMUM
 CP2K                                 1  1.0    0.012    0.015  438.295  438.296
 qs_energies                          1  2.0    0.000    0.000  438.142  438.143
 ls_scf                               1  3.0    0.000    0.000  437.120  437.121
 pao_update                           7  4.0    0.006    0.025  407.186  407.187
 pao_calc_energy                    811  5.0    0.003    0.018  364.158  364.160
 dbcsr_multiply_generic           49828  8.4    1.371    1.431  347.376  347.541
 multiply_cannon                  49828  9.4    2.582    2.765  281.860  285.502
 multiply_cannon_loop             49828 10.4    1.884    2.160  271.416  273.790
 ls_scf_init_matrix_S               818  7.0    0.008    0.009  197.002  197.054
 pao_rebuild_S                      811  6.0    0.003    0.003  195.306  195.357
 matrix_sqrt_Newton_Schulz          818  8.0    0.168    0.284  181.594  181.665
 multiply_cannon_multrec         398624 11.4  175.047  176.787  175.863  177.609
 pao_dm_trs4                        811  6.0    0.006    0.007  168.483  168.501
 density_matrix_trs4                826  7.0    0.214    0.360  162.766  162.816
 mp_waitall_1                   3190740 12.6   92.116   98.677   92.116   98.677
 multiply_cannon_metrocomm3      398624 11.4    0.697    0.763   74.501   78.703
 arnoldi_extremal                  1644  8.5    0.013    0.015   52.782   52.825
 arnoldi_normal_ev                 1644  9.5    0.033    0.055   52.766   52.807
 make_m2s                         99656  9.4    0.540    0.666   50.891   51.799
 make_images                      99656 10.4    7.274    7.483   49.539   50.311
 build_subspace                    5185 10.5    0.318    0.341   46.529   46.568
 dbcsr_matrix_vector_mult        158838 11.5    0.681    1.026   43.915   44.193
 pao_calc_AB                       1074  5.8    0.002    0.002   42.569   42.571
 pao_calc_AB_equi                  1074  6.8    0.040    0.098   42.567   42.569
 pao_calc_grad_lnv_wrt_AB           262  7.0    0.020    0.022   42.166   42.192
 dbcsr_matrix_vector_mult_local  158838 12.5   37.423   37.846   37.600   38.024
 ls_scf_main                          7  4.0    0.000    0.001   26.532   26.533
 make_images_data                 99656 11.4    0.839    1.065   21.753   23.780
 ls_scf_dm_to_ks                     15  5.0    0.000    0.000   23.367   23.370
 hybrid_alltoall_any             101287 12.3    0.891    1.793   17.079   20.681
 matrix_qs_to_ls                   1644  7.5    0.016    0.019   17.395   17.531
 qs_ks_update_qs_env                 16  6.0    0.000    0.000   13.903   13.906
 rebuild_ks_matrix                   16  7.0    0.000    0.000   13.892   13.894
 qs_ks_build_kohn_sham_matrix        16  8.0    0.003    0.003   13.892   13.894
 calculate_norms                 744128 11.4   11.538   12.341   11.538   12.341
 make_images_pack                 99656 11.4   10.972   11.293   11.106   11.431
 mp_sum_l                        203642  9.5    7.127   11.348    7.127   11.348
 qs_rho_update_rho_low               16  6.0    0.000    0.000   10.924   10.926
 calculate_rho_elec                  16  7.0    0.005    0.006   10.924   10.926
 sum_up_and_integrate                16  9.0    0.000    0.000   10.512   10.514
 integrate_v_rspace                  16 10.0    0.000    0.001   10.497   10.499
 grid_collocate_task_list            16  8.0    9.697    9.836    9.697    9.836
 grid_integrate_task_list            16 11.0    9.276    9.391    9.276    9.391
 -------------------------------------------------------------------------------

 The number of warnings for this run is : 1
 
 -------------------------------------------------------------------------------
  **** **** ******  **  PROGRAM ENDED AT                 2024-09-24 06:19:04.216
 ***** ** ***  *** **   PROGRAM RAN ON                                    moritz
 **    ****   ******    PROGRAM RAN BY                                       ole
 ***** **    ** ** **   PROGRAM PROCESS ID                                170071
  **** **  *******  **  PROGRAM STOPPED IN /home/ole/git/pao_ml_equivar/64H2O_MD
                                           /Frame6400
