 DBCSR| CPU Multiplication driver                                           XSMM (U)
 DBCSR| Multrec recursion limit                                              512 (U)
 DBCSR| Multiplication stack size                                           1000 (D)
 DBCSR| Maximum elements for images                                    UNLIMITED (U)
 DBCSR| Multiplicative factor virtual images                                   1 (U)
 DBCSR| Use multiplication densification                                       T (D)
 DBCSR| Multiplication size stacks                                             3 (U)
 DBCSR| Use memory pool for CPU allocation                                     F (U)
 DBCSR| OMP: Current number of threads                                         1
 DBCSR| OMP: Max number of threads                                             1
 DBCSR| Split modifier for TAS multiplication algorithm                  1.0E+00 (U)


  **** **** ******  **  PROGRAM STARTED AT               2023-02-01 10:45:19.663
 ***** ** ***  *** **   PROGRAM STARTED ON                                moritz
 **    ****   ******    PROGRAM STARTED BY                                   ole
 ***** **    ** ** **   PROGRAM PROCESS ID                                148552
  **** **  *******  **  PROGRAM STARTED IN /home/ole/git/pao_ml_equivar/2H2O_rot
                                           ations/phi_00

 CP2K| version string:                 CP2K version 2023.1 (Development Version)
 CP2K| source code revision number:                                  git:03b4147
 CP2K| cp2kflags: omp libint fftw3 libxc quip xsmm spglib libvori libbqb libtorc
 CP2K|            h
 CP2K| is freely available from                            https://www.cp2k.org/
 CP2K| Program compiled at                           Mi 01 Feb 2023 10:36:52 CET
 CP2K| Program compiled on                                                moritz
 CP2K| Program compiled for                                                local
 CP2K| Data directory path                               /home/ole/git/cp2k/data
 CP2K| Input file name                                            2H2O_pao44.inp

 GLOBAL| Force Environment number                                              1
 GLOBAL| Basis set file name                                        BASIS_MOLOPT
 GLOBAL| Potential file name                                      GTH_POTENTIALS
 GLOBAL| MM Potential file name                                     MM_POTENTIAL
 GLOBAL| Coordinate file name                                         coords.xyz
 GLOBAL| Method name                                                        CP2K
 GLOBAL| Project name                                                 2H2O_pao44
 GLOBAL| Run type                                                         ENERGY
 GLOBAL| FFT library                                                       FFTW3
 GLOBAL| Diagonalization library                                       ScaLAPACK
 GLOBAL| DGEMM library                                                      BLAS
 GLOBAL| Orthonormality check for eigenvectors                          DISABLED
 GLOBAL| Matrix multiplication library                                 ScaLAPACK
 GLOBAL| All-to-all communication in single precision                          F
 GLOBAL| FFTs using library dependent lengths                                  F
 GLOBAL| Grid backend                                                       AUTO
 GLOBAL| Global print level                                                  LOW
 GLOBAL| MPI I/O enabled                                                       T
 GLOBAL| Total number of message passing processes                             1
 GLOBAL| Number of threads for this process                                    1
 GLOBAL| This output is from process                                           0
 GLOBAL| Stack size for threads created by OpenMP (OMP_STACKSIZE)        default
 GLOBAL| CPU model name           AMD Ryzen Threadripper 3970X 32-Core Processor
 GLOBAL| CPUID                                                              1002
 GLOBAL| Compiled for CPUID                                                    0

 *** HINT in environment.F:884 :: The compiler target flags (generic) used ***
 *** to build this binary cannot exploit all extensions of this CPU model  ***
 *** (x86_avx2). Consider compiler target flags as part of FCFLAGS and     ***
 *** CFLAGS (ARCH file).                                                   ***


 MEMORY| system memory details [Kb]
 MEMORY|                        rank 0           min           max       average
 MEMORY| MemTotal            131773860     131773860     131773860     131773860
 MEMORY| MemFree             118711192     118711192     118711192     118711192
 MEMORY| Buffers                301580        301580        301580        301580
 MEMORY| Cached                7018548       7018548       7018548       7018548
 MEMORY| Slab                   776140        776140        776140        776140
 MEMORY| SReclaimable           331304        331304        331304        331304
 MEMORY| MemLikelyFree       126362624     126362624     126362624     126362624


 GENERATE|  Preliminary Number of Bonds generated:                             0
 GENERATE|  Achieved consistency in connectivity generation.

 *******************************************************************************
 *******************************************************************************
 **                                                                           **
 **     #####                         ##              ##                      **
 **    ##   ##            ##          ##              ##                      **
 **   ##     ##                       ##            ######                    **
 **   ##     ##  ##   ##  ##   #####  ##  ##   ####   ##    #####    #####    **
 **   ##     ##  ##   ##  ##  ##      ## ##   ##      ##   ##   ##  ##   ##   **
 **   ##  ## ##  ##   ##  ##  ##      ####     ###    ##   ######   ######    **
 **    ##  ###   ##   ##  ##  ##      ## ##      ##   ##   ##       ##        **
 **     #######   #####   ##   #####  ##  ##  ####    ##    #####   ##        **
 **           ##                                                    ##        **
 **                                                                           **
 **                                                ... make the atoms dance   **
 **                                                                           **
 **            Copyright (C) by CP2K developers group (2000-2023)             **
 **                      J. Chem. Phys. 152, 194103 (2020)                    **
 **                                                                           **
 *******************************************************************************


 TOTAL NUMBERS AND MAXIMUM NUMBERS

  Total number of            - Atomic kinds:                                   2
                             - Atoms:                                          6
                             - Shell sets:                                     6
                             - Shells:                                        22
                             - Primitive Cartesian functions:                 42
                             - Cartesian basis functions:                     48
                             - Spherical basis functions:                     46

  Maximum angular momentum of- Orbital basis functions:                        2
                             - Local part of the GTH pseudopotential:          2
                             - Non-local part of the GTH pseudopotential:      0

 ------------------------------ Linear scaling SCF -----------------------------
 eps_scf:                                                              0.100E-07
 eps_filter:                                                           0.100E-07
 mixing_fraction:                                                      0.450E+00
 max_scf:                                                                     25
 fixed chemical potential (mu)                                                 F
 has unit metric:                                                              F
 Computing inv(S):                                                             T
 Computing sqrt(S):                                                            T
 Computing S preconditioner                                                    F
 S sqrt method:                                                     NEWTONSCHULZ
 S sqrt order:                                                                 3
 Extrapolation order:                                                          1
 Use single precision matrices                                                 F
 S preconditioner type                                                      NONE
 Polarized Atomic Orbitals (PAO)                                               T
 Purification method                                   Trace resetting 4th order
 Cluster type                                                             ATOMIC
 Computing Chebyshev                                                       FALSE
 Using PAO                                                                     T
 -------------------------------------------------------------------------------

 
 PAO|                                  EPS_PAO                           0.1E-04
 PAO|                                  MIXING                            0.5E+00
 PAO|                                  MAX_PAO                              1000
 PAO|                                  MAX_CYCLES                           1000
 PAO|                                  PARAMETERIZATION              EQUIVARIANT
 PAO|                                  PRECONDITION                            F
 PAO|                                  REGULARIZATION                    0.0E+00
 PAO|                                  EPS_PGF                           0.1E-09
 PAO|                                  PENALTY_DISTANCE                  0.1E+00
 PAO|                                  PENALTY_STRENGTH                  0.5E-02
 PAO|                                  LINPOT_PRECONDITION_DELTA         0.0E+00
 PAO|                                  LINPOT_INITGUESS_DELT             0.0E+00
 PAO|                                  LINPOT_REGULARIZATION_DELTA       0.0E+00
 PAO|                                  LINPOT_REGULARIZATION_STRENGTH    0.0E+00
 PAO|                                  OPTIMIZER                              CG
 PAO|                                  CG_INIT_STEPS                           2
 PAO|                                  CG_RESET_LIMIT                    0.1E+00
 PAO|                                  CHECK_UNITARY_TOL                -0.1E+01
 PAO|                                  CHECK_GRADIENT_TOL               -0.1E+01
 PAO|                                  NUM_GRADIENT_ORDER                      2
 PAO|                                  NUM_GRADIENT_EPS                  0.1E-07
 PAO|                                  PRINT%RESTART%WRITE_CYCLES            100
 PAO|                                  RESTART_FILE 
 PAO|                                  PREOPT_DM_FILE 2H2O_ref_LS_DM_SPIN_1_RESTART.dm
 PAO|                                  MACHINE_LEARNING%METHOD       GAUSSIAN_PR
 PAO|                                  MACHINE_LEARNING%PRIOR               ZERO
 PAO|                                  MACHINE_LEARNING%DESCRIPTOR     POTENTIAL
 PAO|                                  MACHINE_LEARNING%TOLERANCE        0.1E-01
 PAO|                                  MACHINE_LEARNING%GP_NOISE_VAR     0.1E+00
 PAO|                                  MACHINE_LEARNING%GP_SCALE         0.5E-01
 

 Calculating atomic Fock matrix for atomic kind: O

 Electronic structure
    Total number of core electrons                                          2.00
    Total number of valence electrons                                       6.00
    Total number of electrons                                               8.00
    Multiplicity                                                   not specified
    S   [  2.00] 2.00
    P      4.00


 *******************************************************************************
                  Iteration          Convergence                     Energy [au]
 *******************************************************************************
                          1        0.708315                     -15.576645311500
                          2        0.608879                     -15.587933561584
                          3        0.102828E-01                 -15.656849565404
                          4        0.113889E-02                 -15.656866888140
                          5        0.434197E-03                 -15.656867072159
                          6        0.263771E-03                 -15.656867091904
                          7        0.478536E-06                 -15.656867103452

 Energy components [Hartree]           Total Energy ::          -15.656867103452
                                        Band Energy ::           -3.000198112285
                                     Kinetic Energy ::           11.759971203220
                                   Potential Energy ::          -27.416838306672
                                      Virial (-V/T) ::            2.331369510426
                                        Core Energy ::          -26.140716385623
                                          XC Energy ::           -3.154051012914
                                     Coulomb Energy ::           13.637900295084
                       Total Pseudopotential Energy ::          -37.935781716540
                       Local Pseudopotential Energy ::          -39.218907440693
                    Nonlocal Pseudopotential Energy ::            1.283125724153
                                        Confinement ::            0.350941276976

 Orbital energies  State     L     Occupation   Energy[a.u.]          Energy[eV]

                       1     0          2.000      -0.864471          -23.523463

                       1     1          4.000      -0.317814           -8.648154


 Total Electron Density at R=0:                                         0.000068

 Calculating atomic Fock matrix for atomic kind: H

 Electronic structure
    Total number of core electrons                                          0.00
    Total number of valence electrons                                       1.00
    Total number of electrons                                               1.00
    Multiplicity                                                   not specified
    S      1.00


 *******************************************************************************
                  Iteration          Convergence                     Energy [au]
 *******************************************************************************
                          1        0.437545E-02                  -0.424159432110
                          2        0.531356E-03                  -0.424178438213
                          3        0.259176E-06                  -0.424178722480

 Energy components [Hartree]           Total Energy ::           -0.424178722480
                                        Band Energy ::           -0.199015229016
                                     Kinetic Energy ::            0.464007633961
                                   Potential Energy ::           -0.888186356441
                                      Virial (-V/T) ::            1.914163240935
                                        Core Energy ::           -0.479160803564
                                          XC Energy ::           -0.244352904054
                                     Coulomb Energy ::            0.299334985138
                       Total Pseudopotential Energy ::           -0.962295316385
                       Local Pseudopotential Energy ::           -0.962295316385
                    Nonlocal Pseudopotential Energy ::            0.000000000000
                                        Confinement ::            0.191268788606

 Orbital energies  State     L     Occupation   Energy[a.u.]          Energy[eV]

                       1     0          1.000      -0.199015           -5.415480


 Total Electron Density at R=0:                                         0.242907
 PAO| Made initial guess for matrix_X with norm:   4.8989794855663558     

     Lanczos converged:  T threshold:   0.100E-02
     Est. extremal eigenvalues:    0.335E+01   0.114E+00
     Est. condition number :    0.293E+02

 Order=           3
     NS sqrt iter    1 1.00000000   0.820E+00       0.001       64.512
     NS sqrt iter    2 1.00000000   0.440E+00       0.001      110.592
     NS sqrt iter    3 1.00000000   0.170E+00       0.001      110.592
     NS sqrt iter    4 1.00000000   0.206E-01       0.001      110.592
     NS sqrt iter    5 1.00000000   0.529E-04       0.001       90.624
     Symmetrizing Results
     Final NS sqrt iter    5 1.00000000   0.414E-08

 PAO| Read restart DM 2H2O_ref_LS_DM_SPIN_1_RESTART.dm with checksum:    47.301178759827593     
 PAO| Quickstep energy from restart density:  -34.450480621742024     
 PAO| ======================= Iteration:         1 =============================

     Lanczos converged:  T threshold:   0.100E-02
     Est. extremal eigenvalues:    0.335E+01   0.114E+00
     Est. condition number :    0.293E+02

 Order=           3
     NS sqrt iter    1 1.00000000   0.820E+00       0.001       64.512
     NS sqrt iter    2 1.00000000   0.440E+00       0.001      110.592
     NS sqrt iter    3 1.00000000   0.170E+00       0.001      110.592
     NS sqrt iter    4 1.00000000   0.206E-01       0.001      110.592
     NS sqrt iter    5 1.00000000   0.529E-04       0.001       90.624
     Symmetrizing Results
     Final NS sqrt iter    5 1.00000000   0.414E-08

     Est. extremal eigenvalues     -0.92014     1.88399  converged:  T
     TRS4 it   1 1.00000000   0.881E+00       0.000       16.128   0.100E-07
     TRS4 it   2 1.00000000   0.691E+00       0.000       32.256   0.100E-07
     TRS4 it   3 1.00000000   0.499E+00       0.000       32.256   0.100E-07
     TRS4 it   4 1.00000000   0.313E+00       0.000       32.256   0.100E-07
     TRS4 it   5 1.00000000   0.155E+00       0.000       32.256   0.100E-07
     TRS4 it   6 1.00000000   0.486E-01       0.000       32.256   0.100E-07
     TRS4 it   7 1.00000000   0.673E-02       0.000       32.256   0.100E-07
     TRS4 it   8 1.00000000   0.181E-03       0.000       32.256   0.100E-07
     TRS4 it   9 1.00000000   0.145E-06       0.000       32.256   0.100E-07
     TRS4 it  10 1.00000000   0.953E-13       0.000       32.256   0.100E-07
     Final TRS4 iteration   10 1.00000000   0.953E-13
     Chemical potential (mu):      -0.06567
 
 PAO| energy:  -7.6254455050795951      penalty:   7.5188305028877700E-033
 PAO|CG| warming up with steepest descent
 PAO|CG| beta:    0.0000000000000000     
 PAO| norm of gradient:  0.78338853340168180     
 PAO|LS| adapt:  T F F
 PAO|LS| adapt: scan_steps:    0.0000000000000000        0.0000000000000000        0.0000000000000000     
 PAO|LS| adapt: energies:   -7.6254455050795951        0.0000000000000000        0.0000000000000000     
 PAO| ======================= Iteration:         2 =============================

     Lanczos converged:  T threshold:   0.100E-02
     Est. extremal eigenvalues:    0.327E+01   0.127E+00
     Est. condition number :    0.256E+02

 Order=           3
     NS sqrt iter    1 1.00000000   0.804E+00       0.001       64.512
     NS sqrt iter    2 1.00000000   0.425E+00       0.001      110.592
     NS sqrt iter    3 1.00000000   0.153E+00       0.001      110.592
     NS sqrt iter    4 1.00000000   0.142E-01       0.001      110.592
     NS sqrt iter    5 1.00000000   0.166E-04       0.001       82.944
     Symmetrizing Results
     Final NS sqrt iter    5 1.00000000   0.419E-09

     Est. extremal eigenvalues     -0.92381     1.82870  converged:  T
     TRS4 it   1 1.00000000   0.877E+00       0.000       16.128   0.100E-07
     TRS4 it   2 1.00000000   0.672E+00       0.000       32.256   0.100E-07
     TRS4 it   3 1.00000000   0.483E+00       0.000       32.256   0.100E-07
     TRS4 it   4 1.00000000   0.292E+00       0.000       32.256   0.100E-07
     TRS4 it   5 1.00000000   0.135E+00       0.000       32.256   0.100E-07
     TRS4 it   6 1.00000000   0.373E-01       0.000       32.256   0.100E-07
     TRS4 it   7 1.00000000   0.402E-02       0.000       32.256   0.100E-07
     TRS4 it   8 1.00000000   0.650E-04       0.000       32.256   0.100E-07
     TRS4 it   9 1.00000000   0.188E-07       0.000       32.256   0.100E-07
     Final TRS4 iteration    9 1.00000000   0.188E-07
     Chemical potential (mu):      -0.05361
 
 PAO| energy:  -7.6809369039487692      penalty:   2.2479713907671819E-008
 PAO|LS| adapt:  T T F
 PAO|LS| adapt: scan_steps:    0.0000000000000000       0.10000000000000001        0.0000000000000000     
 PAO|LS| adapt: energies:   -7.6254455050795951       -7.6809369039487692        0.0000000000000000     
 PAO| ======================= Iteration:         3 =============================

     Lanczos converged:  T threshold:   0.100E-02
     Est. extremal eigenvalues:    0.317E+01   0.139E+00
     Est. condition number :    0.228E+02

 Order=           3
     NS sqrt iter    1 1.00000000   0.786E+00       0.001       64.512
     NS sqrt iter    2 1.00000000   0.408E+00       0.001      110.592
     NS sqrt iter    3 1.00000000   0.136E+00       0.001      110.592
     NS sqrt iter    4 1.00000000   0.974E-02       0.001      110.592
     NS sqrt iter    5 1.00000000   0.545E-05       0.001       82.944
     Symmetrizing Results
     Final NS sqrt iter    5 1.00000000   0.452E-10

     Est. extremal eigenvalues     -0.92723     1.78393  converged:  T
     TRS4 it   1 1.00000000   0.874E+00       0.000       16.128   0.100E-07
     TRS4 it   2 1.00000000   0.655E+00       0.000       32.256   0.100E-07
     TRS4 it   3 1.00000000   0.467E+00       0.000       32.256   0.100E-07
     TRS4 it   4 1.00000000   0.272E+00       0.000       32.256   0.100E-07
     TRS4 it   5 1.00000000   0.117E+00       0.000       32.256   0.100E-07
     TRS4 it   6 1.00000000   0.277E-01       0.000       32.256   0.100E-07
     TRS4 it   7 1.00000000   0.222E-02       0.000       32.256   0.100E-07
     TRS4 it   8 1.00000000   0.198E-04       0.000       32.256   0.100E-07
     TRS4 it   9 1.00000000   0.175E-08       0.000       32.256   0.100E-07
     Final TRS4 iteration    9 1.00000000   0.175E-08
     Chemical potential (mu):      -0.04058
 
 PAO| energy:  -7.7240119644508791      penalty:   3.5967514084135423E-007
 PAO|LS| adapt:  T T F
 PAO|LS| adapt: scan_steps:    0.0000000000000000       0.20000000000000001        0.0000000000000000     
 PAO|LS| adapt: energies:   -7.6254455050795951       -7.7240119644508791        0.0000000000000000     
 PAO| ======================= Iteration:         4 =============================

     Lanczos converged:  T threshold:   0.100E-02
     Est. extremal eigenvalues:    0.298E+01   0.157E+00
     Est. condition number :    0.189E+02

 Order=           3
     NS sqrt iter    1 1.00000000   0.749E+00       0.001       64.512
     NS sqrt iter    2 1.00000000   0.374E+00       0.001      110.592
     NS sqrt iter    3 1.00000000   0.106E+00       0.001      110.592
     NS sqrt iter    4 1.00000000   0.473E-02       0.001      110.592
     NS sqrt iter    5 1.00000000   0.762E-06       0.001       82.944
     Symmetrizing Results
     Final NS sqrt iter    5 1.00000000   0.967E-12

     Est. extremal eigenvalues     -0.93257     1.71855  converged:  T
     TRS4 it   1 1.00000000   0.869E+00       0.000       16.128   0.100E-07
     TRS4 it   2 1.00000000   0.628E+00       0.000       32.256   0.100E-07
     TRS4 it   3 1.00000000   0.437E+00       0.000       32.256   0.100E-07
     TRS4 it   4 1.00000000   0.235E+00       0.000       32.256   0.100E-07
     TRS4 it   5 1.00000000   0.849E-01       0.000       32.256   0.100E-07
     TRS4 it   6 1.00000000   0.141E-01       0.000       32.256   0.100E-07
     TRS4 it   7 1.00000000   0.549E-03       0.000       32.256   0.100E-07
     TRS4 it   8 1.00000000   0.119E-05       0.000       32.256   0.100E-07
     TRS4 it   9 1.00000000   0.628E-11       0.000       32.256   0.100E-07
     Final TRS4 iteration    9 1.00000000   0.628E-11
     Chemical potential (mu):      -0.01183
 
 PAO| energy:  -7.7712844621353572      penalty:   5.7548000000195550E-006
 PAO|LS| Need extra step
 PAO|LS| adapt:  T T F
 PAO|LS| adapt: scan_steps:    0.0000000000000000       0.40000000000000002        0.0000000000000000     
 PAO|LS| adapt: energies:   -7.6254455050795951       -7.7712844621353572        0.0000000000000000     
 PAO| ======================= Iteration:         5 =============================

     Lanczos converged:  T threshold:   0.100E-02
     Est. extremal eigenvalues:    0.263E+01   0.184E+00
     Est. condition number :    0.143E+02

 Order=           3
     NS sqrt iter    1 1.00000000   0.687E+00       0.001       64.512
     NS sqrt iter    2 1.00000000   0.313E+00       0.001      110.592
     NS sqrt iter    3 1.00000000   0.653E-01       0.001      110.592
     NS sqrt iter    4 1.00000000   0.130E-02       0.001      110.592
     NS sqrt iter    5 1.00000000   0.213E-07       0.001       55.808
     Symmetrizing Results
     Final NS sqrt iter    5 1.00000000   0.228E-08

     Est. extremal eigenvalues     -0.93384     1.64549  converged:  T
     TRS4 it   1 1.00000000   0.863E+00       0.000       16.128   0.100E-07
     TRS4 it   2 1.00000000   0.591E+00       0.000       32.256   0.100E-07
     TRS4 it   3 1.00000000   0.388E+00       0.000       32.256   0.100E-07
     TRS4 it   4 1.00000000   0.178E+00       0.000       32.256   0.100E-07
     TRS4 it   5 1.00000000   0.450E-01       0.000       32.256   0.100E-07
     TRS4 it   6 1.00000000   0.357E-02       0.000       32.256   0.100E-07
     TRS4 it   7 1.00000000   0.291E-04       0.000       32.256   0.100E-07
     TRS4 it   8 1.00000000   0.245E-08       0.001       32.256   0.100E-07
     Final TRS4 iteration    8 1.00000000   0.245E-08
     Chemical potential (mu):       0.03823
 
 PAO| energy:  -7.7165103933332757      penalty:   9.2076781972809981E-005
 PAO|LS| Need extra step
 PAO|LS| adapt:  T T T
 PAO|LS| adapt: scan_steps:    0.0000000000000000       0.40000000000000002       0.80000000000000004     
 PAO|LS| adapt: energies:   -7.6254455050795951       -7.7712844621353572       -7.7165103933332757     
 PAO|LS| adapt: suggested step_size:   0.49078661553932218     
 PAO|LS| adapt: predicted energy  -7.7764516327597439     
 PAO| ======================= Iteration:         6 =============================

     Lanczos converged:  T threshold:   0.100E-02
     Est. extremal eigenvalues:    0.289E+01   0.164E+00
     Est. condition number :    0.176E+02

 Order=           3
     NS sqrt iter    1 1.00000000   0.733E+00       0.001       64.512
     NS sqrt iter    2 1.00000000   0.359E+00       0.001      110.592
     NS sqrt iter    3 1.00000000   0.946E-01       0.001      110.592
     NS sqrt iter    4 1.00000000   0.347E-02       0.001      110.592
     NS sqrt iter    5 1.00000000   0.333E-06       0.001       82.304
     Symmetrizing Results
     Final NS sqrt iter    5 1.00000000   0.165E-09

     Est. extremal eigenvalues     -0.93406     1.69671  converged:  T
     TRS4 it   1 1.00000000   0.867E+00       0.000       16.128   0.100E-07
     TRS4 it   2 1.00000000   0.618E+00       0.000       32.256   0.100E-07
     TRS4 it   3 1.00000000   0.424E+00       0.000       32.256   0.100E-07
     TRS4 it   4 1.00000000   0.220E+00       0.000       32.256   0.100E-07
     TRS4 it   5 1.00000000   0.731E-01       0.000       32.256   0.100E-07
     TRS4 it   6 1.00000000   0.102E-01       0.000       32.256   0.100E-07
     TRS4 it   7 1.00000000   0.273E-03       0.000       32.256   0.100E-07
     TRS4 it   8 1.00000000   0.281E-06       0.000       32.256   0.100E-07
     TRS4 it   9 1.00000000   0.351E-12       0.000       32.256   0.100E-07
     Final TRS4 iteration    9 1.00000000   0.351E-12
     Chemical potential (mu):       0.00210
 
 PAO| energy:  -7.7757375974412479      penalty:   1.3042507035829877E-005
 PAO|CG| warming up with steepest descent
 PAO|CG| beta:    0.0000000000000000     
 PAO| norm of gradient:  0.41757195371907585     
 PAO| energy improvement: -0.15029209236165286     
 PAO| step      6                   -7.775737597  0.261E-01  0.491E+00     0.060
 PAO|LS| adapt:  T F F
 PAO|LS| adapt: scan_steps:    0.0000000000000000        0.0000000000000000        0.0000000000000000     
 PAO|LS| adapt: energies:   -7.7757375974412479        0.0000000000000000        0.0000000000000000     
 PAO| ======================= Iteration:         7 =============================

     Lanczos converged:  T threshold:   0.100E-02
     Est. extremal eigenvalues:    0.281E+01   0.178E+00
     Est. condition number :    0.158E+02

 Order=           3
     NS sqrt iter    1 1.00000000   0.716E+00       0.001       64.512
     NS sqrt iter    2 1.00000000   0.338E+00       0.001      110.592
     NS sqrt iter    3 1.00000000   0.790E-01       0.001      110.592
     NS sqrt iter    4 1.00000000   0.211E-02       0.001      110.592
     NS sqrt iter    5 1.00000000   0.836E-07       0.001       76.032
     Symmetrizing Results
     Final NS sqrt iter    5 1.00000000   0.888E-09

     Est. extremal eigenvalues     -0.93579     1.68437  converged:  T
     TRS4 it   1 1.00000000   0.866E+00       0.000       16.128   0.100E-07
     TRS4 it   2 1.00000000   0.616E+00       0.000       32.256   0.100E-07
     TRS4 it   3 1.00000000   0.424E+00       0.000       32.256   0.100E-07
     TRS4 it   4 1.00000000   0.221E+00       0.000       32.256   0.100E-07
     TRS4 it   5 1.00000000   0.737E-01       0.000       32.256   0.100E-07
     TRS4 it   6 1.00000000   0.101E-01       0.000       32.256   0.100E-07
     TRS4 it   7 1.00000000   0.254E-03       0.000       32.256   0.100E-07
     TRS4 it   8 1.00000000   0.230E-06       0.000       32.256   0.100E-07
     TRS4 it   9 1.00000000   0.230E-12       0.000       32.256   0.100E-07
     Final TRS4 iteration    9 1.00000000   0.230E-12
     Chemical potential (mu):       0.00430
 
 PAO| energy:  -7.7698627384946439      penalty:   1.9780526135182588E-005
 PAO|LS| adapt:  T F T
 PAO|LS| adapt: scan_steps:    0.0000000000000000        0.0000000000000000       0.49078661553932218     
 PAO|LS| adapt: energies:   -7.7757375974412479        0.0000000000000000       -7.7698627384946439     
 PAO| ======================= Iteration:         8 =============================

     Lanczos converged:  T threshold:   0.100E-02
     Est. extremal eigenvalues:    0.285E+01   0.171E+00
     Est. condition number :    0.167E+02

 Order=           3
     NS sqrt iter    1 1.00000000   0.725E+00       0.001       64.512
     NS sqrt iter    2 1.00000000   0.349E+00       0.001      110.592
     NS sqrt iter    3 1.00000000   0.866E-01       0.001      110.592
     NS sqrt iter    4 1.00000000   0.272E-02       0.001      110.592
     NS sqrt iter    5 1.00000000   0.170E-06       0.001       79.360
     Symmetrizing Results
     Final NS sqrt iter    5 1.00000000   0.139E-08

     Est. extremal eigenvalues     -0.93587     1.68988  converged:  T
     TRS4 it   1 1.00000000   0.866E+00       0.000       16.128   0.100E-07
     TRS4 it   2 1.00000000   0.616E+00       0.000       32.256   0.100E-07
     TRS4 it   3 1.00000000   0.424E+00       0.000       32.256   0.100E-07
     TRS4 it   4 1.00000000   0.219E+00       0.000       32.256   0.100E-07
     TRS4 it   5 1.00000000   0.731E-01       0.000       32.256   0.100E-07
     TRS4 it   6 1.00000000   0.102E-01       0.000       32.256   0.100E-07
     TRS4 it   7 1.00000000   0.270E-03       0.000       32.256   0.100E-07
     TRS4 it   8 1.00000000   0.270E-06       0.000       32.256   0.100E-07
     TRS4 it   9 1.00000000   0.321E-12       0.000       32.256   0.100E-07
     Final TRS4 iteration    9 1.00000000   0.321E-12
     Chemical potential (mu):       0.00272
 
 PAO| energy:  -7.7954223548497730      penalty:   1.4150437315363281E-005
 PAO|LS| adapt:  T T T
 PAO|LS| adapt: scan_steps:    0.0000000000000000       0.24539330776966109       0.49078661553932218     
 PAO|LS| adapt: energies:   -7.7757375974412479       -7.7954223548497730       -7.7698627384946439     
 PAO|LS| adapt: suggested step_size:   0.22946148078584447     
 PAO|LS| adapt: predicted energy  -7.7955177091578660     
 PAO| ======================= Iteration:         9 =============================

     Lanczos converged:  T threshold:   0.100E-02
     Est. extremal eigenvalues:    0.285E+01   0.170E+00
     Est. condition number :    0.167E+02

 Order=           3
     NS sqrt iter    1 1.00000000   0.725E+00       0.001       64.512
     NS sqrt iter    2 1.00000000   0.349E+00       0.001      110.592
     NS sqrt iter    3 1.00000000   0.871E-01       0.001      110.592
     NS sqrt iter    4 1.00000000   0.276E-02       0.001      110.592
     NS sqrt iter    5 1.00000000   0.178E-06       0.001       79.872
     Symmetrizing Results
     Final NS sqrt iter    5 1.00000000   0.121E-08

     Est. extremal eigenvalues     -0.93581     1.69028  converged:  T
     TRS4 it   1 1.00000000   0.866E+00       0.000       16.128   0.100E-07
     TRS4 it   2 1.00000000   0.616E+00       0.000       32.256   0.100E-07
     TRS4 it   3 1.00000000   0.424E+00       0.000       32.256   0.100E-07
     TRS4 it   4 1.00000000   0.219E+00       0.000       32.256   0.100E-07
     TRS4 it   5 1.00000000   0.731E-01       0.000       32.256   0.100E-07
     TRS4 it   6 1.00000000   0.102E-01       0.000       32.256   0.100E-07
     TRS4 it   7 1.00000000   0.271E-03       0.000       32.256   0.100E-07
     TRS4 it   8 1.00000000   0.272E-06       0.000       32.256   0.100E-07
     TRS4 it   9 1.00000000   0.325E-12       0.000       32.256   0.100E-07
     Final TRS4 iteration    9 1.00000000   0.325E-12
     Chemical potential (mu):       0.00265
 
 PAO| energy:  -7.7955415841236944      penalty:   1.3979301769206865E-005
 PAO|CG| trace_G_new    3.6961083400709117E-002
 PAO|CG| trace_G_prev   0.17436633653276601     
 PAO|CG| trace_G_mix   -1.4514031556887978E-003
 PAO|CG| trace_D   0.17436633653276601     
 PAO|CG| trace_D_Gnew   1.4514031556887978E-003
 PAO|CG| beta:   0.22029760629385961     
 PAO| norm of gradient:  0.19225265512005060     
 PAO| energy improvement:  -1.9803986682446428E-002
 PAO| step      9                   -7.795541584  0.120E-01  0.229E+00     0.037
 PAO|LS| adapt:  T F F
 PAO|LS| adapt: scan_steps:    0.0000000000000000        0.0000000000000000        0.0000000000000000     
 PAO|LS| adapt: energies:   -7.7955415841236944        0.0000000000000000        0.0000000000000000     
 PAO| ======================= Iteration:        10 =============================

     Lanczos converged:  T threshold:   0.100E-02
     Est. extremal eigenvalues:    0.282E+01   0.176E+00
     Est. condition number :    0.160E+02

 Order=           3
     NS sqrt iter    1 1.00000000   0.718E+00       0.001       64.512
     NS sqrt iter    2 1.00000000   0.341E+00       0.001      110.592
     NS sqrt iter    3 1.00000000   0.815E-01       0.001      110.592
     NS sqrt iter    4 1.00000000   0.227E-02       0.001      110.592
     NS sqrt iter    5 1.00000000   0.993E-07       0.001       76.416
     Symmetrizing Results
     Final NS sqrt iter    5 1.00000000   0.103E-08

     Est. extremal eigenvalues     -0.93670     1.68645  converged:  T
     TRS4 it   1 1.00000000   0.864E+00       0.000       16.128   0.100E-07
     TRS4 it   2 1.00000000   0.615E+00       0.000       32.256   0.100E-07
     TRS4 it   3 1.00000000   0.422E+00       0.000       32.256   0.100E-07
     TRS4 it   4 1.00000000   0.217E+00       0.000       32.256   0.100E-07
     TRS4 it   5 1.00000000   0.712E-01       0.000       32.256   0.100E-07
     TRS4 it   6 1.00000000   0.961E-02       0.000       32.256   0.100E-07
     TRS4 it   7 1.00000000   0.235E-03       0.000       32.256   0.100E-07
     TRS4 it   8 1.00000000   0.200E-06       0.000       32.256   0.100E-07
     TRS4 it   9 1.00000000   0.175E-12       0.000       32.256   0.100E-07
     Final TRS4 iteration    9 1.00000000   0.175E-12
     Chemical potential (mu):       0.00588
 
 PAO| energy:  -7.8005923787424516      penalty:   1.4523703589251815E-005
 PAO|LS| adapt:  T T F
 PAO|LS| adapt: scan_steps:    0.0000000000000000       0.22946148078584447        0.0000000000000000     
 PAO|LS| adapt: energies:   -7.7955415841236944       -7.8005923787424516        0.0000000000000000     
 PAO| ======================= Iteration:        11 =============================

     Lanczos converged:  T threshold:   0.100E-02
     Est. extremal eigenvalues:    0.278E+01   0.182E+00
     Est. condition number :    0.153E+02

 Order=           3
     NS sqrt iter    1 1.00000000   0.710E+00       0.001       64.512
     NS sqrt iter    2 1.00000000   0.333E+00       0.001      110.592
     NS sqrt iter    3 1.00000000   0.761E-01       0.001      110.592
     NS sqrt iter    4 1.00000000   0.186E-02       0.001      110.592
     NS sqrt iter    5 1.00000000   0.546E-07       0.001       71.808
     Symmetrizing Results
     Final NS sqrt iter    5 1.00000000   0.404E-09

     Est. extremal eigenvalues     -0.93661     1.68410  converged:  T
     TRS4 it   1 1.00000000   0.863E+00       0.000       16.128   0.100E-07
     TRS4 it   2 1.00000000   0.614E+00       0.000       32.256   0.100E-07
     TRS4 it   3 1.00000000   0.420E+00       0.000       32.256   0.100E-07
     TRS4 it   4 1.00000000   0.215E+00       0.000       32.256   0.100E-07
     TRS4 it   5 1.00000000   0.693E-01       0.000       32.256   0.100E-07
     TRS4 it   6 1.00000000   0.905E-02       0.000       32.256   0.100E-07
     TRS4 it   7 1.00000000   0.205E-03       0.000       32.256   0.100E-07
     TRS4 it   8 1.00000000   0.146E-06       0.000       32.256   0.100E-07
     TRS4 it   9 1.00000000   0.926E-13       0.000       32.256   0.100E-07
     Final TRS4 iteration    9 1.00000000   0.926E-13
     Chemical potential (mu):       0.00922
 
 PAO| energy:  -7.7991729329311905      penalty:   1.5741664974069665E-005
 PAO|LS| adapt:  T T T
 PAO|LS| adapt: scan_steps:    0.0000000000000000       0.22946148078584447       0.45892296157168894     
 PAO|LS| adapt: energies:   -7.7955415841236944       -7.8005923787424516       -7.7991729329311905     
 PAO|LS| adapt: suggested step_size:   0.29385280315094092     
 PAO|LS| adapt: predicted energy  -7.8008471353914564     
 PAO| ======================= Iteration:        12 =============================

     Lanczos converged:  T threshold:   0.100E-02
     Est. extremal eigenvalues:    0.281E+01   0.178E+00
     Est. condition number :    0.158E+02

 Order=           3
     NS sqrt iter    1 1.00000000   0.715E+00       0.001       64.512
     NS sqrt iter    2 1.00000000   0.339E+00       0.001      110.592
     NS sqrt iter    3 1.00000000   0.800E-01       0.001      110.592
     NS sqrt iter    4 1.00000000   0.215E-02       0.001      110.592
     NS sqrt iter    5 1.00000000   0.840E-07       0.001       75.648
     Symmetrizing Results
     Final NS sqrt iter    5 1.00000000   0.102E-08

     Est. extremal eigenvalues     -0.93677     1.68564  converged:  T
     TRS4 it   1 1.00000000   0.864E+00       0.000       16.128   0.100E-07
     TRS4 it   2 1.00000000   0.615E+00       0.000       32.256   0.100E-07
     TRS4 it   3 1.00000000   0.421E+00       0.000       32.256   0.100E-07
     TRS4 it   4 1.00000000   0.216E+00       0.000       32.256   0.100E-07
     TRS4 it   5 1.00000000   0.706E-01       0.000       32.256   0.100E-07
     TRS4 it   6 1.00000000   0.945E-02       0.000       32.256   0.100E-07
     TRS4 it   7 1.00000000   0.226E-03       0.000       32.256   0.100E-07
     TRS4 it   8 1.00000000   0.183E-06       0.000       32.256   0.100E-07
     TRS4 it   9 1.00000000   0.146E-12       0.000       32.256   0.100E-07
     Final TRS4 iteration    9 1.00000000   0.146E-12
     Chemical potential (mu):       0.00681
 
 PAO| energy:  -7.8008309646894105      penalty:   1.4789818305265891E-005
 PAO|CG| trace_G_new    1.1849868111492703E-002
 PAO|CG| trace_G_prev    3.6961083400709117E-002
 PAO|CG| trace_G_mix   -4.5658569322514398E-004
 PAO|CG| trace_D    4.4783780958947451E-002
 PAO|CG| trace_D_Gnew   2.0937050195321419E-004
 PAO|CG| beta:   0.33295706382031381     
 PAO| norm of gradient:  0.10885709949972351     
 PAO| energy improvement:  -5.2893805657161508E-003
 PAO| step     12                   -7.800830965  0.680E-02  0.294E+00     0.037
 PAO|LS| adapt:  T F F
 PAO|LS| adapt: scan_steps:    0.0000000000000000        0.0000000000000000        0.0000000000000000     
 PAO|LS| adapt: energies:   -7.8008309646894105        0.0000000000000000        0.0000000000000000     
 PAO| ======================= Iteration:        13 =============================

     Lanczos converged:  T threshold:   0.100E-02
     Est. extremal eigenvalues:    0.277E+01   0.182E+00
     Est. condition number :    0.152E+02

 Order=           3
     NS sqrt iter    1 1.00000000   0.708E+00       0.001       64.512
     NS sqrt iter    2 1.00000000   0.332E+00       0.001      110.592
     NS sqrt iter    3 1.00000000   0.756E-01       0.001      110.592
     NS sqrt iter    4 1.00000000   0.183E-02       0.001      110.592
     NS sqrt iter    5 1.00000000   0.529E-07       0.001       71.552
     Symmetrizing Results
     Final NS sqrt iter    5 1.00000000   0.398E-09

     Est. extremal eigenvalues     -0.93726     1.67970  converged:  T
     TRS4 it   1 1.00000000   0.864E+00       0.000       16.128   0.100E-07
     TRS4 it   2 1.00000000   0.612E+00       0.000       32.256   0.100E-07
     TRS4 it   3 1.00000000   0.417E+00       0.000       32.256   0.100E-07
     TRS4 it   4 1.00000000   0.211E+00       0.000       32.256   0.100E-07
     TRS4 it   5 1.00000000   0.671E-01       0.000       32.256   0.100E-07
     TRS4 it   6 1.00000000   0.848E-02       0.000       32.256   0.100E-07
     TRS4 it   7 1.00000000   0.179E-03       0.000       32.256   0.100E-07
     TRS4 it   8 1.00000000   0.112E-06       0.000       32.256   0.100E-07
     TRS4 it   9 1.00000000   0.539E-13       0.000       32.256   0.100E-07
     Final TRS4 iteration    9 1.00000000   0.539E-13
     Chemical potential (mu):       0.01143
 
 PAO| energy:  -7.8029025711030124      penalty:   1.5101535947546664E-005
 PAO|LS| adapt:  T T F
 PAO|LS| adapt: scan_steps:    0.0000000000000000       0.29385280315094092        0.0000000000000000     
 PAO|LS| adapt: energies:   -7.8008309646894105       -7.8029025711030124        0.0000000000000000     
 PAO| ======================= Iteration:        14 =============================

     Lanczos converged:  T threshold:   0.100E-02
     Est. extremal eigenvalues:    0.274E+01   0.186E+00
     Est. condition number :    0.147E+02

 Order=           3
     NS sqrt iter    1 1.00000000   0.702E+00       0.001       64.512
     NS sqrt iter    2 1.00000000   0.325E+00       0.001      110.592
     NS sqrt iter    3 1.00000000   0.716E-01       0.001      110.592
     NS sqrt iter    4 1.00000000   0.156E-02       0.001      110.592
     NS sqrt iter    5 1.00000000   0.332E-07       0.001       65.024
     Symmetrizing Results
     Final NS sqrt iter    5 1.00000000   0.225E-08

     Est. extremal eigenvalues     -0.93723     1.67411  converged:  T
     TRS4 it   1 1.00000000   0.863E+00       0.000       16.128   0.100E-07
     TRS4 it   2 1.00000000   0.609E+00       0.000       32.256   0.100E-07
     TRS4 it   3 1.00000000   0.413E+00       0.000       32.256   0.100E-07
     TRS4 it   4 1.00000000   0.207E+00       0.000       32.256   0.100E-07
     TRS4 it   5 1.00000000   0.638E-01       0.000       32.256   0.100E-07
     TRS4 it   6 1.00000000   0.761E-02       0.000       32.256   0.100E-07
     TRS4 it   7 1.00000000   0.143E-03       0.000       32.256   0.100E-07
     TRS4 it   8 1.00000000   0.687E-07       0.000       32.256   0.100E-07
     Final TRS4 iteration    8 1.00000000   0.687E-07
     Chemical potential (mu):       0.01336
 
 PAO| energy:  -7.8022437889041338      penalty:   1.5895959817288179E-005
 PAO|LS| adapt:  T T T
 PAO|LS| adapt: scan_steps:    0.0000000000000000       0.29385280315094092       0.58770560630188184     
 PAO|LS| adapt: energies:   -7.8008309646894105       -7.8029025711030124       -7.8022437889041338     
 PAO|LS| adapt: suggested step_size:   0.36987904241195324     
 PAO|LS| adapt: predicted energy  -7.8029939533449300     
 PAO| ======================= Iteration:        15 =============================

     Lanczos converged:  T threshold:   0.100E-02
     Est. extremal eigenvalues:    0.276E+01   0.183E+00
     Est. condition number :    0.151E+02

 Order=           3
     NS sqrt iter    1 1.00000000   0.707E+00       0.001       64.512
     NS sqrt iter    2 1.00000000   0.330E+00       0.001      110.592
     NS sqrt iter    3 1.00000000   0.746E-01       0.001      110.592
     NS sqrt iter    4 1.00000000   0.176E-02       0.001      110.592
     NS sqrt iter    5 1.00000000   0.469E-07       0.001       70.912
     Symmetrizing Results
     Final NS sqrt iter    5 1.00000000   0.340E-09

     Est. extremal eigenvalues     -0.93730     1.67822  converged:  T
     TRS4 it   1 1.00000000   0.864E+00       0.000       16.128   0.100E-07
     TRS4 it   2 1.00000000   0.611E+00       0.000       32.256   0.100E-07
     TRS4 it   3 1.00000000   0.416E+00       0.000       32.256   0.100E-07
     TRS4 it   4 1.00000000   0.210E+00       0.000       32.256   0.100E-07
     TRS4 it   5 1.00000000   0.663E-01       0.000       32.256   0.100E-07
     TRS4 it   6 1.00000000   0.824E-02       0.000       32.256   0.100E-07
     TRS4 it   7 1.00000000   0.169E-03       0.000       32.256   0.100E-07
     TRS4 it   8 1.00000000   0.988E-07       0.000       32.256   0.100E-07
     TRS4 it   9 1.00000000   0.412E-13       0.000       32.256   0.100E-07
     Final TRS4 iteration    9 1.00000000   0.412E-13
     Chemical potential (mu):       0.01261
 
 PAO| energy:  -7.8029909389322896      penalty:   1.5257751088699433E-005
 PAO|CG| trace_G_new    2.6156173488108394E-003
 PAO|CG| trace_G_prev    1.1849868111492703E-002
 PAO|CG| trace_G_mix    6.5858115312285455E-005
 PAO|CG| trace_D    1.6675193491232625E-002
 PAO|CG| trace_D_Gnew   3.3970301921302604E-005
 PAO|CG| beta:   0.21517195039712267     
 PAO| norm of gradient:   5.1143106561987797E-002
 PAO| energy improvement:  -2.1599742428790591E-003
 PAO| step     15                   -7.802990939  0.320E-02  0.370E+00     0.036
 PAO|LS| adapt:  T F F
 PAO|LS| adapt: scan_steps:    0.0000000000000000        0.0000000000000000        0.0000000000000000     
 PAO|LS| adapt: energies:   -7.8029909389322896        0.0000000000000000        0.0000000000000000     
 PAO| ======================= Iteration:        16 =============================

     Lanczos converged:  T threshold:   0.100E-02
     Est. extremal eigenvalues:    0.275E+01   0.184E+00
     Est. condition number :    0.150E+02

 Order=           3
     NS sqrt iter    1 1.00000000   0.705E+00       0.001       64.512
     NS sqrt iter    2 1.00000000   0.329E+00       0.001      110.592
     NS sqrt iter    3 1.00000000   0.739E-01       0.001      110.592
     NS sqrt iter    4 1.00000000   0.171E-02       0.001      110.592
     NS sqrt iter    5 1.00000000   0.429E-07       0.001       70.016
     Symmetrizing Results
     Final NS sqrt iter    5 1.00000000   0.325E-09

     Est. extremal eigenvalues     -0.93733     1.67815  converged:  T
     TRS4 it   1 1.00000000   0.864E+00       0.000       16.128   0.100E-07
     TRS4 it   2 1.00000000   0.610E+00       0.000       32.256   0.100E-07
     TRS4 it   3 1.00000000   0.415E+00       0.000       32.256   0.100E-07
     TRS4 it   4 1.00000000   0.209E+00       0.000       32.256   0.100E-07
     TRS4 it   5 1.00000000   0.652E-01       0.000       32.256   0.100E-07
     TRS4 it   6 1.00000000   0.799E-02       0.000       32.256   0.100E-07
     TRS4 it   7 1.00000000   0.159E-03       0.000       32.256   0.100E-07
     TRS4 it   8 1.00000000   0.887E-07       0.000       32.256   0.100E-07
     TRS4 it   9 1.00000000   0.347E-13       0.000       32.256   0.100E-07
     Final TRS4 iteration    9 1.00000000   0.347E-13
     Chemical potential (mu):       0.01345
 
 PAO| energy:  -7.8031182813480759      penalty:   1.5038984797329160E-005
 PAO|LS| adapt:  T T F
 PAO|LS| adapt: scan_steps:    0.0000000000000000       0.36987904241195324        0.0000000000000000     
 PAO|LS| adapt: energies:   -7.8029909389322896       -7.8031182813480759        0.0000000000000000     
 PAO| ======================= Iteration:        17 =============================

     Lanczos converged:  T threshold:   0.100E-02
     Est. extremal eigenvalues:    0.275E+01   0.184E+00
     Est. condition number :    0.149E+02

 Order=           3
     NS sqrt iter    1 1.00000000   0.703E+00       0.001       64.512
     NS sqrt iter    2 1.00000000   0.327E+00       0.001      110.592
     NS sqrt iter    3 1.00000000   0.733E-01       0.001      110.592
     NS sqrt iter    4 1.00000000   0.166E-02       0.001      110.592
     NS sqrt iter    5 1.00000000   0.394E-07       0.001       68.736
     Symmetrizing Results
     Final NS sqrt iter    5 1.00000000   0.311E-09

     Est. extremal eigenvalues     -0.93723     1.67816  converged:  T
     TRS4 it   1 1.00000000   0.864E+00       0.000       16.128   0.100E-07
     TRS4 it   2 1.00000000   0.610E+00       0.000       32.256   0.100E-07
     TRS4 it   3 1.00000000   0.414E+00       0.000       32.256   0.100E-07
     TRS4 it   4 1.00000000   0.207E+00       0.000       32.256   0.100E-07
     TRS4 it   5 1.00000000   0.642E-01       0.000       32.256   0.100E-07
     TRS4 it   6 1.00000000   0.774E-02       0.000       32.256   0.100E-07
     TRS4 it   7 1.00000000   0.150E-03       0.000       32.256   0.100E-07
     TRS4 it   8 1.00000000   0.798E-07       0.000       32.256   0.100E-07
     Final TRS4 iteration    8 1.00000000   0.798E-07
     Chemical potential (mu):       0.01233
 
 PAO| energy:  -7.8015649152425786      penalty:   1.4945213774922140E-005
 PAO|LS| adapt:  T T T
 PAO|LS| adapt: scan_steps:    0.0000000000000000       0.36987904241195324       0.73975808482390648     
 PAO|LS| adapt: energies:   -7.8029909389322896       -7.8031182813480759       -7.8015649152425786     
 PAO|LS| adapt: suggested step_size:   0.21296418474103967     
 PAO|LS| adapt: predicted energy  -7.8032695228883160     
 PAO| ======================= Iteration:        18 =============================

     Lanczos converged:  T threshold:   0.100E-02
     Est. extremal eigenvalues:    0.276E+01   0.183E+00
     Est. condition number :    0.150E+02

 Order=           3
     NS sqrt iter    1 1.00000000   0.706E+00       0.001       64.512
     NS sqrt iter    2 1.00000000   0.329E+00       0.001      110.592
     NS sqrt iter    3 1.00000000   0.742E-01       0.001      110.592
     NS sqrt iter    4 1.00000000   0.173E-02       0.001      110.592
     NS sqrt iter    5 1.00000000   0.446E-07       0.001       70.144
     Symmetrizing Results
     Final NS sqrt iter    5 1.00000000   0.334E-09

     Est. extremal eigenvalues     -0.93733     1.67817  converged:  T
     TRS4 it   1 1.00000000   0.864E+00       0.000       16.128   0.100E-07
     TRS4 it   2 1.00000000   0.611E+00       0.000       32.256   0.100E-07
     TRS4 it   3 1.00000000   0.416E+00       0.000       32.256   0.100E-07
     TRS4 it   4 1.00000000   0.209E+00       0.000       32.256   0.100E-07
     TRS4 it   5 1.00000000   0.657E-01       0.000       32.256   0.100E-07
     TRS4 it   6 1.00000000   0.809E-02       0.000       32.256   0.100E-07
     TRS4 it   7 1.00000000   0.163E-03       0.000       32.256   0.100E-07
     TRS4 it   8 1.00000000   0.928E-07       0.000       32.256   0.100E-07
     TRS4 it   9 1.00000000   0.372E-13       0.000       32.256   0.100E-07
     Final TRS4 iteration    9 1.00000000   0.372E-13
     Chemical potential (mu):       0.01309
 
 PAO| energy:  -7.8032690351622156      penalty:   1.5116793790481514E-005
 PAO|CG| trace_G_new    7.2958613436804073E-004
 PAO|CG| trace_G_prev    2.6156173488108394E-003
 PAO|CG| trace_G_mix    1.7333428917770268E-006
 PAO|CG| trace_D    3.3730426903789794E-003
 PAO|CG| trace_D_Gnew  -1.8354688602633736E-006
 PAO|CG| beta:   0.27827189317549594     
 PAO| norm of gradient:   2.7010852159234829E-002
 PAO| energy improvement:  -2.7809622992602812E-004
 PAO| step     18                   -7.803269035  0.169E-02  0.213E+00     0.036
 PAO|LS| adapt:  T F F
 PAO|LS| adapt: scan_steps:    0.0000000000000000        0.0000000000000000        0.0000000000000000     
 PAO|LS| adapt: energies:   -7.8032690351622156        0.0000000000000000        0.0000000000000000     
 PAO| ======================= Iteration:        19 =============================

     Lanczos converged:  T threshold:   0.100E-02
     Est. extremal eigenvalues:    0.276E+01   0.183E+00
     Est. condition number :    0.151E+02

 Order=           3
     NS sqrt iter    1 1.00000000   0.706E+00       0.001       64.512
     NS sqrt iter    2 1.00000000   0.329E+00       0.001      110.592
     NS sqrt iter    3 1.00000000   0.744E-01       0.001      110.592
     NS sqrt iter    4 1.00000000   0.174E-02       0.001      110.592
     NS sqrt iter    5 1.00000000   0.450E-07       0.001       70.400
     Symmetrizing Results
     Final NS sqrt iter    5 1.00000000   0.331E-09

     Est. extremal eigenvalues     -0.93733     1.67851  converged:  T
     TRS4 it   1 1.00000000   0.864E+00       0.000       16.128   0.100E-07
     TRS4 it   2 1.00000000   0.610E+00       0.000       32.256   0.100E-07
     TRS4 it   3 1.00000000   0.416E+00       0.000       32.256   0.100E-07
     TRS4 it   4 1.00000000   0.209E+00       0.000       32.256   0.100E-07
     TRS4 it   5 1.00000000   0.656E-01       0.000       32.256   0.100E-07
     TRS4 it   6 1.00000000   0.809E-02       0.000       32.256   0.100E-07
     TRS4 it   7 1.00000000   0.164E-03       0.000       32.256   0.100E-07
     TRS4 it   8 1.00000000   0.943E-07       0.000       32.256   0.100E-07
     TRS4 it   9 1.00000000   0.385E-13       0.000       32.256   0.100E-07
     Final TRS4 iteration    9 1.00000000   0.385E-13
     Chemical potential (mu):       0.01282
 
 PAO| energy:  -7.8033876096068449      penalty:   1.4826767147907009E-005
 PAO|LS| adapt:  T T F
 PAO|LS| adapt: scan_steps:    0.0000000000000000       0.21296418474103967        0.0000000000000000     
 PAO|LS| adapt: energies:   -7.8032690351622156       -7.8033876096068449        0.0000000000000000     
 PAO| ======================= Iteration:        20 =============================

     Lanczos converged:  T threshold:   0.100E-02
     Est. extremal eigenvalues:    0.276E+01   0.183E+00
     Est. condition number :    0.151E+02

 Order=           3
     NS sqrt iter    1 1.00000000   0.705E+00       0.001       64.512
     NS sqrt iter    2 1.00000000   0.330E+00       0.001      110.592
     NS sqrt iter    3 1.00000000   0.746E-01       0.001      110.592
     NS sqrt iter    4 1.00000000   0.175E-02       0.001      110.592
     NS sqrt iter    5 1.00000000   0.456E-07       0.001       70.528
     Symmetrizing Results
     Final NS sqrt iter    5 1.00000000   0.340E-09

     Est. extremal eigenvalues     -0.93733     1.67885  converged:  T
     TRS4 it   1 1.00000000   0.864E+00       0.000       16.128   0.100E-07
     TRS4 it   2 1.00000000   0.610E+00       0.000       32.256   0.100E-07
     TRS4 it   3 1.00000000   0.415E+00       0.000       32.256   0.100E-07
     TRS4 it   4 1.00000000   0.209E+00       0.000       32.256   0.100E-07
     TRS4 it   5 1.00000000   0.655E-01       0.000       32.256   0.100E-07
     TRS4 it   6 1.00000000   0.808E-02       0.000       32.256   0.100E-07
     TRS4 it   7 1.00000000   0.165E-03       0.000       32.256   0.100E-07
     TRS4 it   8 1.00000000   0.959E-07       0.000       32.256   0.100E-07
     TRS4 it   9 1.00000000   0.396E-13       0.000       32.256   0.100E-07
     Final TRS4 iteration    9 1.00000000   0.396E-13
     Chemical potential (mu):       0.01255
 
 PAO| energy:  -7.8034319583773755      penalty:   1.4549233090052087E-005
 PAO|LS| adapt:  T T F
 PAO|LS| adapt: scan_steps:    0.0000000000000000       0.42592836948207935        0.0000000000000000     
 PAO|LS| adapt: energies:   -7.8032690351622156       -7.8034319583773755        0.0000000000000000     
 PAO| ======================= Iteration:        21 =============================

     Lanczos converged:  T threshold:   0.100E-02
     Est. extremal eigenvalues:    0.276E+01   0.183E+00
     Est. condition number :    0.151E+02

 Order=           3
     NS sqrt iter    1 1.00000000   0.705E+00       0.001       64.512
     NS sqrt iter    2 1.00000000   0.330E+00       0.001      110.592
     NS sqrt iter    3 1.00000000   0.751E-01       0.001      110.592
     NS sqrt iter    4 1.00000000   0.177E-02       0.001      110.592
     NS sqrt iter    5 1.00000000   0.467E-07       0.001       70.784
     Symmetrizing Results
     Final NS sqrt iter    5 1.00000000   0.355E-09

     Est. extremal eigenvalues     -0.93732     1.67955  converged:  T
     TRS4 it   1 1.00000000   0.864E+00       0.000       16.128   0.100E-07
     TRS4 it   2 1.00000000   0.610E+00       0.000       32.256   0.100E-07
     TRS4 it   3 1.00000000   0.415E+00       0.000       32.256   0.100E-07
     TRS4 it   4 1.00000000   0.209E+00       0.000       32.256   0.100E-07
     TRS4 it   5 1.00000000   0.653E-01       0.000       32.256   0.100E-07
     TRS4 it   6 1.00000000   0.807E-02       0.000       32.256   0.100E-07
     TRS4 it   7 1.00000000   0.166E-03       0.000       32.256   0.100E-07
     TRS4 it   8 1.00000000   0.990E-07       0.000       32.256   0.100E-07
     TRS4 it   9 1.00000000   0.423E-13       0.000       32.256   0.100E-07
     Final TRS4 iteration    9 1.00000000   0.423E-13
     Chemical potential (mu):       0.01199
 
 PAO| energy:  -7.8032955384787446      penalty:   1.4031067375554636E-005
 PAO|LS| Need extra step
 PAO|LS| adapt:  T T T
 PAO|LS| adapt: scan_steps:    0.0000000000000000       0.42592836948207935       0.85185673896415870     
 PAO|LS| adapt: energies:   -7.8032690351622156       -7.8034319583773755       -7.8032955384787446     
 PAO|LS| adapt: suggested step_size:   0.44478384648320862     
 PAO|LS| adapt: predicted energy  -7.8034322516970454     
 PAO| ======================= Iteration:        22 =============================

     Lanczos converged:  T threshold:   0.100E-02
     Est. extremal eigenvalues:    0.276E+01   0.183E+00
     Est. condition number :    0.151E+02

 Order=           3
     NS sqrt iter    1 1.00000000   0.705E+00       0.001       64.512
     NS sqrt iter    2 1.00000000   0.330E+00       0.001      110.592
     NS sqrt iter    3 1.00000000   0.746E-01       0.001      110.592
     NS sqrt iter    4 1.00000000   0.175E-02       0.001      110.592
     NS sqrt iter    5 1.00000000   0.456E-07       0.001       70.528
     Symmetrizing Results
     Final NS sqrt iter    5 1.00000000   0.340E-09

     Est. extremal eigenvalues     -0.93733     1.67888  converged:  T
     TRS4 it   1 1.00000000   0.864E+00       0.000       16.128   0.100E-07
     TRS4 it   2 1.00000000   0.610E+00       0.000       32.256   0.100E-07
     TRS4 it   3 1.00000000   0.415E+00       0.000       32.256   0.100E-07
     TRS4 it   4 1.00000000   0.209E+00       0.000       32.256   0.100E-07
     TRS4 it   5 1.00000000   0.655E-01       0.000       32.256   0.100E-07
     TRS4 it   6 1.00000000   0.808E-02       0.000       32.256   0.100E-07
     TRS4 it   7 1.00000000   0.165E-03       0.000       32.256   0.100E-07
     TRS4 it   8 1.00000000   0.960E-07       0.000       32.256   0.100E-07
     TRS4 it   9 1.00000000   0.386E-13       0.000       32.256   0.100E-07
     Final TRS4 iteration    9 1.00000000   0.386E-13
     Chemical potential (mu):       0.01252
 
 PAO| energy:  -7.8034322877489135      penalty:   1.4525256774928344E-005
 PAO|CG| trace_G_new    2.2548415039804208E-004
 PAO|CG| trace_G_prev    7.2958613436804073E-004
 PAO|CG| trace_G_mix    3.0945274618235991E-006
 PAO|CG| trace_D    9.9180004544794568E-004
 PAO|CG| trace_D_Gnew  -1.9054474933504749E-006
 PAO|CG| beta:   0.30481613131100671     
 PAO| norm of gradient:   1.5016129674388206E-002
 PAO| energy improvement:  -1.6325258669791509E-004
 PAO| step     22                   -7.803432288  0.939E-03  0.445E+00     0.048
 PAO|LS| adapt:  T F F
 PAO|LS| adapt: scan_steps:    0.0000000000000000        0.0000000000000000        0.0000000000000000     
 PAO|LS| adapt: energies:   -7.8034322877489135        0.0000000000000000        0.0000000000000000     
 PAO| ======================= Iteration:        23 =============================

     Lanczos converged:  T threshold:   0.100E-02
     Est. extremal eigenvalues:    0.276E+01   0.183E+00
     Est. condition number :    0.151E+02

 Order=           3
     NS sqrt iter    1 1.00000000   0.705E+00       0.001       64.512
     NS sqrt iter    2 1.00000000   0.330E+00       0.001      110.592
     NS sqrt iter    3 1.00000000   0.747E-01       0.001      110.592
     NS sqrt iter    4 1.00000000   0.175E-02       0.001      110.592
     NS sqrt iter    5 1.00000000   0.457E-07       0.001       70.528
     Symmetrizing Results
     Final NS sqrt iter    5 1.00000000   0.342E-09

     Est. extremal eigenvalues     -0.93733     1.67866  converged:  T
     TRS4 it   1 1.00000000   0.864E+00       0.000       16.128   0.100E-07
     TRS4 it   2 1.00000000   0.610E+00       0.000       32.256   0.100E-07
     TRS4 it   3 1.00000000   0.415E+00       0.000       32.256   0.100E-07
     TRS4 it   4 1.00000000   0.209E+00       0.000       32.256   0.100E-07
     TRS4 it   5 1.00000000   0.655E-01       0.000       32.256   0.100E-07
     TRS4 it   6 1.00000000   0.811E-02       0.000       32.256   0.100E-07
     TRS4 it   7 1.00000000   0.166E-03       0.000       32.256   0.100E-07
     TRS4 it   8 1.00000000   0.982E-07       0.000       32.256   0.100E-07
     TRS4 it   9 1.00000000   0.425E-13       0.000       32.256   0.100E-07
     Final TRS4 iteration    9 1.00000000   0.425E-13
     Chemical potential (mu):       0.01223
 
 PAO| energy:  -7.8034825128187242      penalty:   1.3840675327957001E-005
 PAO|LS| adapt:  T T F
 PAO|LS| adapt: scan_steps:    0.0000000000000000       0.44478384648320862        0.0000000000000000     
 PAO|LS| adapt: energies:   -7.8034322877489135       -7.8034825128187242        0.0000000000000000     
 PAO| ======================= Iteration:        24 =============================

     Lanczos converged:  T threshold:   0.100E-02
     Est. extremal eigenvalues:    0.276E+01   0.183E+00
     Est. condition number :    0.151E+02

 Order=           3
     NS sqrt iter    1 1.00000000   0.705E+00       0.001       64.512
     NS sqrt iter    2 1.00000000   0.330E+00       0.001      110.592
     NS sqrt iter    3 1.00000000   0.747E-01       0.001      110.592
     NS sqrt iter    4 1.00000000   0.175E-02       0.001      110.592
     NS sqrt iter    5 1.00000000   0.457E-07       0.001       70.528
     Symmetrizing Results
     Final NS sqrt iter    5 1.00000000   0.345E-09

     Est. extremal eigenvalues     -0.93733     1.67844  converged:  T
     TRS4 it   1 1.00000000   0.864E+00       0.000       16.128   0.100E-07
     TRS4 it   2 1.00000000   0.610E+00       0.000       32.256   0.100E-07
     TRS4 it   3 1.00000000   0.416E+00       0.000       32.256   0.100E-07
     TRS4 it   4 1.00000000   0.209E+00       0.000       32.256   0.100E-07
     TRS4 it   5 1.00000000   0.656E-01       0.000       32.256   0.100E-07
     TRS4 it   6 1.00000000   0.815E-02       0.000       32.256   0.100E-07
     TRS4 it   7 1.00000000   0.168E-03       0.000       32.256   0.100E-07
     TRS4 it   8 1.00000000   0.100E-06       0.000       32.256   0.100E-07
     TRS4 it   9 1.00000000   0.441E-13       0.000       32.256   0.100E-07
     Final TRS4 iteration    9 1.00000000   0.441E-13
     Chemical potential (mu):       0.01194
 
 PAO| energy:  -7.8034314299006766      penalty:   1.3184754005778227E-005
 PAO|LS| adapt:  T T T
 PAO|LS| adapt: scan_steps:    0.0000000000000000       0.44478384648320862       0.88956769296641724     
 PAO|LS| adapt: energies:   -7.8034322877489135       -7.8034825128187242       -7.8034314299006766     
 PAO|LS| adapt: suggested step_size:   0.44290069271335547     
 PAO|LS| adapt: predicted energy  -7.8034825137267259     
 PAO| ======================= Iteration:        25 =============================

     Lanczos converged:  T threshold:   0.100E-02
     Est. extremal eigenvalues:    0.276E+01   0.183E+00
     Est. condition number :    0.151E+02

 Order=           3
     NS sqrt iter    1 1.00000000   0.705E+00       0.001       64.512
     NS sqrt iter    2 1.00000000   0.330E+00       0.001      110.592
     NS sqrt iter    3 1.00000000   0.747E-01       0.001      110.592
     NS sqrt iter    4 1.00000000   0.175E-02       0.001      110.592
     NS sqrt iter    5 1.00000000   0.457E-07       0.001       70.528
     Symmetrizing Results
     Final NS sqrt iter    5 1.00000000   0.342E-09

     Est. extremal eigenvalues     -0.93733     1.67866  converged:  T
     TRS4 it   1 1.00000000   0.864E+00       0.000       16.128   0.100E-07
     TRS4 it   2 1.00000000   0.610E+00       0.000       32.256   0.100E-07
     TRS4 it   3 1.00000000   0.415E+00       0.000       32.256   0.100E-07
     TRS4 it   4 1.00000000   0.209E+00       0.000       32.256   0.100E-07
     TRS4 it   5 1.00000000   0.655E-01       0.000       32.256   0.100E-07
     TRS4 it   6 1.00000000   0.811E-02       0.000       32.256   0.100E-07
     TRS4 it   7 1.00000000   0.166E-03       0.000       32.256   0.100E-07
     TRS4 it   8 1.00000000   0.982E-07       0.000       32.256   0.100E-07
     TRS4 it   9 1.00000000   0.427E-13       0.001       32.256   0.100E-07
     Final TRS4 iteration    9 1.00000000   0.427E-13
     Chemical potential (mu):       0.01223
 
 PAO| energy:  -7.8034825130300041      penalty:   1.3843512901711313E-005
 PAO|CG| trace_G_new    8.1757689437974819E-005
 PAO|CG| trace_G_prev    2.2548415039804208E-004
 PAO|CG| trace_G_mix    7.4556884515168546E-007
 PAO|CG| trace_D    3.1879676522878809E-004
 PAO|CG| trace_D_Gnew  -3.7007002887911535E-007
 PAO|CG| beta:   0.35928077627546889     
 PAO| norm of gradient:   9.0419958769054308E-003
 PAO| energy improvement:  -5.0225281090554574E-005
 PAO| step     25                   -7.803482513  0.565E-03  0.443E+00     0.037
 PAO|LS| adapt:  T F F
 PAO|LS| adapt: scan_steps:    0.0000000000000000        0.0000000000000000        0.0000000000000000     
 PAO|LS| adapt: energies:   -7.8034825130300041        0.0000000000000000        0.0000000000000000     
 PAO| ======================= Iteration:        26 =============================

     Lanczos converged:  T threshold:   0.100E-02
     Est. extremal eigenvalues:    0.276E+01   0.183E+00
     Est. condition number :    0.151E+02

 Order=           3
     NS sqrt iter    1 1.00000000   0.705E+00       0.001       64.512
     NS sqrt iter    2 1.00000000   0.330E+00       0.001      110.592
     NS sqrt iter    3 1.00000000   0.746E-01       0.001      110.592
     NS sqrt iter    4 1.00000000   0.174E-02       0.001      110.592
     NS sqrt iter    5 1.00000000   0.454E-07       0.001       70.400
     Symmetrizing Results
     Final NS sqrt iter    5 1.00000000   0.338E-09

     Est. extremal eigenvalues     -0.93733     1.67831  converged:  T
     TRS4 it   1 1.00000000   0.864E+00       0.000       16.128   0.100E-07
     TRS4 it   2 1.00000000   0.610E+00       0.000       32.256   0.100E-07
     TRS4 it   3 1.00000000   0.415E+00       0.000       32.256   0.100E-07
     TRS4 it   4 1.00000000   0.209E+00       0.000       32.256   0.100E-07
     TRS4 it   5 1.00000000   0.654E-01       0.000       32.256   0.100E-07
     TRS4 it   6 1.00000000   0.809E-02       0.000       32.256   0.100E-07
     TRS4 it   7 1.00000000   0.165E-03       0.000       32.256   0.100E-07
     TRS4 it   8 1.00000000   0.966E-07       0.000       32.256   0.100E-07
     TRS4 it   9 1.00000000   0.404E-13       0.000       32.256   0.100E-07
     Final TRS4 iteration    9 1.00000000   0.404E-13
     Chemical potential (mu):       0.01238
 
 PAO| energy:  -7.8034869468124555      penalty:   1.3115927886391349E-005
 PAO|LS| adapt:  T T F
 PAO|LS| adapt: scan_steps:    0.0000000000000000       0.44290069271335547        0.0000000000000000     
 PAO|LS| adapt: energies:   -7.8034825130300041       -7.8034869468124555        0.0000000000000000     
 PAO| ======================= Iteration:        27 =============================

     Lanczos converged:  T threshold:   0.100E-02
     Est. extremal eigenvalues:    0.276E+01   0.183E+00
     Est. condition number :    0.151E+02

 Order=           3
     NS sqrt iter    1 1.00000000   0.705E+00       0.001       64.512
     NS sqrt iter    2 1.00000000   0.329E+00       0.001      110.592
     NS sqrt iter    3 1.00000000   0.745E-01       0.001      110.592
     NS sqrt iter    4 1.00000000   0.174E-02       0.001      110.592
     NS sqrt iter    5 1.00000000   0.451E-07       0.001       70.272
     Symmetrizing Results
     Final NS sqrt iter    5 1.00000000   0.343E-09

     Est. extremal eigenvalues     -0.93733     1.67796  converged:  T
     TRS4 it   1 1.00000000   0.864E+00       0.000       16.128   0.100E-07
     TRS4 it   2 1.00000000   0.610E+00       0.000       32.256   0.100E-07
     TRS4 it   3 1.00000000   0.415E+00       0.000       32.256   0.100E-07
     TRS4 it   4 1.00000000   0.209E+00       0.000       32.256   0.100E-07
     TRS4 it   5 1.00000000   0.654E-01       0.000       32.256   0.100E-07
     TRS4 it   6 1.00000000   0.807E-02       0.000       32.256   0.100E-07
     TRS4 it   7 1.00000000   0.164E-03       0.000       32.256   0.100E-07
     TRS4 it   8 1.00000000   0.952E-07       0.000       32.256   0.100E-07
     TRS4 it   9 1.00000000   0.404E-13       0.000       32.256   0.100E-07
     Final TRS4 iteration    9 1.00000000   0.404E-13
     Chemical potential (mu):       0.01253
 
 PAO| energy:  -7.8034275960118151      penalty:   1.2412473626645682E-005
 PAO|LS| adapt:  T T T
 PAO|LS| adapt: scan_steps:    0.0000000000000000       0.44290069271335547       0.88580138542671094     
 PAO|LS| adapt: energies:   -7.8034825130300041       -7.8034869468124555       -7.8034275960118151     
 PAO|LS| adapt: suggested step_size:   0.25223717953616026     
 PAO|LS| adapt: predicted energy  -7.8034928570942599     
 PAO| ======================= Iteration:        28 =============================

     Lanczos converged:  T threshold:   0.100E-02
     Est. extremal eigenvalues:    0.276E+01   0.183E+00
     Est. condition number :    0.151E+02

 Order=           3
     NS sqrt iter    1 1.00000000   0.705E+00       0.001       64.512
     NS sqrt iter    2 1.00000000   0.330E+00       0.001      110.592
     NS sqrt iter    3 1.00000000   0.746E-01       0.001      110.592
     NS sqrt iter    4 1.00000000   0.175E-02       0.001      110.592
     NS sqrt iter    5 1.00000000   0.455E-07       0.001       70.400
     Symmetrizing Results
     Final NS sqrt iter    5 1.00000000   0.339E-09

     Est. extremal eigenvalues     -0.93733     1.67847  converged:  T
     TRS4 it   1 1.00000000   0.864E+00       0.000       16.128   0.100E-07
     TRS4 it   2 1.00000000   0.610E+00       0.000       32.256   0.100E-07
     TRS4 it   3 1.00000000   0.415E+00       0.000       32.256   0.100E-07
     TRS4 it   4 1.00000000   0.209E+00       0.000       32.256   0.100E-07
     TRS4 it   5 1.00000000   0.655E-01       0.000       32.256   0.100E-07
     TRS4 it   6 1.00000000   0.810E-02       0.000       32.256   0.100E-07
     TRS4 it   7 1.00000000   0.166E-03       0.000       32.256   0.100E-07
     TRS4 it   8 1.00000000   0.973E-07       0.000       32.256   0.100E-07
     TRS4 it   9 1.00000000   0.413E-13       0.000       32.256   0.100E-07
     Final TRS4 iteration    9 1.00000000   0.413E-13
     Chemical potential (mu):       0.01232
 
 PAO| energy:  -7.8034928478458028      penalty:   1.3426166686680863E-005
 PAO|CG| trace_G_new    3.3362503506319880E-005
 PAO|CG| trace_G_prev    8.1757689437974819E-005
 PAO|CG| trace_G_mix    5.4849886521709405E-008
 PAO|CG| trace_D    1.2317474715246567E-004
 PAO|CG| trace_D_Gnew  -2.5065712196571050E-008
 PAO|CG| beta:   0.40739475208710374     
 PAO| norm of gradient:   5.7760283505467564E-003
 PAO| energy improvement:  -1.0334815798707098E-005
 PAO| step     28                   -7.803492848  0.361E-03  0.252E+00     0.037
 PAO|LS| adapt:  T F F
 PAO|LS| adapt: scan_steps:    0.0000000000000000        0.0000000000000000        0.0000000000000000     
 PAO|LS| adapt: energies:   -7.8034928478458028        0.0000000000000000        0.0000000000000000     
 PAO| ======================= Iteration:        29 =============================

     Lanczos converged:  T threshold:   0.100E-02
     Est. extremal eigenvalues:    0.276E+01   0.183E+00
     Est. condition number :    0.151E+02

 Order=           3
     NS sqrt iter    1 1.00000000   0.705E+00       0.001       64.512
     NS sqrt iter    2 1.00000000   0.329E+00       0.001      110.592
     NS sqrt iter    3 1.00000000   0.745E-01       0.001      110.592
     NS sqrt iter    4 1.00000000   0.174E-02       0.001      110.592
     NS sqrt iter    5 1.00000000   0.454E-07       0.001       70.400
     Symmetrizing Results
     Final NS sqrt iter    5 1.00000000   0.339E-09

     Est. extremal eigenvalues     -0.93733     1.67838  converged:  T
     TRS4 it   1 1.00000000   0.864E+00       0.000       16.128   0.100E-07
     TRS4 it   2 1.00000000   0.610E+00       0.000       32.256   0.100E-07
     TRS4 it   3 1.00000000   0.415E+00       0.000       32.256   0.100E-07
     TRS4 it   4 1.00000000   0.209E+00       0.000       32.256   0.100E-07
     TRS4 it   5 1.00000000   0.654E-01       0.000       32.256   0.100E-07
     TRS4 it   6 1.00000000   0.808E-02       0.000       32.256   0.100E-07
     TRS4 it   7 1.00000000   0.165E-03       0.000       32.256   0.100E-07
     TRS4 it   8 1.00000000   0.959E-07       0.000       32.256   0.100E-07
     TRS4 it   9 1.00000000   0.395E-13       0.000       32.256   0.100E-07
     Final TRS4 iteration    9 1.00000000   0.395E-13
     Chemical potential (mu):       0.01247
 
 PAO| energy:  -7.8035002511511706      penalty:   1.2985810466451824E-005
 PAO|LS| adapt:  T T F
 PAO|LS| adapt: scan_steps:    0.0000000000000000       0.25223717953616026        0.0000000000000000     
 PAO|LS| adapt: energies:   -7.8034928478458028       -7.8035002511511706        0.0000000000000000     
 PAO| ======================= Iteration:        30 =============================

     Lanczos converged:  T threshold:   0.100E-02
     Est. extremal eigenvalues:    0.276E+01   0.183E+00
     Est. condition number :    0.151E+02

 Order=           3
     NS sqrt iter    1 1.00000000   0.705E+00       0.001       64.512
     NS sqrt iter    2 1.00000000   0.329E+00       0.001      110.592
     NS sqrt iter    3 1.00000000   0.745E-01       0.001      110.592
     NS sqrt iter    4 1.00000000   0.174E-02       0.001      110.592
     NS sqrt iter    5 1.00000000   0.454E-07       0.001       70.272
     Symmetrizing Results
     Final NS sqrt iter    5 1.00000000   0.345E-09

     Est. extremal eigenvalues     -0.93733     1.67828  converged:  T
     TRS4 it   1 1.00000000   0.864E+00       0.000       16.128   0.100E-07
     TRS4 it   2 1.00000000   0.610E+00       0.000       32.256   0.100E-07
     TRS4 it   3 1.00000000   0.415E+00       0.000       32.256   0.100E-07
     TRS4 it   4 1.00000000   0.209E+00       0.000       32.256   0.100E-07
     TRS4 it   5 1.00000000   0.653E-01       0.000       32.256   0.100E-07
     TRS4 it   6 1.00000000   0.805E-02       0.000       32.256   0.100E-07
     TRS4 it   7 1.00000000   0.164E-03       0.000       32.256   0.100E-07
     TRS4 it   8 1.00000000   0.945E-07       0.000       32.256   0.100E-07
     TRS4 it   9 1.00000000   0.394E-13       0.000       32.256   0.100E-07
     Final TRS4 iteration    9 1.00000000   0.394E-13
     Chemical potential (mu):       0.01262
 
 PAO| energy:  -7.8035056264031510      penalty:   1.2553688932009824E-005
 PAO|LS| adapt:  T T F
 PAO|LS| adapt: scan_steps:    0.0000000000000000       0.50447435907232052        0.0000000000000000     
 PAO|LS| adapt: energies:   -7.8034928478458028       -7.8035056264031510        0.0000000000000000     
 PAO| ======================= Iteration:        31 =============================

     Lanczos converged:  T threshold:   0.100E-02
     Est. extremal eigenvalues:    0.276E+01   0.183E+00
     Est. condition number :    0.151E+02

 Order=           3
     NS sqrt iter    1 1.00000000   0.704E+00       0.001       64.512
     NS sqrt iter    2 1.00000000   0.329E+00       0.001      110.592
     NS sqrt iter    3 1.00000000   0.743E-01       0.001      110.592
     NS sqrt iter    4 1.00000000   0.174E-02       0.001      110.592
     NS sqrt iter    5 1.00000000   0.452E-07       0.001       70.272
     Symmetrizing Results
     Final NS sqrt iter    5 1.00000000   0.343E-09

     Est. extremal eigenvalues     -0.93734     1.67810  converged:  T
     TRS4 it   1 1.00000000   0.864E+00       0.000       16.128   0.100E-07
     TRS4 it   2 1.00000000   0.610E+00       0.000       32.256   0.100E-07
     TRS4 it   3 1.00000000   0.415E+00       0.000       32.256   0.100E-07
     TRS4 it   4 1.00000000   0.208E+00       0.000       32.256   0.100E-07
     TRS4 it   5 1.00000000   0.651E-01       0.000       32.256   0.100E-07
     TRS4 it   6 1.00000000   0.801E-02       0.000       32.256   0.100E-07
     TRS4 it   7 1.00000000   0.161E-03       0.000       32.256   0.100E-07
     TRS4 it   8 1.00000000   0.918E-07       0.000       32.256   0.100E-07
     TRS4 it   9 1.00000000   0.363E-13       0.000       32.256   0.100E-07
     Final TRS4 iteration    9 1.00000000   0.363E-13
     Chemical potential (mu):       0.01292
 
 PAO| energy:  -7.8035102926122644      penalty:   1.1713970748240089E-005
 PAO|LS| Need extra step
 PAO|LS| adapt:  T T F
 PAO|LS| adapt: scan_steps:    0.0000000000000000        1.0089487181446410        0.0000000000000000     
 PAO|LS| adapt: energies:   -7.8034928478458028       -7.8035102926122644        0.0000000000000000     
 PAO| ======================= Iteration:        32 =============================

     Lanczos converged:  T threshold:   0.100E-02
     Est. extremal eigenvalues:    0.275E+01   0.183E+00
     Est. condition number :    0.151E+02

 Order=           3
     NS sqrt iter    1 1.00000000   0.703E+00       0.001       64.512
     NS sqrt iter    2 1.00000000   0.328E+00       0.001      110.592
[...]
     TRS4 it   1 1.00000000   0.876E+00       0.000       16.128   0.100E-07
     TRS4 it   2 1.00000000   0.631E+00       0.000       32.256   0.100E-07
     TRS4 it   3 1.00000000   0.455E+00       0.000       32.256   0.100E-07
     TRS4 it   4 1.00000000   0.278E+00       0.000       32.256   0.100E-07
     TRS4 it   5 1.00000000   0.138E+00       0.000       32.256   0.100E-07
     TRS4 it   6 1.00000000   0.433E-01       0.000       32.256   0.100E-07
     TRS4 it   7 1.00000000   0.601E-02       0.000       32.256   0.100E-07
     TRS4 it   8 1.00000000   0.154E-03       0.000       32.256   0.100E-07
     TRS4 it   9 1.00000000   0.106E-06       0.000       32.256   0.100E-07
     TRS4 it  10 1.00000000   0.505E-13       0.000       32.256   0.100E-07
     Final TRS4 iteration   10 1.00000000   0.505E-13
     Chemical potential (mu):      -0.07624
 
 PAO| energy:  -7.8028963852961644      penalty:   2.5779147262588243E-008
 PAO|CG| warming up with steepest descent
 PAO|CG| beta:    0.0000000000000000     
 PAO| norm of gradient:   1.2304926952694909E-004
 PAO| energy improvement:  -5.2771333969303669E-009
 PAO| step    425                   -7.802896385  0.769E-05  0.257E+00     0.054
 PAO| converged after          425  steps :-)
 PAO| Recalculating energy after mixing.

     Lanczos converged:  T threshold:   0.100E-02
     Est. extremal eigenvalues:    0.252E+01   0.190E+00
     Est. condition number :    0.133E+02

 Order=           3
     NS sqrt iter    1 1.00000000   0.639E+00       0.001       64.512
     NS sqrt iter    2 1.00000000   0.278E+00       0.001      110.592
     NS sqrt iter    3 1.00000000   0.494E-01       0.001      110.592
     NS sqrt iter    4 1.00000000   0.812E-03       0.001      110.592
     NS sqrt iter    5 1.00000000   0.707E-08       0.001       38.272
     Symmetrizing Results
     Final NS sqrt iter    5 1.00000000   0.412E-09

     Est. extremal eigenvalues     -0.93703     1.62834  converged:  T
     TRS4 it   1 1.00000000   0.876E+00       0.000       16.128   0.100E-07
     TRS4 it   2 1.00000000   0.631E+00       0.000       32.256   0.100E-07
     TRS4 it   3 1.00000000   0.455E+00       0.000       32.256   0.100E-07
     TRS4 it   4 1.00000000   0.278E+00       0.000       32.256   0.100E-07
     TRS4 it   5 1.00000000   0.138E+00       0.000       32.256   0.100E-07
     TRS4 it   6 1.00000000   0.433E-01       0.000       32.256   0.100E-07
     TRS4 it   7 1.00000000   0.601E-02       0.000       32.256   0.100E-07
     TRS4 it   8 1.00000000   0.154E-03       0.000       32.256   0.100E-07
     TRS4 it   9 1.00000000   0.106E-06       0.000       32.256   0.100E-07
     TRS4 it  10 1.00000000   0.510E-13       0.000       32.256   0.100E-07
     Final TRS4 iteration   10 1.00000000   0.510E-13
     Chemical potential (mu):      -0.07625
 
 PAO| energy:  -7.8028963839768650      penalty:   2.6047478469158161E-008
 PAO| Writing restart file.
     Est. extremal eigenvalues     -0.93703     1.62834  converged:  T
     TRS4 it   1 1.00000000   0.876E+00       0.000       16.128   0.100E-07
     TRS4 it   2 1.00000000   0.631E+00       0.000       32.256   0.100E-07
     TRS4 it   3 1.00000000   0.455E+00       0.000       32.256   0.100E-07
     TRS4 it   4 1.00000000   0.278E+00       0.000       32.256   0.100E-07
     TRS4 it   5 1.00000000   0.138E+00       0.000       32.256   0.100E-07
     TRS4 it   6 1.00000000   0.433E-01       0.000       32.256   0.100E-07
     TRS4 it   7 1.00000000   0.601E-02       0.000       32.256   0.100E-07
     TRS4 it   8 1.00000000   0.154E-03       0.000       32.256   0.100E-07
     TRS4 it   9 1.00000000   0.106E-06       0.000       32.256   0.100E-07
     TRS4 it  10 1.00000000   0.510E-13       0.000       32.256   0.100E-07
     Final TRS4 iteration   10 1.00000000   0.510E-13
     Chemical potential (mu):      -0.07625

 SCF     1       -34.449935822       -34.449935822    1.788050

*********************************************************
 Using MIXING_FRACTION=0.450 to mix KS matrix:  iscf=  2
 KS_nw=0.450*KS + 0.550*KS_old
*********************************************************
     Est. extremal eigenvalues     -0.93704     1.62835  converged:  T
     TRS4 it   1 1.00000000   0.876E+00       0.000       16.128   0.100E-07
     TRS4 it   2 1.00000000   0.631E+00       0.000       32.256   0.100E-07
     TRS4 it   3 1.00000000   0.455E+00       0.000       32.256   0.100E-07
     TRS4 it   4 1.00000000   0.278E+00       0.000       32.256   0.100E-07
     TRS4 it   5 1.00000000   0.138E+00       0.000       32.256   0.100E-07
     TRS4 it   6 1.00000000   0.433E-01       0.000       32.256   0.100E-07
     TRS4 it   7 1.00000000   0.601E-02       0.000       32.256   0.100E-07
     TRS4 it   8 1.00000000   0.154E-03       0.000       32.256   0.100E-07
     TRS4 it   9 1.00000000   0.106E-06       0.000       32.256   0.100E-07
     TRS4 it  10 1.00000000   0.517E-13       0.000       32.256   0.100E-07
     Final TRS4 iteration   10 1.00000000   0.517E-13
     Chemical potential (mu):      -0.07624

 SCF     2       -34.449935823        -0.000000000    1.767638


 SCF run converged in     2 steps.

 PAO| Storing density matrix for ASPC guess in slot:           1

 ENERGY| Total FORCE_EVAL ( QS ) energy [a.u.]:              -34.449935822623075

 -------------------------------------------------------------------------------
 -                                                                             -
 -                                DBCSR STATISTICS                             -
 -                                                                             -
 -------------------------------------------------------------------------------
 COUNTER                                    TOTAL       BLAS       SMM       ACC
 flops     5 x     5 x     4                20000       0.0%    100.0%      0.0%
 flops    13 x     5 x     4                20800       0.0%    100.0%      0.0%
 flops     5 x    13 x     4                20800       0.0%    100.0%      0.0%
 flops    13 x    13 x     4                40560       0.0%    100.0%      0.0%
 flops     4 x     4 x     5              3336960       0.0%    100.0%      0.0%
 flops     5 x     4 x     5              4076800       0.0%    100.0%      0.0%
 flops     4 x     4 x    13              4338048       0.0%    100.0%      0.0%
 flops    13 x     4 x     5              5299840       0.0%    100.0%      0.0%
 flops     5 x     4 x    13              5299840       0.0%    100.0%      0.0%
 flops     5 x     4 x     4              6456160       0.0%    100.0%      0.0%
 flops    13 x     4 x    13              6889792       0.0%    100.0%      0.0%
 flops    13 x     4 x     4              8561280       0.0%    100.0%      0.0%
 flops     4 x     4 x     4            431645184       0.0%    100.0%      0.0%
 flops inhomo. stacks                           0       0.0%      0.0%      0.0%
 flops total                       476.006064E+06       0.0%    100.0%      0.0%
 flops max/rank                    476.006064E+06       0.0%    100.0%      0.0%
 matmuls inhomo. stacks                         0       0.0%      0.0%      0.0%
 matmuls total                            3510517       0.0%    100.0%      0.0%
 number of processed stacks                 27978       0.0%    100.0%      0.0%
 average stack size                                     0.0     125.5       0.0
 marketing flops                   774.584064E+06
 -------------------------------------------------------------------------------
 # multiplications                          23406
 max memory usage/rank             505.192448E+06
 # max total images/rank                        1
 # max 3D layers                                1
 # MPI messages exchanged                       0
 -------------------------------------------------------------------------------

 -------------------------------------------------------------------------------
 -                                                                             -
 -                                DBM STATISTICS                               -
 -                                                                             -
 -------------------------------------------------------------------------------
    M  x    N  x    K                                          COUNT     PERCENT
 -------------------------------------------------------------------------------

 -------------------------------------------------------------------------------
 -                                                                             -
 -                                GRID STATISTICS                              -
 -                                                                             -
 -------------------------------------------------------------------------------
 LP    KERNEL             BACKEND                              COUNT     PERCENT
 2     collocate ortho    REF                                  38040      30.79%
 2     integrate ortho    REF                                  38040      30.79%
 3     collocate ortho    REF                                  19490      15.77%
 3     integrate ortho    REF                                  19490      15.77%
 4     collocate ortho    REF                                   4250       3.44%
 4     integrate ortho    REF                                   4250       3.44%
 0     collocate general  REF                                      6       0.00%
 -------------------------------------------------------------------------------

 MEMORY| Estimated peak process memory [MiB]                                 482

 -------------------------------------------------------------------------------
 -                                                                             -
 -                           R E F E R E N C E S                               -
 -                                                                             -
 -------------------------------------------------------------------------------
 
 CP2K version 2023.1 (Development Version), the CP2K developers group (2023).
 CP2K is freely available from https://www.cp2k.org/ .

 Kuehne,Thomas D.; Iannuzzi,Marcella; Del Ben,Mauro;
 Rybkin,Vladimir V.; Seewald,Patrick; Stein,Frederick; Laino,Teodoro;
 Khaliullin,Rustam Z.; Schuett,Ole; Schiffmann,Florian; Golze,Dorothea;
 Wilhelm,Jan; Chulkov,Sergey; Bani-Hashemian,Mohammad Hossein;
 Weber,Valery; Borstnik,Urban; Taillefumier,Mathieu;
 Jakobovits,Alice Shoshana; Lazzaro,Alfio; Pabst,Hans; Mueller,Tiziano;
 Schade,Robert; Guidon,Manuel; Andermatt,Samuel; Holmberg,Nico;
 Schenter,Gregory K.; Hehn,Anna; Bussy,Augustin; Belleflamme,Fabian;
 Tabacchi,Gloria; Gloess,Andreas; Lass,Michael; Bethune,Iain;
 Mundy,Christopher J.; Plessl,Christian; Watkins,Matt;
 VandeVondele,Joost; Krack,Matthias; Hutter,Juerg. 
 The Journal of Chemical Physics, 152 (19), (2020). 
 CP2K: An electronic structure and molecular dynamics software package -
 Quickstep: Efficient and accurate electronic structure calculations.
 https://doi.org/10.1063/5.0007045

 Schuett, O; VandeVondele, J. 
 Journal of Chemical Theory and Computation, 14, (2018). 
 Machine Learning Adaptive Basis Sets for Efficient Large Scale
 Density Functional Theory Simulation.
 https://doi.org/10.1021/acs.jctc.8b00378

 Schuett, Ole; Messmer, Peter; Hutter, Juerg; VandeVondele, Joost. 
 Electronic Structure Calculations on Graphics Processing Units, John
 Wiley & Sons, Ltd, 173-190 (2016). 
 GPU-Accelerated Sparse Matrix-Matrix Multiplication for
 Linear Scaling Density Functional Theory.
 https://doi.org/10.1002/9781118670712.ch8

 Heinecke, A; Henry, G; Hutchinson, M; Pabst, H. 
 Proceedings of Intl. Supercomputing Conference, 981-991 (2016). 
 LIBXSMM: Accelerating Small Matrix Multiplications
 by Runtime Code Generation.
 https://doi.org/10.1109/SC.2016.83

 Borstnik, U; VandeVondele, J; Weber, V; Hutter, J. 
 PARALLEL COMPUTING, 40 (5-6), 47-58 (2014). 
 Sparse matrix multiplication: The distributed block-compressed sparse
 row library.
 https://doi.org/10.1016/j.parco.2014.03.012

 Hutter, J; Iannuzzi, M; Schiffmann, F; VandeVondele, J. 
 WIREs Comput Mol Sci., 4 (1), 15-25 (2014). 
 CP2K: atomistic simulations of condensed matter systems.
 https://doi.org/10.1002/wcms.1159

 VandeVondele, J; Borstnik, U; Hutter, J. 
 JOURNAL OF CHEMICAL THEORY AND COMPUTATION, 8 (10), 3565-3573 (2012). 
 Linear Scaling Self-Consistent Field Calculations with Millions of Atoms
 in the Condensed Phase.
 https://doi.org/10.1021/ct200897x

 VandeVondele, J; Hutter, J. 
 JOURNAL OF CHEMICAL PHYSICS, 127 (11), 114105 (2007). 
 Gaussian basis sets for accurate calculations on molecular systems in
 gas and condensed phases.
 https://doi.org/10.1063/1.2770708

 Krack, M. 
 THEORETICAL CHEMISTRY ACCOUNTS, 114 (1-3), 145-152 (2005). 
 Pseudopotentials for H to Kr optimized for gradient-corrected
 exchange-correlation functionals.
 https://doi.org/10.1007/s00214-005-0655-y

 VandeVondele, J; Krack, M; Mohamed, F; Parrinello, M; Chassaing, T;
 Hutter, J. COMPUTER PHYSICS COMMUNICATIONS, 167 (2), 103-128 (2005). 
 QUICKSTEP: Fast and accurate density functional calculations using a
 mixed Gaussian and plane waves approach.
 https://doi.org/10.1016/j.cpc.2004.12.014

 Frigo, M; Johnson, SG. 
 PROCEEDINGS OF THE IEEE, 93 (2), 216-231 (2005). 
 The design and implementation of FFTW3.
 https://doi.org/10.1109/JPROC.2004.840301

 Niklasson, AMN; Tymczak, CJ; Challacombe, M. 
 JOURNAL OF CHEMICAL PHYSICS, 118 (19), 8611-8620 (2003). 
 Trace resetting density matrix purification in O(N)
 self-consistent-field theory.
 https://doi.org/10.1063/1.1559913

 Hartwigsen, C; Goedecker, S; Hutter, J. 
 PHYSICAL REVIEW B, 58 (7), 3641-3662 (1998). 
 Relativistic separable dual-space Gaussian pseudopotentials from H to Rn.
 https://doi.org/10.1103/PhysRevB.58.3641

 Lippert, G; Hutter, J; Parrinello, M. 
 MOLECULAR PHYSICS, 92 (3), 477-487 (1997). 
 A hybrid Gaussian and plane wave density functional scheme.
 https://doi.org/10.1080/002689797170220

 Perdew, JP; Burke, K; Ernzerhof, M. 
 PHYSICAL REVIEW LETTERS, 77 (18), 3865-3868 (1996). 
 Generalized gradient approximation made simple.
 https://doi.org/10.1103/PhysRevLett.77.3865

 Goedecker, S; Teter, M; Hutter, J. 
 PHYSICAL REVIEW B, 54 (3), 1703-1710 (1996). 
 Separable dual-space Gaussian pseudopotentials.
 https://doi.org/10.1103/PhysRevB.54.1703


 -------------------------------------------------------------------------------
 -                                                                             -
 -                                T I M I N G                                  -
 -                                                                             -
 -------------------------------------------------------------------------------
 SUBROUTINE                       CALLS  ASD         SELF TIME        TOTAL TIME
                                MAXIMUM       AVERAGE  MAXIMUM  AVERAGE  MAXIMUM
 CP2K                                 1  1.0    0.036    0.036   23.343   23.343
 qs_energies                          1  2.0    0.000    0.000   22.956   22.956
 ls_scf                               1  3.0    0.000    0.000   22.832   22.832
 ls_scf_main                          4  4.0    0.001    0.001   15.144   15.144
 ls_scf_dm_to_ks                      9  5.0    0.000    0.000   15.079   15.079
 qs_ks_update_qs_env                 10  6.0    0.000    0.000   13.466   13.466
 rebuild_ks_matrix                   10  7.0    0.000    0.000   13.466   13.466
 qs_ks_build_kohn_sham_matrix        10  8.0    0.003    0.003   13.466   13.466
 qs_vxc_create                       10  9.0    0.000    0.000    8.655    8.655
 xc_vxc_pw_create                    10 10.0    0.184    0.184    8.655    8.655
 pw_transfer                        191 11.1    0.019    0.019    7.080    7.080
 fft_wrap_pw1pw2                    171 12.3    0.003    0.003    6.872    6.872
 fft_wrap_pw1pw2_200                111 13.7    0.785    0.785    6.694    6.694
 pao_update                           4  4.0    0.006    0.006    5.349    5.349
 xc_pw_derive                        60 12.0    0.001    0.001    5.151    5.151
 xc_rho_set_and_dset_create          10 11.0    0.225    0.225    5.033    5.033
 pao_calc_energy                    428  5.0    0.002    0.002    4.847    4.847
 qs_rho_update_rho_low               10  6.0    0.000    0.000    3.915    3.915
 calculate_rho_elec                  10  7.0    0.037    0.037    3.915    3.915
 dbcsr_multiply_generic           23406  8.4    0.245    0.245    3.828    3.828
 sum_up_and_integrate                10  9.0    0.106    0.106    3.528    3.528
 integrate_v_rspace                  10 10.0    0.001    0.001    3.422    3.422
 xc_pw_divergence                    10 11.0    0.000    0.000    3.317    3.317
 fft3d_s                            172 14.2    2.629    2.629    2.642    2.642
 grid_integrate_task_list            10 11.0    2.615    2.615    2.615    2.615
 pao_dm_trs4                        428  6.0    0.002    0.002    2.537    2.537
 density_matrix_trs4                437  7.0    0.082    0.082    2.450    2.450
 grid_collocate_task_list            10  8.0    2.352    2.352    2.352    2.352
 pao_guess_initial_P                  1  4.0    0.000    0.000    2.306    2.306
 pao_read_preopt_dm                   1  5.0    0.000    0.000    2.306    2.306
 ls_scf_init_matrix_S               432  7.0    0.002    0.002    2.298    2.298
 pao_rebuild_S                      428  6.0    0.001    0.001    2.274    2.274
 matrix_sqrt_Newton_Schulz          432  8.0    0.060    0.060    2.073    2.073
 xc_functional_eval                  10 12.0    0.000    0.000    1.946    1.946
 pbe_lda_eval                        10 13.0    1.946    1.946    1.946    1.946
 pw_gather_s                         81 13.8    1.718    1.718    1.718    1.718
 pw_scatter_s                        90 14.7    1.701    1.701    1.701    1.701
 density_rs2pw                       10  8.0    0.001    0.001    1.526    1.526
 make_m2s                         46812  9.4    0.091    0.091    1.448    1.448
 multiply_cannon                  23406  9.4    0.582    0.582    1.424    1.424
 make_images                      46812 10.4    0.370    0.370    1.286    1.286
 pw_derive                           60 13.0    1.064    1.064    1.064    1.064
 potential_pw2rs                     10 11.0    0.001    0.001    0.806    0.806
 pw_copy                            120 11.8    0.775    0.775    0.775    0.775
 arnoldi_extremal                   869  8.5    0.002    0.002    0.764    0.764
 arnoldi_normal_ev                  869  9.5    0.007    0.007    0.761    0.761
 build_subspace                     869 10.5    0.033    0.033    0.592    0.592
 dbcsr_matrix_vector_mult         20850 11.5    0.066    0.066    0.549    0.549
 pw_axpy                             90 10.3    0.513    0.513    0.513    0.513
 pao_calc_AB                        564  5.8    0.001    0.001    0.498    0.498
 pao_calc_AB_equi                   564  6.8    0.016    0.016    0.498    0.498
 pw_poisson_solve                    10  9.0    0.096    0.096    0.495    0.495
 -------------------------------------------------------------------------------

 The number of warnings for this run is : 0
 
 -------------------------------------------------------------------------------
  **** **** ******  **  PROGRAM ENDED AT                 2023-02-01 10:45:43.171
 ***** ** ***  *** **   PROGRAM RAN ON                                    moritz
 **    ****   ******    PROGRAM RAN BY                                       ole
 ***** **    ** ** **   PROGRAM PROCESS ID                                148552
  **** **  *******  **  PROGRAM STOPPED IN /home/ole/git/pao_ml_equivar/2H2O_rot
                                           ations/phi_00
