 DBCSR| CPU Multiplication driver                                           XSMM
 DBCSR| Multrec recursion limit                                              512
 DBCSR| Multiplication stack size                                           1000
 DBCSR| Maximum elements for images                                    UNLIMITED
 DBCSR| Multiplicative factor virtual images                                   1
 DBCSR| Use multiplication densification                                       T
 DBCSR| Multiplication size stacks                                             3


  **** **** ******  **  PROGRAM STARTED AT               2019-02-14 01:09:51.496
 ***** ** ***  *** **   PROGRAM STARTED ON                                  otto
 **    ****   ******    PROGRAM STARTED BY                                   ole
 ***** **    ** ** **   PROGRAM PROCESS ID                                  5994
  **** **  *******  **  PROGRAM STARTED IN /home/ole/git/pao_ml_equivar/2H2O_MD/
                                           frame_0175

 CP2K| version string:                    CP2K version 7.0 (Development Version)
 CP2K| source code revision number:                                git:8bf305913
 CP2K| cp2kflags: libint fftw3 libxc xsmm libderiv_max_am1=5 libint_max_am=6    
 CP2K| is freely available from                            https://www.cp2k.org/
 CP2K| Program compiled at                           So Jan 13 00:02:37 CET 2019
 CP2K| Program compiled on                                                  otto
 CP2K| Program compiled for                                                local
 CP2K| Data directory path                               /home/ole/git/cp2k/data
 CP2K| Input file name                                            2H2O_pao44.inp

 GLOBAL| Force Environment number                                              1
 GLOBAL| Basis set file name                                        BASIS_MOLOPT
 GLOBAL| Potential file name                                      GTH_POTENTIALS
 GLOBAL| MM Potential file name                                     MM_POTENTIAL
 GLOBAL| Coordinate file name                                         coords.xyz
 GLOBAL| Method name                                                        CP2K
 GLOBAL| Project name                                                 2H2O_pao44
 GLOBAL| Preferred FFT library                                             FFTW3
 GLOBAL| Preferred diagonalization lib.                                       SL
 GLOBAL| Run type                                                         ENERGY
 GLOBAL| All-to-all communication in single precision                          F
 GLOBAL| FFTs using library dependent lengths                                  F
 GLOBAL| Global print level                                                  LOW
 GLOBAL| MPI I/O enabled                                                       T
 GLOBAL| Total number of message passing processes                             1
 GLOBAL| Number of threads for this process                                    1
 GLOBAL| This output is from process                                           0
 GLOBAL| CPU model name :  Intel(R) Core(TM) i5-3320M CPU @ 2.60GHz

 MEMORY| system memory details [Kb]
 MEMORY|                        rank 0           min           max       average
 MEMORY| MemTotal              7860772       7860772       7860772       7860772
 MEMORY| MemFree               2139844       2139844       2139844       2139844
 MEMORY| Buffers                280756        280756        280756        280756
 MEMORY| Cached                1930952       1930952       1930952       1930952
 MEMORY| Slab                   255436        255436        255436        255436
 MEMORY| SReclaimable           133140        133140        133140        133140
 MEMORY| MemLikelyFree         4484692       4484692       4484692       4484692


 GENERATE|  Preliminary Number of Bonds generated:                             0
 GENERATE|  Achieved consistency in connectivity generation.

 *******************************************************************************
 *******************************************************************************
 **                                                                           **
 **     #####                         ##              ##                      **
 **    ##   ##            ##          ##              ##                      **
 **   ##     ##                       ##            ######                    **
 **   ##     ##  ##   ##  ##   #####  ##  ##   ####   ##    #####    #####    **
 **   ##     ##  ##   ##  ##  ##      ## ##   ##      ##   ##   ##  ##   ##   **
 **   ##  ## ##  ##   ##  ##  ##      ####     ###    ##   ######   ######    **
 **    ##  ###   ##   ##  ##  ##      ## ##      ##   ##   ##       ##        **
 **     #######   #####   ##   #####  ##  ##  ####    ##    #####   ##        **
 **           ##                                                    ##        **
 **                                                                           **
 **                                                ... make the atoms dance   **
 **                                                                           **
 **            Copyright (C) by CP2K developers group (2000 - 2018)           **
 **                                                                           **
 *******************************************************************************


 TOTAL NUMBERS AND MAXIMUM NUMBERS

  Total number of            - Atomic kinds:                                   2
                             - Atoms:                                          6
                             - Shell sets:                                     6
                             - Shells:                                        22
                             - Primitive Cartesian functions:                 42
                             - Cartesian basis functions:                     48
                             - Spherical basis functions:                     46

  Maximum angular momentum of- Orbital basis functions:                        2
                             - Local part of the GTH pseudopotential:          2
                             - Non-local part of the GTH pseudopotential:      0

 ------------------------------ Linear scaling SCF -----------------------------
 eps_scf:                                       0.100E-07
 eps_filter:                                    0.100E-07
 mixing_fraction:                               0.450E+00
 max_scf:                                              25
 fixed chemical potential (mu)                          F
 has unit metric:                                       F
 Computing inv(S):                                      T
 Computing sqrt(S):                                     T
 Computing s preconditioner                             F
 sign sqrt order:                                       3
 Extrapolation order:                                   1
 Use single precision matrices                          F
 S preconditioner type                               NONE
 Polarized Atomic Orbitals (PAO)                        T
 Purification method                      Trace resetting 4th order
 Cluster type                                      ATOMIC
 Computing Chebyshev                                FALSE
 Using PAO                                              T
 -------------------------------------------------------------------------------

 
 PAO|                                  EPS_PAO                           0.5E-06
 PAO|                                  MIXING                            0.5E+00
 PAO|                                  MAX_PAO                              1000
 PAO|                                  MAX_CYCLES                           1000
 PAO|                                  PARAMETERIZATION                   DIRECT
 PAO|                                  PRECONDITION                            F
 PAO|                                  REGULARIZATION                    0.0E+00
 PAO|                                  EPS_PGF                           0.1E-09
 PAO|                                  PENALTY_DISTANCE                  0.1E+00
 PAO|                                  PENALTY_STRENGTH                  0.5E-02
 PAO|                                  LINPOT_PRECONDITION_DELTA         0.0E+00
 PAO|                                  LINPOT_INITGUESS_DELT             0.0E+00
 PAO|                                  LINPOT_REGULARIZATION_DELTA       0.0E+00
 PAO|                                  LINPOT_REGULARIZATION_STRENGTH    0.0E+00
 PAO|                                  OPTIMIZER                              CG
 PAO|                                  CG_INIT_STEPS                           2
 PAO|                                  CG_RESET_LIMIT                    0.1E+00
 PAO|                                  CHECK_UNITARY_TOL                -0.1E+01
 PAO|                                  CHECK_GRADIENT_TOL               -0.1E+01
 PAO|                                  NUM_GRADIENT_ORDER                      2
 PAO|                                  NUM_GRADIENT_EPS                  0.1E-07
 PAO|                                  PRINT%RESTART%WRITE_CYCLES            100
 PAO|                                  RESTART_FILE 
 PAO|                                  PREOPT_DM_FILE 2H2O_ref_LS_DM_SPIN_1_RESTART.dm
 PAO|                                  MACHINE_LEARNING%METHOD        GAUSSIAN_P
 PAO|                                  MACHINE_LEARNING%PRIOR               ZERO
 PAO|                                  MACHINE_LEARNING%DESCRIPTOR     POTENTIAL
 PAO|                                  MACHINE_LEARNING%TOLERANCE        0.1E-01
 PAO|                                  MACHINE_LEARNING%GP_NOISE_VAR     0.1E+00
 PAO|                                  MACHINE_LEARNING%GP_SCALE         0.5E-01
 

 Calculating atomic Fock matrix for atomic kind: O

 Electronic structure
    Total number of core electrons                                          2.00
    Total number of valence electrons                                       6.00
    Total number of electrons                                               8.00
    Multiplicity                                                   not specified
    S   [  2.00] 2.00
    P      4.00


 *******************************************************************************
                  Iteration          Convergence                     Energy [au]
 *******************************************************************************
                          1        0.708315                     -15.576645311500
                          2        0.608879                     -15.587933561584
                          3        0.102828E-01                 -15.656849565404
                          4        0.113889E-02                 -15.656866888140
                          5        0.434197E-03                 -15.656867072159
                          6        0.263771E-03                 -15.656867091904
                          7        0.478536E-06                 -15.656867103452

 Energy components [Hartree]           Total Energy ::          -15.656867103452
                                        Band Energy ::           -3.000198112285
                                     Kinetic Energy ::           11.759971203220
                                   Potential Energy ::          -27.416838306672
                                      Virial (-V/T) ::            2.331369510426
                                        Core Energy ::          -26.140716385623
                                          XC Energy ::           -3.154051012914
                                     Coulomb Energy ::           13.637900295084
                       Total Pseudopotential Energy ::          -37.935781716540
                       Local Pseudopotential Energy ::          -39.218907440693
                    Nonlocal Pseudopotential Energy ::            1.283125724153
                                        Confinement ::            0.350941276976

 Orbital energies  State     L     Occupation   Energy[a.u.]          Energy[eV]

                       1     0          2.000      -0.864471          -23.523463

                       1     1          4.000      -0.317814           -8.648154


 Total Electron Density at R=0:                                         0.000068

 Calculating atomic Fock matrix for atomic kind: H

 Electronic structure
    Total number of core electrons                                          0.00
    Total number of valence electrons                                       1.00
    Total number of electrons                                               1.00
    Multiplicity                                                   not specified
    S      1.00


 *******************************************************************************
                  Iteration          Convergence                     Energy [au]
 *******************************************************************************
                          1        0.437545E-02                  -0.424159432110
                          2        0.531356E-03                  -0.424178438213
                          3        0.259176E-06                  -0.424178722480

 Energy components [Hartree]           Total Energy ::           -0.424178722480
                                        Band Energy ::           -0.199015229016
                                     Kinetic Energy ::            0.464007633961
                                   Potential Energy ::           -0.888186356441
                                      Virial (-V/T) ::            1.914163240935
                                        Core Energy ::           -0.479160803564
                                          XC Energy ::           -0.244352904054
                                     Coulomb Energy ::            0.299334985138
                       Total Pseudopotential Energy ::           -0.962295316385
                       Local Pseudopotential Energy ::           -0.962295316385
                    Nonlocal Pseudopotential Energy ::            0.000000000000
                                        Confinement ::            0.191268788606

 Orbital energies  State     L     Occupation   Energy[a.u.]          Energy[eV]

                       1     0          1.000      -0.199015           -5.415480


 Total Electron Density at R=0:                                         0.242907
 PAO| Made initial guess for matrix_X with norm:   4.8989794855663558     

     Lanczos converged:  T threshold:   0.100E-02
     Est. extremal eigenvalues:    0.334E+01   0.114E+00
     Est. condition number :    0.293E+02
     NS sqrt iter    1 1.00000000   0.816E+00       0.001       47.007
     NS sqrt iter    2 1.00000000   0.440E+00       0.002       73.125
     NS sqrt iter    3 1.00000000   0.171E+00       0.001       83.487
     NS sqrt iter    4 1.00000000   0.206E-01       0.001       83.842
     NS sqrt iter    5 1.00000000   0.533E-04       0.001       63.152
     Final NS sqrt iter    5 1.00000000   0.459E-08

 PAO| Read restart DM 2H2O_ref_LS_DM_SPIN_1_RESTART.dm with checksum:    61.262346048791890     
 PAO| Quickstep energy from restart density:  -34.447389740216899     
 PAO| ======================= Iteration:         1 =============================

     Lanczos converged:  T threshold:   0.100E-02
     Est. extremal eigenvalues:    0.334E+01   0.114E+00
     Est. condition number :    0.293E+02
     NS sqrt iter    1 1.00000000   0.816E+00       0.001       56.453
     NS sqrt iter    2 1.00000000   0.440E+00       0.001      110.592
     NS sqrt iter    3 1.00000000   0.171E+00       0.001       88.773
     NS sqrt iter    4 1.00000000   0.206E-01       0.001      106.247
     NS sqrt iter    5 1.00000000   0.533E-04       0.001       83.850
     Final NS sqrt iter    5 1.00000000   0.459E-08

     Est. extremal eigenvalues     -0.91131     1.77147  converged:  T
     TRS4 it   1 1.00000000   0.849E+00       0.001       16.005   0.100E-07
     TRS4 it   2 1.00000000   0.660E+00       0.001       32.256   0.100E-07
     TRS4 it   3 1.00000000   0.480E+00       0.001       32.256   0.100E-07
     TRS4 it   4 1.00000000   0.297E+00       0.001       32.256   0.100E-07
     TRS4 it   5 1.00000000   0.142E+00       0.001       32.256   0.100E-07
     TRS4 it   6 1.00000000   0.395E-01       0.001       32.256   0.100E-07
     TRS4 it   7 1.00000000   0.415E-02       0.001       32.256   0.100E-07
     TRS4 it   8 1.00000000   0.607E-04       0.001       32.256   0.100E-07
     TRS4 it   9 1.00000000   0.149E-07       0.001       32.256   0.100E-07
     Final TRS4 iteration    9 1.00000000   0.149E-07
     Chemical potential (mu):      -0.06861
 
 PAO| energy:  -7.6470933242189663      penalty:   6.5943841295818973E-033
 PAO|CG| warming up with steepest descent
 PAO|CG| beta:    0.0000000000000000     
 PAO| norm of gradient:  0.78850493770800167     
 PAO|LS| adapt:  T F F
 PAO|LS| adapt: scan_steps:    0.0000000000000000        0.0000000000000000        0.0000000000000000     
 PAO|LS| adapt: energies:   -7.6470933242189663        0.0000000000000000        0.0000000000000000     
 PAO| ======================= Iteration:         2 =============================

     Lanczos converged:  T threshold:   0.100E-02
     Est. extremal eigenvalues:    0.325E+01   0.129E+00
     Est. condition number :    0.253E+02
     NS sqrt iter    1 1.00000000   0.800E+00       0.001       64.512
     NS sqrt iter    2 1.00000000   0.425E+00       0.001      110.592
     NS sqrt iter    3 1.00000000   0.153E+00       0.001      103.930
     NS sqrt iter    4 1.00000000   0.141E-01       0.001      100.621
     NS sqrt iter    5 1.00000000   0.156E-04       0.001       81.895
     Final NS sqrt iter    5 1.00000000   0.363E-09

     Est. extremal eigenvalues     -0.91503     1.71282  converged:  T
     TRS4 it   1 1.00000000   0.841E+00       0.000       16.128   0.100E-07
     TRS4 it   2 1.00000000   0.640E+00       0.001       32.256   0.100E-07
     TRS4 it   3 1.00000000   0.460E+00       0.001       32.256   0.100E-07
     TRS4 it   4 1.00000000   0.273E+00       0.001       32.256   0.100E-07
     TRS4 it   5 1.00000000   0.120E+00       0.001       32.256   0.100E-07
     TRS4 it   6 1.00000000   0.285E-01       0.001       32.256   0.100E-07
     TRS4 it   7 1.00000000   0.218E-02       0.001       32.256   0.100E-07
     TRS4 it   8 1.00000000   0.170E-04       0.001       32.256   0.100E-07
     TRS4 it   9 1.00000000   0.118E-08       0.001       32.256   0.100E-07
     Final TRS4 iteration    9 1.00000000   0.118E-08
     Chemical potential (mu):      -0.05644
 
 PAO| energy:  -7.7032485728974134      penalty:   2.2868439192772127E-008
 PAO|LS| adapt:  T T F
 PAO|LS| adapt: scan_steps:    0.0000000000000000       0.10000000000000001        0.0000000000000000     
 PAO|LS| adapt: energies:   -7.6470933242189663       -7.7032485728974134        0.0000000000000000     
 PAO| ======================= Iteration:         3 =============================

     Lanczos converged:  T threshold:   0.100E-02
     Est. extremal eigenvalues:    0.315E+01   0.142E+00
     Est. condition number :    0.222E+02
     NS sqrt iter    1 1.00000000   0.782E+00       0.001       55.451
     NS sqrt iter    2 1.00000000   0.408E+00       0.001       97.909
     NS sqrt iter    3 1.00000000   0.136E+00       0.001      101.984
     NS sqrt iter    4 1.00000000   0.962E-02       0.001      109.216
     NS sqrt iter    5 1.00000000   0.458E-05       0.001       82.944
     Final NS sqrt iter    5 1.00000000   0.299E-10

     Est. extremal eigenvalues     -0.91851     1.67044  converged:  T
     TRS4 it   1 1.00000000   0.836E+00       0.001       16.128   0.100E-07
     TRS4 it   2 1.00000000   0.623E+00       0.001       32.256   0.100E-07
     TRS4 it   3 1.00000000   0.442E+00       0.001       32.256   0.100E-07
     TRS4 it   4 1.00000000   0.251E+00       0.001       32.256   0.100E-07
     TRS4 it   5 1.00000000   0.101E+00       0.001       32.256   0.100E-07
     TRS4 it   6 1.00000000   0.199E-01       0.001       32.256   0.100E-07
     TRS4 it   7 1.00000000   0.105E-02       0.001       32.256   0.100E-07
     TRS4 it   8 1.00000000   0.397E-05       0.001       32.256   0.100E-07
     TRS4 it   9 1.00000000   0.653E-10       0.001       32.256   0.100E-07
     Final TRS4 iteration    9 1.00000000   0.653E-10
     Chemical potential (mu):      -0.04299
 
 PAO| energy:  -7.7467121252687594      penalty:   3.6589423346730814E-007
 PAO|LS| adapt:  T T F
 PAO|LS| adapt: scan_steps:    0.0000000000000000       0.20000000000000001        0.0000000000000000     
 PAO|LS| adapt: energies:   -7.6470933242189663       -7.7467121252687594        0.0000000000000000     
 PAO| ======================= Iteration:         4 =============================

     Lanczos converged:  T threshold:   0.100E-02
     Est. extremal eigenvalues:    0.296E+01   0.161E+00
     Est. condition number :    0.184E+02
     NS sqrt iter    1 1.00000000   0.745E+00       0.001       64.512
     NS sqrt iter    2 1.00000000   0.374E+00       0.001       99.381
     NS sqrt iter    3 1.00000000   0.106E+00       0.001      110.106
     NS sqrt iter    4 1.00000000   0.460E-02       0.001      110.592
     NS sqrt iter    5 1.00000000   0.571E-06       0.001       82.560
     Final NS sqrt iter    5 1.00000000   0.134E-09

     Est. extremal eigenvalues     -0.92396     1.62482  converged:  T
     TRS4 it   1 1.00000000   0.833E+00       0.001       16.128   0.100E-07
     TRS4 it   2 1.00000000   0.600E+00       0.001       32.256   0.100E-07
     TRS4 it   3 1.00000000   0.411E+00       0.001       32.256   0.100E-07
     TRS4 it   4 1.00000000   0.213E+00       0.001       32.256   0.100E-07
     TRS4 it   5 1.00000000   0.707E-01       0.001       32.256   0.100E-07
     TRS4 it   6 1.00000000   0.922E-02       0.001       32.256   0.100E-07
     TRS4 it   7 1.00000000   0.208E-03       0.001       32.256   0.100E-07
     TRS4 it   8 1.00000000   0.153E-06       0.001       32.256   0.100E-07
     TRS4 it   9 1.00000000   0.994E-13       0.001       32.256   0.100E-07
     Final TRS4 iteration    9 1.00000000   0.994E-13
     Chemical potential (mu):      -0.01303
 
 PAO| energy:  -7.7939544318538418      penalty:   5.8543013870925469E-006
 PAO|LS| Need extra step
 PAO|LS| adapt:  T T F
 PAO|LS| adapt: scan_steps:    0.0000000000000000       0.40000000000000002        0.0000000000000000     
 PAO|LS| adapt: energies:   -7.6470933242189663       -7.7939544318538418        0.0000000000000000     
 PAO| ======================= Iteration:         5 =============================

     Lanczos converged:  T threshold:   0.100E-02
     Est. extremal eigenvalues:    0.259E+01   0.184E+00
     Est. condition number :    0.141E+02
     NS sqrt iter    1 1.00000000   0.680E+00       0.001       64.512
     NS sqrt iter    2 1.00000000   0.311E+00       0.001      107.610
     NS sqrt iter    3 1.00000000   0.642E-01       0.001      101.074
     NS sqrt iter    4 1.00000000   0.123E-02       0.001      109.982
     NS sqrt iter    5 1.00000000   0.178E-07       0.001       52.096
     Final NS sqrt iter    5 1.00000000   0.423E-08

     Est. extremal eigenvalues     -0.92535     1.60313  converged:  T
     TRS4 it   1 1.00000000   0.843E+00       0.001       16.128   0.100E-07
     TRS4 it   2 1.00000000   0.576E+00       0.001       32.256   0.100E-07
     TRS4 it   3 1.00000000   0.372E+00       0.001       32.256   0.100E-07
     TRS4 it   4 1.00000000   0.165E+00       0.001       32.256   0.100E-07
     TRS4 it   5 1.00000000   0.385E-01       0.001       32.256   0.100E-07
     TRS4 it   6 1.00000000   0.235E-02       0.001       32.256   0.100E-07
     TRS4 it   7 1.00000000   0.106E-04       0.001       32.256   0.100E-07
     TRS4 it   8 1.00000000   0.281E-09       0.001       32.256   0.100E-07
     Final TRS4 iteration    8 1.00000000   0.281E-09
     Chemical potential (mu):       0.03899
 
 PAO| energy:  -7.7359594230932220      penalty:   9.3668771408610897E-005
 PAO|LS| Need extra step
 PAO|LS| adapt:  T T T
 PAO|LS| adapt: scan_steps:    0.0000000000000000       0.40000000000000002       0.80000000000000004     
 PAO|LS| adapt: energies:   -7.6470933242189663       -7.7939544318538418       -7.7359594230932220     
 PAO|LS| adapt: suggested step_size:   0.48675952706502634     
 PAO|LS| adapt: predicted energy  -7.7987731697978697     
 PAO| ======================= Iteration:         6 =============================

     Lanczos converged:  T threshold:   0.100E-02
     Est. extremal eigenvalues:    0.287E+01   0.166E+00
     Est. condition number :    0.173E+02
     NS sqrt iter    1 1.00000000   0.729E+00       0.002       41.986
     NS sqrt iter    2 1.00000000   0.359E+00       0.001      104.422
     NS sqrt iter    3 1.00000000   0.947E-01       0.001      100.193
     NS sqrt iter    4 1.00000000   0.340E-02       0.001      100.371
     NS sqrt iter    5 1.00000000   0.266E-06       0.001       80.768
     Final NS sqrt iter    5 1.00000000   0.242E-09

     Est. extremal eigenvalues     -0.92544     1.61563  converged:  T
     TRS4 it   1 1.00000000   0.835E+00       0.001       16.128   0.100E-07
     TRS4 it   2 1.00000000   0.593E+00       0.001       32.256   0.100E-07
     TRS4 it   3 1.00000000   0.400E+00       0.001       32.256   0.100E-07
     TRS4 it   4 1.00000000   0.200E+00       0.001       32.256   0.100E-07
     TRS4 it   5 1.00000000   0.610E-01       0.001       32.256   0.100E-07
     TRS4 it   6 1.00000000   0.662E-02       0.001       32.256   0.100E-07
     TRS4 it   7 1.00000000   0.100E-03       0.001       32.256   0.100E-07
     TRS4 it   8 1.00000000   0.338E-07       0.001       32.256   0.100E-07
     Final TRS4 iteration    8 1.00000000   0.338E-07
     Chemical potential (mu):       0.00149
 
 PAO| energy:  -7.7980850495680185      penalty:   1.2837866919250112E-005
 PAO|CG| warming up with steepest descent
 PAO|CG| beta:    0.0000000000000000     
 PAO| norm of gradient:  0.42826017781705955     
 PAO| energy improvement: -0.15099172534905225     
 PAO| step      6                   -7.798085050  0.268E-01  0.487E+00     0.090
 PAO|LS| adapt:  T F F
 PAO|LS| adapt: scan_steps:    0.0000000000000000        0.0000000000000000        0.0000000000000000     
 PAO|LS| adapt: energies:   -7.7980850495680185        0.0000000000000000        0.0000000000000000     
 PAO| ======================= Iteration:         7 =============================

     Lanczos converged:  T threshold:   0.100E-02
     Est. extremal eigenvalues:    0.278E+01   0.181E+00
     Est. condition number :    0.154E+02
     NS sqrt iter    1 1.00000000   0.712E+00       0.002       39.548
     NS sqrt iter    2 1.00000000   0.338E+00       0.001      110.592
     NS sqrt iter    3 1.00000000   0.787E-01       0.001      110.592
     NS sqrt iter    4 1.00000000   0.201E-02       0.001      110.592
     NS sqrt iter    5 1.00000000   0.623E-07       0.001       72.064
     Final NS sqrt iter    5 1.00000000   0.482E-09

     Est. extremal eigenvalues     -0.92707     1.61796  converged:  T
     TRS4 it   1 1.00000000   0.839E+00       0.000       16.128   0.100E-07
     TRS4 it   2 1.00000000   0.595E+00       0.001       32.256   0.100E-07
     TRS4 it   3 1.00000000   0.404E+00       0.001       32.256   0.100E-07
     TRS4 it   4 1.00000000   0.204E+00       0.001       32.256   0.100E-07
     TRS4 it   5 1.00000000   0.632E-01       0.001       32.256   0.100E-07
     TRS4 it   6 1.00000000   0.693E-02       0.001       32.256   0.100E-07
     TRS4 it   7 1.00000000   0.103E-03       0.001       32.256   0.100E-07
     TRS4 it   8 1.00000000   0.320E-07       0.001       32.256   0.100E-07
     Final TRS4 iteration    8 1.00000000   0.320E-07
     Chemical potential (mu):       0.00259
 
 PAO| energy:  -7.7922340037576481      penalty:   1.9975222411820146E-005
 PAO|LS| adapt:  T F T
 PAO|LS| adapt: scan_steps:    0.0000000000000000        0.0000000000000000       0.48675952706502634     
 PAO|LS| adapt: energies:   -7.7980850495680185        0.0000000000000000       -7.7922340037576481     
 PAO| ======================= Iteration:         8 =============================

     Lanczos converged:  T threshold:   0.100E-02
     Est. extremal eigenvalues:    0.283E+01   0.173E+00
     Est. condition number :    0.163E+02
     NS sqrt iter    1 1.00000000   0.721E+00       0.001       64.512
     NS sqrt iter    2 1.00000000   0.349E+00       0.001       74.115
     NS sqrt iter    3 1.00000000   0.865E-01       0.001       83.713
     NS sqrt iter    4 1.00000000   0.263E-02       0.001       93.712
     NS sqrt iter    5 1.00000000   0.131E-06       0.001       77.568
     Final NS sqrt iter    5 1.00000000   0.590E-09

     Est. extremal eigenvalues     -0.92702     1.61645  converged:  T
     TRS4 it   1 1.00000000   0.836E+00       0.000       16.128   0.100E-07
     TRS4 it   2 1.00000000   0.594E+00       0.001       32.256   0.100E-07
     TRS4 it   3 1.00000000   0.401E+00       0.001       32.256   0.100E-07
     TRS4 it   4 1.00000000   0.201E+00       0.001       32.256   0.100E-07
     TRS4 it   5 1.00000000   0.620E-01       0.001       32.256   0.100E-07
     TRS4 it   6 1.00000000   0.684E-02       0.001       32.256   0.100E-07
     TRS4 it   7 1.00000000   0.105E-03       0.001       32.256   0.100E-07
     TRS4 it   8 1.00000000   0.350E-07       0.001       32.256   0.100E-07
     Final TRS4 iteration    8 1.00000000   0.350E-07
     Chemical potential (mu):       0.00174
 
 PAO| energy:  -7.8187273374646908      penalty:   1.4017404612356645E-005
 PAO|LS| adapt:  T T T
 PAO|LS| adapt: scan_steps:    0.0000000000000000       0.24337976353251317       0.48675952706502634     
 PAO|LS| adapt: energies:   -7.7980850495680185       -7.8187273374646908       -7.7922340037576481     
 PAO|LS| adapt: suggested step_size:   0.22827413749751441     
 PAO|LS| adapt: predicted energy  -7.8188181253229763     
 PAO| ======================= Iteration:         9 =============================

     Lanczos converged:  T threshold:   0.100E-02
     Est. extremal eigenvalues:    0.283E+01   0.173E+00
     Est. condition number :    0.164E+02
     NS sqrt iter    1 1.00000000   0.721E+00       0.002       39.249
     NS sqrt iter    2 1.00000000   0.349E+00       0.001      101.679
     NS sqrt iter    3 1.00000000   0.870E-01       0.001      110.592
     NS sqrt iter    4 1.00000000   0.267E-02       0.001      110.592
     NS sqrt iter    5 1.00000000   0.137E-06       0.001       77.696
     Final NS sqrt iter    5 1.00000000   0.613E-09

     Est. extremal eigenvalues     -0.92696     1.61638  converged:  T
     TRS4 it   1 1.00000000   0.836E+00       0.000       16.128   0.100E-07
     TRS4 it   2 1.00000000   0.593E+00       0.001       32.256   0.100E-07
     TRS4 it   3 1.00000000   0.401E+00       0.001       32.256   0.100E-07
     TRS4 it   4 1.00000000   0.201E+00       0.001       29.741   0.100E-07
     TRS4 it   5 1.00000000   0.619E-01       0.001       32.256   0.100E-07
     TRS4 it   6 1.00000000   0.683E-02       0.001       32.256   0.100E-07
     TRS4 it   7 1.00000000   0.104E-03       0.001       32.256   0.100E-07
     TRS4 it   8 1.00000000   0.350E-07       0.001       32.256   0.100E-07
     Final TRS4 iteration    8 1.00000000   0.350E-07
     Chemical potential (mu):       0.00171
 
 PAO| energy:  -7.8188398862684103      penalty:   1.3844095859100493E-005
 PAO|CG| trace_G_new    3.8949709729337124E-002
 PAO|CG| trace_G_prev   0.18340677990389950     
 PAO|CG| trace_G_mix   -1.3937119464580931E-003
 PAO|CG| trace_D   0.18340677990389950     
 PAO|CG| trace_D_Gnew   1.3937119464580931E-003
 PAO|CG| beta:   0.21996690469640295     
 PAO| norm of gradient:  0.19735680816565998     
 PAO| energy improvement:  -2.0754836700391799E-002
 PAO| step      9                   -7.818839886  0.123E-01  0.228E+00     0.055
 PAO|LS| adapt:  T F F
 PAO|LS| adapt: scan_steps:    0.0000000000000000        0.0000000000000000        0.0000000000000000     
 PAO|LS| adapt: energies:   -7.8188398862684103        0.0000000000000000        0.0000000000000000     
 PAO| ======================= Iteration:        10 =============================

     Lanczos converged:  T threshold:   0.100E-02
     Est. extremal eigenvalues:    0.279E+01   0.178E+00
     Est. condition number :    0.157E+02
     NS sqrt iter    1 1.00000000   0.712E+00       0.001       63.205
     NS sqrt iter    2 1.00000000   0.340E+00       0.001      110.592
     NS sqrt iter    3 1.00000000   0.810E-01       0.001      110.378
     NS sqrt iter    4 1.00000000   0.219E-02       0.001      110.592
     NS sqrt iter    5 1.00000000   0.783E-07       0.001       73.600
     Final NS sqrt iter    5 1.00000000   0.486E-09

     Est. extremal eigenvalues     -0.92792     1.62493  converged:  T
     TRS4 it   1 1.00000000   0.839E+00       0.000       16.128   0.100E-07
     TRS4 it   2 1.00000000   0.595E+00       0.001       32.256   0.100E-07
     TRS4 it   3 1.00000000   0.403E+00       0.001       32.256   0.100E-07
     TRS4 it   4 1.00000000   0.202E+00       0.001       32.256   0.100E-07
     TRS4 it   5 1.00000000   0.616E-01       0.001       32.256   0.100E-07
     TRS4 it   6 1.00000000   0.669E-02       0.001       32.256   0.100E-07
     TRS4 it   7 1.00000000   0.976E-04       0.001       32.256   0.100E-07
     TRS4 it   8 1.00000000   0.294E-07       0.001       32.256   0.100E-07
     Final TRS4 iteration    8 1.00000000   0.294E-07
     Chemical potential (mu):       0.00445
 
 PAO| energy:  -7.8241744650004721      penalty:   1.4437602833960248E-005
 PAO|LS| adapt:  T T F
 PAO|LS| adapt: scan_steps:    0.0000000000000000       0.22827413749751441        0.0000000000000000     
 PAO|LS| adapt: energies:   -7.8188398862684103       -7.8241744650004721        0.0000000000000000     
 PAO| ======================= Iteration:        11 =============================

     Lanczos converged:  T threshold:   0.100E-02
     Est. extremal eigenvalues:    0.275E+01   0.183E+00
     Est. condition number :    0.150E+02
     NS sqrt iter    1 1.00000000   0.704E+00       0.001       57.426
     NS sqrt iter    2 1.00000000   0.331E+00       0.001      107.830
     NS sqrt iter    3 1.00000000   0.754E-01       0.001      109.716
     NS sqrt iter    4 1.00000000   0.178E-02       0.001      110.592
     NS sqrt iter    5 1.00000000   0.435E-07       0.001       66.688
     Final NS sqrt iter    5 1.00000000   0.234E-08

     Est. extremal eigenvalues     -0.92769     1.63500  converged:  T
     TRS4 it   1 1.00000000   0.842E+00       0.000       16.128   0.100E-07
     TRS4 it   2 1.00000000   0.598E+00       0.001       32.256   0.100E-07
     TRS4 it   3 1.00000000   0.404E+00       0.001       32.256   0.100E-07
     TRS4 it   4 1.00000000   0.202E+00       0.001       32.256   0.100E-07
     TRS4 it   5 1.00000000   0.613E-01       0.001       32.256   0.100E-07
     TRS4 it   6 1.00000000   0.656E-02       0.001       32.256   0.100E-07
     TRS4 it   7 1.00000000   0.916E-04       0.001       32.256   0.100E-07
     TRS4 it   8 1.00000000   0.248E-07       0.001       32.256   0.100E-07
     Final TRS4 iteration    8 1.00000000   0.248E-07
     Chemical potential (mu):       0.00719
 
 PAO| energy:  -7.8227963439442743      penalty:   1.5735396083926187E-005
 PAO|LS| adapt:  T T T
 PAO|LS| adapt: scan_steps:    0.0000000000000000       0.22827413749751441       0.45654827499502881     
 PAO|LS| adapt: energies:   -7.8188398862684103       -7.8241744650004721       -7.8227963439442743     
 PAO|LS| adapt: suggested step_size:   0.29554639694540946     
 PAO|LS| adapt: predicted energy  -7.8244659564613350     
 PAO| ======================= Iteration:        12 =============================

     Lanczos converged:  T threshold:   0.100E-02
     Est. extremal eigenvalues:    0.278E+01   0.180E+00
     Est. condition number :    0.155E+02
     NS sqrt iter    1 1.00000000   0.710E+00       0.001       64.512
     NS sqrt iter    2 1.00000000   0.338E+00       0.001      110.479
     NS sqrt iter    3 1.00000000   0.793E-01       0.001      107.181
     NS sqrt iter    4 1.00000000   0.206E-02       0.001      110.592
     NS sqrt iter    5 1.00000000   0.660E-07       0.001       71.936
     Final NS sqrt iter    5 1.00000000   0.406E-09

     Est. extremal eigenvalues     -0.92797     1.62777  converged:  T
     TRS4 it   1 1.00000000   0.840E+00       0.001       16.128   0.100E-07
     TRS4 it   2 1.00000000   0.596E+00       0.001       32.256   0.100E-07
     TRS4 it   3 1.00000000   0.403E+00       0.001       32.256   0.100E-07
     TRS4 it   4 1.00000000   0.202E+00       0.001       32.256   0.100E-07
     TRS4 it   5 1.00000000   0.615E-01       0.001       32.256   0.100E-07
     TRS4 it   6 1.00000000   0.665E-02       0.001       26.633   0.100E-07
     TRS4 it   7 1.00000000   0.957E-04       0.001       26.612   0.100E-07
     TRS4 it   8 1.00000000   0.280E-07       0.001       28.239   0.100E-07
     Final TRS4 iteration    8 1.00000000   0.280E-07
     Chemical potential (mu):       0.00526
 
 PAO| energy:  -7.8244479712760437      penalty:   1.4738297926685153E-005
 PAO|CG| trace_G_new    1.1883813513128888E-002
 PAO|CG| trace_G_prev    3.8949709729337124E-002
 PAO|CG| trace_G_mix   -5.0826892075655486E-004
 PAO|CG| trace_D    4.7210786314422000E-002
 PAO|CG| trace_D_Gnew   2.1776933917476123E-004
 PAO|CG| beta:   0.31815596367722510     
 PAO| norm of gradient:  0.10901290525955579     
 PAO| energy improvement:  -5.6080850076334343E-003
 PAO| step     12                   -7.824447971  0.681E-02  0.296E+00     0.059
 PAO|LS| adapt:  T F F
 PAO|LS| adapt: scan_steps:    0.0000000000000000        0.0000000000000000        0.0000000000000000     
 PAO|LS| adapt: energies:   -7.8244479712760437        0.0000000000000000        0.0000000000000000     
 PAO| ======================= Iteration:        13 =============================

     Lanczos converged:  T threshold:   0.100E-02
     Est. extremal eigenvalues:    0.274E+01   0.183E+00
     Est. condition number :    0.149E+02
     NS sqrt iter    1 1.00000000   0.702E+00       0.001       64.512
     NS sqrt iter    2 1.00000000   0.330E+00       0.001      110.592
     NS sqrt iter    3 1.00000000   0.748E-01       0.001      101.383
     NS sqrt iter    4 1.00000000   0.175E-02       0.001       93.361
     NS sqrt iter    5 1.00000000   0.410E-07       0.001       62.976
     Final NS sqrt iter    5 1.00000000   0.482E-08

     Est. extremal eigenvalues     -0.92848     1.62799  converged:  T
     TRS4 it   1 1.00000000   0.842E+00       0.000       16.128   0.100E-07
     TRS4 it   2 1.00000000   0.595E+00       0.001       32.256   0.100E-07
     TRS4 it   3 1.00000000   0.401E+00       0.001       32.256   0.100E-07
     TRS4 it   4 1.00000000   0.198E+00       0.001       32.256   0.100E-07
     TRS4 it   5 1.00000000   0.589E-01       0.001       32.256   0.100E-07
     TRS4 it   6 1.00000000   0.603E-02       0.001       32.256   0.100E-07
     TRS4 it   7 1.00000000   0.769E-04       0.001       32.256   0.100E-07
     TRS4 it   8 1.00000000   0.174E-07       0.001       32.256   0.100E-07
     Final TRS4 iteration    8 1.00000000   0.174E-07
     Chemical potential (mu):       0.00954
 
 PAO| energy:  -7.8265153522576112      penalty:   1.5070099153198919E-005
 PAO|LS| adapt:  T T F
 PAO|LS| adapt: scan_steps:    0.0000000000000000       0.29554639694540946        0.0000000000000000     
 PAO|LS| adapt: energies:   -7.8244479712760437       -7.8265153522576112        0.0000000000000000     
 PAO| ======================= Iteration:        14 =============================

     Lanczos converged:  T threshold:   0.100E-02
     Est. extremal eigenvalues:    0.270E+01   0.187E+00
     Est. condition number :    0.144E+02
     NS sqrt iter    1 1.00000000   0.695E+00       0.001       62.224
     NS sqrt iter    2 1.00000000   0.323E+00       0.001      110.592
     NS sqrt iter    3 1.00000000   0.705E-01       0.001      110.592
     NS sqrt iter    4 1.00000000   0.148E-02       0.001       91.571
     NS sqrt iter    5 1.00000000   0.254E-07       0.001       50.343
     Final NS sqrt iter    5 1.00000000   0.263E-08

     Est. extremal eigenvalues     -0.92842     1.62822  converged:  T
     TRS4 it   1 1.00000000   0.843E+00       0.000       16.128   0.100E-07
     TRS4 it   2 1.00000000   0.594E+00       0.001       32.256   0.100E-07
     TRS4 it   3 1.00000000   0.398E+00       0.001       32.256   0.100E-07
     TRS4 it   4 1.00000000   0.195E+00       0.001       32.256   0.100E-07
     TRS4 it   5 1.00000000   0.564E-01       0.001       32.256   0.100E-07
     TRS4 it   6 1.00000000   0.548E-02       0.001       32.256   0.100E-07
     TRS4 it   7 1.00000000   0.621E-04       0.001       32.256   0.100E-07
     TRS4 it   8 1.00000000   0.109E-07       0.001       32.256   0.100E-07
     Final TRS4 iteration    8 1.00000000   0.109E-07
     Chemical potential (mu):       0.01363
 
 PAO| energy:  -7.8257834680976233      penalty:   1.5889140061648355E-005
 PAO|LS| adapt:  T T T
 PAO|LS| adapt: scan_steps:    0.0000000000000000       0.29554639694540946       0.59109279389081892     
 PAO|LS| adapt: energies:   -7.8244479712760437       -7.8265153522576112       -7.8257834680976233     
 PAO|LS| adapt: suggested step_size:   0.36604727017290278     
 PAO|LS| adapt: predicted energy  -7.8265949960065173     
 PAO| ======================= Iteration:        15 =============================

     Lanczos converged:  T threshold:   0.100E-02
     Est. extremal eigenvalues:    0.273E+01   0.184E+00
     Est. condition number :    0.148E+02
     NS sqrt iter    1 1.00000000   0.700E+00       0.001       64.512
     NS sqrt iter    2 1.00000000   0.329E+00       0.001       98.347
     NS sqrt iter    3 1.00000000   0.738E-01       0.001      110.592
     NS sqrt iter    4 1.00000000   0.168E-02       0.001      110.592
     NS sqrt iter    5 1.00000000   0.366E-07       0.001       61.824
     Final NS sqrt iter    5 1.00000000   0.338E-08

     Est. extremal eigenvalues     -0.92852     1.62804  converged:  T
     TRS4 it   1 1.00000000   0.842E+00       0.000       16.128   0.100E-07
     TRS4 it   2 1.00000000   0.595E+00       0.001       32.256   0.100E-07
     TRS4 it   3 1.00000000   0.400E+00       0.001       32.256   0.100E-07
     TRS4 it   4 1.00000000   0.197E+00       0.001       32.256   0.100E-07
     TRS4 it   5 1.00000000   0.583E-01       0.001       32.256   0.100E-07
     TRS4 it   6 1.00000000   0.589E-02       0.001       32.256   0.100E-07
     TRS4 it   7 1.00000000   0.731E-04       0.001       32.256   0.100E-07
     TRS4 it   8 1.00000000   0.155E-07       0.001       32.256   0.100E-07
     Final TRS4 iteration    8 1.00000000   0.155E-07
     Chemical potential (mu):       0.01053
 
 PAO| energy:  -7.8265921861881624      penalty:   1.5218396260829428E-005
 PAO|CG| trace_G_new    2.5525438517058278E-003
 PAO|CG| trace_G_prev    1.1883813513128888E-002
 PAO|CG| trace_G_mix    7.3314302294463058E-005
 PAO|CG| trace_D    1.6524071963591378E-002
 PAO|CG| trace_D_Gnew   3.5180480810791455E-005
 PAO|CG| beta:   0.20862238764285426     
 PAO| norm of gradient:   5.0522706298315297E-002
 PAO| energy improvement:  -2.1442149121186915E-003
 PAO| step     15                   -7.826592186  0.316E-02  0.366E+00     0.053
 PAO|LS| adapt:  T F F
 PAO|LS| adapt: scan_steps:    0.0000000000000000        0.0000000000000000        0.0000000000000000     
 PAO|LS| adapt: energies:   -7.8265921861881624        0.0000000000000000        0.0000000000000000     
 PAO| ======================= Iteration:        16 =============================

     Lanczos converged:  T threshold:   0.100E-02
     Est. extremal eigenvalues:    0.272E+01   0.185E+00
     Est. condition number :    0.147E+02
     NS sqrt iter    1 1.00000000   0.698E+00       0.002       41.919
     NS sqrt iter    2 1.00000000   0.327E+00       0.001      110.592
     NS sqrt iter    3 1.00000000   0.730E-01       0.001      109.080
     NS sqrt iter    4 1.00000000   0.162E-02       0.001      110.592
     NS sqrt iter    5 1.00000000   0.328E-07       0.001       60.928
     Final NS sqrt iter    5 1.00000000   0.235E-08

     Est. extremal eigenvalues     -0.92855     1.62831  converged:  T
     TRS4 it   1 1.00000000   0.842E+00       0.000       16.128   0.100E-07
     TRS4 it   2 1.00000000   0.594E+00       0.001       32.256   0.100E-07
     TRS4 it   3 1.00000000   0.399E+00       0.001       32.256   0.100E-07
     TRS4 it   4 1.00000000   0.196E+00       0.001       32.256   0.100E-07
     TRS4 it   5 1.00000000   0.573E-01       0.001       32.256   0.100E-07
     TRS4 it   6 1.00000000   0.570E-02       0.001       32.256   0.100E-07
     TRS4 it   7 1.00000000   0.686E-04       0.001       32.256   0.100E-07
     TRS4 it   8 1.00000000   0.138E-07       0.001       32.256   0.100E-07
     Final TRS4 iteration    8 1.00000000   0.138E-07
     Chemical potential (mu):       0.01155
 
 PAO| energy:  -7.8267148569145970      penalty:   1.4997606902652541E-005
 PAO|LS| adapt:  T T F
 PAO|LS| adapt: scan_steps:    0.0000000000000000       0.36604727017290278        0.0000000000000000     
 PAO|LS| adapt: energies:   -7.8265921861881624       -7.8267148569145970        0.0000000000000000     
 PAO| ======================= Iteration:        17 =============================

     Lanczos converged:  T threshold:   0.100E-02
     Est. extremal eigenvalues:    0.271E+01   0.186E+00
     Est. condition number :    0.146E+02
     NS sqrt iter    1 1.00000000   0.697E+00       0.001       64.512
     NS sqrt iter    2 1.00000000   0.326E+00       0.002       69.030
     NS sqrt iter    3 1.00000000   0.723E-01       0.001       84.734
     NS sqrt iter    4 1.00000000   0.157E-02       0.001      104.229
     NS sqrt iter    5 1.00000000   0.293E-07       0.001       58.752
     Final NS sqrt iter    5 1.00000000   0.486E-08

     Est. extremal eigenvalues     -0.92842     1.62867  converged:  T
     TRS4 it   1 1.00000000   0.843E+00       0.000       16.128   0.100E-07
     TRS4 it   2 1.00000000   0.593E+00       0.001       32.256   0.100E-07
     TRS4 it   3 1.00000000   0.398E+00       0.001       32.256   0.100E-07
     TRS4 it   4 1.00000000   0.194E+00       0.001       32.256   0.100E-07
     TRS4 it   5 1.00000000   0.563E-01       0.001       32.256   0.100E-07
     TRS4 it   6 1.00000000   0.551E-02       0.001       32.256   0.100E-07
     TRS4 it   7 1.00000000   0.645E-04       0.001       32.256   0.100E-07
     TRS4 it   8 1.00000000   0.123E-07       0.001       32.256   0.100E-07
     Final TRS4 iteration    8 1.00000000   0.123E-07
     Chemical potential (mu):       0.01254
 
 PAO| energy:  -7.8252150506311491      penalty:   1.4895182357337879E-005
 PAO|LS| adapt:  T T T
 PAO|LS| adapt: scan_steps:    0.0000000000000000       0.36604727017290278       0.73209454034580557     
 PAO|LS| adapt: energies:   -7.8265921861881624       -7.8267148569145970       -7.8252150506311491     
 PAO|LS| adapt: suggested step_size:   0.21069939521617645     
 PAO|LS| adapt: predicted energy  -7.8268609685644730     
 PAO| ======================= Iteration:        18 =============================

     Lanczos converged:  T threshold:   0.100E-02
     Est. extremal eigenvalues:    0.273E+01   0.185E+00
     Est. condition number :    0.147E+02
     NS sqrt iter    1 1.00000000   0.699E+00       0.001       51.728
     NS sqrt iter    2 1.00000000   0.328E+00       0.001       84.605
     NS sqrt iter    3 1.00000000   0.733E-01       0.001      110.592
     NS sqrt iter    4 1.00000000   0.165E-02       0.001      110.592
     NS sqrt iter    5 1.00000000   0.344E-07       0.001       60.215
     Final NS sqrt iter    5 1.00000000   0.322E-08

     Est. extremal eigenvalues     -0.92856     1.62818  converged:  T
     TRS4 it   1 1.00000000   0.842E+00       0.000       16.128   0.100E-07
     TRS4 it   2 1.00000000   0.594E+00       0.001       32.256   0.100E-07
     TRS4 it   3 1.00000000   0.399E+00       0.001       32.256   0.100E-07
     TRS4 it   4 1.00000000   0.196E+00       0.001       32.256   0.100E-07
     TRS4 it   5 1.00000000   0.577E-01       0.001       32.256   0.100E-07
     TRS4 it   6 1.00000000   0.578E-02       0.001       32.256   0.100E-07
     TRS4 it   7 1.00000000   0.705E-04       0.001       32.256   0.100E-07
     TRS4 it   8 1.00000000   0.145E-07       0.001       32.256   0.100E-07
     Final TRS4 iteration    8 1.00000000   0.145E-07
     Chemical potential (mu):       0.01112
 
 PAO| energy:  -7.8268606005032639      penalty:   1.5077092712676600E-005
 PAO|CG| trace_G_new    6.7575166870960054E-004
 PAO|CG| trace_G_prev    2.5525438517058278E-003
 PAO|CG| trace_G_mix    1.8534155882147943E-006
 PAO|CG| trace_D    3.2570471315293151E-003
 PAO|CG| trace_D_Gnew  -1.4365689457589435E-006
 PAO|CG| beta:   0.26401045085710451     
 PAO| norm of gradient:   2.5995223959596900E-002
 PAO| energy improvement:  -2.6841431510149505E-004
 PAO| step     18                   -7.826860601  0.162E-02  0.211E+00     0.055
 PAO|LS| adapt:  T F F
 PAO|LS| adapt: scan_steps:    0.0000000000000000        0.0000000000000000        0.0000000000000000     
 PAO|LS| adapt: energies:   -7.8268606005032639        0.0000000000000000        0.0000000000000000     
 PAO| ======================= Iteration:        19 =============================

     Lanczos converged:  T threshold:   0.100E-02
     Est. extremal eigenvalues:    0.273E+01   0.185E+00
     Est. condition number :    0.148E+02
     NS sqrt iter    1 1.00000000   0.699E+00       0.001       62.431
     NS sqrt iter    2 1.00000000   0.328E+00       0.001      110.592
     NS sqrt iter    3 1.00000000   0.735E-01       0.001      110.592
     NS sqrt iter    4 1.00000000   0.165E-02       0.001      107.094
     NS sqrt iter    5 1.00000000   0.345E-07       0.001       61.312
     Final NS sqrt iter    5 1.00000000   0.326E-08

     Est. extremal eigenvalues     -0.92856     1.62864  converged:  T
     TRS4 it   1 1.00000000   0.842E+00       0.000       16.128   0.100E-07
     TRS4 it   2 1.00000000   0.594E+00       0.001       32.256   0.100E-07
     TRS4 it   3 1.00000000   0.399E+00       0.001       32.256   0.100E-07
     TRS4 it   4 1.00000000   0.196E+00       0.001       32.256   0.100E-07
     TRS4 it   5 1.00000000   0.576E-01       0.001       32.256   0.100E-07
     TRS4 it   6 1.00000000   0.578E-02       0.001       32.256   0.100E-07
     TRS4 it   7 1.00000000   0.708E-04       0.001       32.256   0.100E-07
     TRS4 it   8 1.00000000   0.148E-07       0.001       32.256   0.100E-07
     Final TRS4 iteration    8 1.00000000   0.148E-07
     Chemical potential (mu):       0.01099
 
 PAO| energy:  -7.8269696406380289      penalty:   1.4791348939354331E-005
 PAO|LS| adapt:  T T F
 PAO|LS| adapt: scan_steps:    0.0000000000000000       0.21069939521617645        0.0000000000000000     
 PAO|LS| adapt: energies:   -7.8268606005032639       -7.8269696406380289        0.0000000000000000     
 PAO| ======================= Iteration:        20 =============================

     Lanczos converged:  T threshold:   0.100E-02
     Est. extremal eigenvalues:    0.273E+01   0.185E+00
     Est. condition number :    0.148E+02
     NS sqrt iter    1 1.00000000   0.699E+00       0.001       64.482
     NS sqrt iter    2 1.00000000   0.328E+00       0.001      110.592
     NS sqrt iter    3 1.00000000   0.737E-01       0.001      110.592
     NS sqrt iter    4 1.00000000   0.166E-02       0.001      110.592
     NS sqrt iter    5 1.00000000   0.347E-07       0.001       61.312
     Final NS sqrt iter    5 1.00000000   0.332E-08

     Est. extremal eigenvalues     -0.92856     1.62909  converged:  T
     TRS4 it   1 1.00000000   0.842E+00       0.000       16.128   0.100E-07
     TRS4 it   2 1.00000000   0.594E+00       0.001       32.256   0.100E-07
     TRS4 it   3 1.00000000   0.399E+00       0.001       32.256   0.100E-07
     TRS4 it   4 1.00000000   0.196E+00       0.001       32.256   0.100E-07
     TRS4 it   5 1.00000000   0.576E-01       0.001       32.256   0.100E-07
     TRS4 it   6 1.00000000   0.578E-02       0.001       32.256   0.100E-07
     TRS4 it   7 1.00000000   0.711E-04       0.001       32.256   0.100E-07
     TRS4 it   8 1.00000000   0.150E-07       0.001       32.256   0.100E-07
     Final TRS4 iteration    8 1.00000000   0.150E-07
     Chemical potential (mu):       0.01086
 
 PAO| energy:  -7.8270115355488947      penalty:   1.4516936895206034E-005
 PAO|LS| adapt:  T T F
 PAO|LS| adapt: scan_steps:    0.0000000000000000       0.42139879043235290        0.0000000000000000     
 PAO|LS| adapt: energies:   -7.8268606005032639       -7.8270115355488947        0.0000000000000000     
 PAO| ======================= Iteration:        21 =============================

     Lanczos converged:  T threshold:   0.100E-02
     Est. extremal eigenvalues:    0.273E+01   0.185E+00
     Est. condition number :    0.148E+02
     NS sqrt iter    1 1.00000000   0.699E+00       0.001       62.204
     NS sqrt iter    2 1.00000000   0.329E+00       0.001      109.654
     NS sqrt iter    3 1.00000000   0.742E-01       0.001      110.592
     NS sqrt iter    4 1.00000000   0.168E-02       0.001      110.592
     NS sqrt iter    5 1.00000000   0.351E-07       0.001       61.568
     Final NS sqrt iter    5 1.00000000   0.407E-08

     Est. extremal eigenvalues     -0.92855     1.63001  converged:  T
     TRS4 it   1 1.00000000   0.843E+00       0.000       16.128   0.100E-07
     TRS4 it   2 1.00000000   0.594E+00       0.001       32.256   0.100E-07
     TRS4 it   3 1.00000000   0.399E+00       0.001       32.256   0.100E-07
     TRS4 it   4 1.00000000   0.196E+00       0.001       32.256   0.100E-07
     TRS4 it   5 1.00000000   0.575E-01       0.001       32.256   0.100E-07
     TRS4 it   6 1.00000000   0.577E-02       0.001       32.256   0.100E-07
     TRS4 it   7 1.00000000   0.718E-04       0.001       32.256   0.100E-07
     TRS4 it   8 1.00000000   0.156E-07       0.001       32.256   0.100E-07
     Final TRS4 iteration    8 1.00000000   0.156E-07
     Chemical potential (mu):       0.01059
 
 PAO| energy:  -7.8268920565517570      penalty:   1.4001556044989092E-005
 PAO|LS| Need extra step
 PAO|LS| adapt:  T T T
 PAO|LS| adapt: scan_steps:    0.0000000000000000       0.42139879043235290       0.84279758086470580     
 PAO|LS| adapt: energies:   -7.8268606005032639       -7.8270115355488947       -7.8268920565517570     
 PAO|LS| adapt: suggested step_size:   0.44590850274436211     
 PAO|LS| adapt: predicted energy  -7.8270119929414603     
 PAO| ======================= Iteration:        22 =============================

     Lanczos converged:  T threshold:   0.100E-02
     Est. extremal eigenvalues:    0.273E+01   0.185E+00
     Est. condition number :    0.148E+02
     NS sqrt iter    1 1.00000000   0.699E+00       0.001       49.975
     NS sqrt iter    2 1.00000000   0.328E+00       0.001      110.510
     NS sqrt iter    3 1.00000000   0.738E-01       0.001      110.592
     NS sqrt iter    4 1.00000000   0.166E-02       0.001      108.435
     NS sqrt iter    5 1.00000000   0.347E-07       0.001       61.312
     Final NS sqrt iter    5 1.00000000   0.332E-08

     Est. extremal eigenvalues     -0.92856     1.62915  converged:  T
     TRS4 it   1 1.00000000   0.843E+00       0.000       16.128   0.100E-07
     TRS4 it   2 1.00000000   0.594E+00       0.001       32.256   0.100E-07
     TRS4 it   3 1.00000000   0.399E+00       0.001       32.256   0.100E-07
     TRS4 it   4 1.00000000   0.196E+00       0.001       32.256   0.100E-07
     TRS4 it   5 1.00000000   0.576E-01       0.001       32.256   0.100E-07
     TRS4 it   6 1.00000000   0.578E-02       0.001       32.256   0.100E-07
     TRS4 it   7 1.00000000   0.712E-04       0.001       32.256   0.100E-07
     TRS4 it   8 1.00000000   0.151E-07       0.001       32.256   0.100E-07
     Final TRS4 iteration    8 1.00000000   0.151E-07
     Chemical potential (mu):       0.01084
 
 PAO| energy:  -7.8270120283449840      penalty:   1.4485744055838256E-005
 PAO|CG| trace_G_new    2.0283138651533604E-004
 PAO|CG| trace_G_prev    6.7575166870960054E-004
 PAO|CG| trace_G_mix    2.0515732495466999E-006
 PAO|CG| trace_D    9.0353133693175144E-004
 PAO|CG| trace_D_Gnew  -1.4276374943999681E-006
 PAO|CG| beta:   0.29712070655954687     
 PAO| norm of gradient:   1.4241888446246730E-002
 PAO| energy improvement:  -1.5142784172006429E-004
 PAO| step     22                   -7.827012028  0.890E-03  0.446E+00     0.069
 PAO|LS| adapt:  T F F
 PAO|LS| adapt: scan_steps:    0.0000000000000000        0.0000000000000000        0.0000000000000000     
 PAO|LS| adapt: energies:   -7.8270120283449840        0.0000000000000000        0.0000000000000000     
 PAO| ======================= Iteration:        23 =============================

     Lanczos converged:  T threshold:   0.100E-02
     Est. extremal eigenvalues:    0.273E+01   0.185E+00
     Est. condition number :    0.148E+02
     NS sqrt iter    1 1.00000000   0.699E+00       0.001       64.512
     NS sqrt iter    2 1.00000000   0.328E+00       0.001      110.592
     NS sqrt iter    3 1.00000000   0.738E-01       0.001       96.778
     NS sqrt iter    4 1.00000000   0.166E-02       0.001       93.466
     NS sqrt iter    5 1.00000000   0.346E-07       0.001       59.119
     Final NS sqrt iter    5 1.00000000   0.334E-08

     Est. extremal eigenvalues     -0.92856     1.62946  converged:  T
     TRS4 it   1 1.00000000   0.843E+00       0.000       16.128   0.100E-07
     TRS4 it   2 1.00000000   0.594E+00       0.001       32.256   0.100E-07
     TRS4 it   3 1.00000000   0.399E+00       0.001       32.256   0.100E-07
     TRS4 it   4 1.00000000   0.196E+00       0.001       32.212   0.100E-07
     TRS4 it   5 1.00000000   0.577E-01       0.001       32.256   0.100E-07
     TRS4 it   6 1.00000000   0.581E-02       0.001       32.256   0.100E-07
     TRS4 it   7 1.00000000   0.723E-04       0.001       32.256   0.100E-07
     TRS4 it   8 1.00000000   0.156E-07       0.001       32.256   0.100E-07
     Final TRS4 iteration    8 1.00000000   0.156E-07
     Chemical potential (mu):       0.01056
 
 PAO| energy:  -7.8270576881746905      penalty:   1.3804158289611011E-005
 PAO|LS| adapt:  T T F
 PAO|LS| adapt: scan_steps:    0.0000000000000000       0.44590850274436211        0.0000000000000000     
 PAO|LS| adapt: energies:   -7.8270120283449840       -7.8270576881746905        0.0000000000000000     
 PAO| ======================= Iteration:        24 =============================

     Lanczos converged:  T threshold:   0.100E-02
     Est. extremal eigenvalues:    0.273E+01   0.185E+00
     Est. condition number :    0.147E+02
     NS sqrt iter    1 1.00000000   0.699E+00       0.001       64.512
     NS sqrt iter    2 1.00000000   0.329E+00       0.001      109.474
     NS sqrt iter    3 1.00000000   0.739E-01       0.001      110.592
     NS sqrt iter    4 1.00000000   0.166E-02       0.001      110.592
     NS sqrt iter    5 1.00000000   0.344E-07       0.001       61.312
     Final NS sqrt iter    5 1.00000000   0.394E-08

     Est. extremal eigenvalues     -0.92855     1.62977  converged:  T
     TRS4 it   1 1.00000000   0.843E+00       0.000       16.128   0.100E-07
     TRS4 it   2 1.00000000   0.595E+00       0.001       32.256   0.100E-07
     TRS4 it   3 1.00000000   0.400E+00       0.001       32.256   0.100E-07
     TRS4 it   4 1.00000000   0.197E+00       0.001       32.256   0.100E-07
     TRS4 it   5 1.00000000   0.579E-01       0.001       32.256   0.100E-07
     TRS4 it   6 1.00000000   0.585E-02       0.001       32.256   0.100E-07
     TRS4 it   7 1.00000000   0.734E-04       0.001       32.256   0.100E-07
     TRS4 it   8 1.00000000   0.161E-07       0.001       32.256   0.100E-07
     Final TRS4 iteration    8 1.00000000   0.161E-07
     Chemical potential (mu):       0.01028
 
 PAO| energy:  -7.8270128564912635      penalty:   1.3149492258111446E-005
 PAO|LS| adapt:  T T T
 PAO|LS| adapt: scan_steps:    0.0000000000000000       0.44590850274436211       0.89181700548872422     
 PAO|LS| adapt: energies:   -7.8270120283449840       -7.8270576881746905       -7.8270128564912635     
 PAO|LS| adapt: suggested step_size:   0.44794890109102198     
 PAO|LS| adapt: predicted energy  -7.8270576891220545     
 PAO| ======================= Iteration:        25 =============================

     Lanczos converged:  T threshold:   0.100E-02
     Est. extremal eigenvalues:    0.273E+01   0.185E+00
     Est. condition number :    0.148E+02
     NS sqrt iter    1 1.00000000   0.699E+00       0.001       60.514
     NS sqrt iter    2 1.00000000   0.328E+00       0.001      110.592
     NS sqrt iter    3 1.00000000   0.738E-01       0.001      110.592
     NS sqrt iter    4 1.00000000   0.166E-02       0.001       83.436
     NS sqrt iter    5 1.00000000   0.346E-07       0.001       54.745
     Final NS sqrt iter    5 1.00000000   0.334E-08

     Est. extremal eigenvalues     -0.92856     1.62946  converged:  T
     TRS4 it   1 1.00000000   0.843E+00       0.000       16.128   0.100E-07
     TRS4 it   2 1.00000000   0.594E+00       0.001       32.256   0.100E-07
     TRS4 it   3 1.00000000   0.399E+00       0.001       32.256   0.100E-07
     TRS4 it   4 1.00000000   0.196E+00       0.001       32.256   0.100E-07
     TRS4 it   5 1.00000000   0.577E-01       0.001       32.256   0.100E-07
     TRS4 it   6 1.00000000   0.581E-02       0.001       32.256   0.100E-07
     TRS4 it   7 1.00000000   0.723E-04       0.001       32.256   0.100E-07
     TRS4 it   8 1.00000000   0.156E-07       0.001       32.256   0.100E-07
     Final TRS4 iteration    8 1.00000000   0.156E-07
     Chemical potential (mu):       0.01056
 
 PAO| energy:  -7.8270576897419684      penalty:   1.3801101760040146E-005
 PAO|CG| trace_G_new    6.3130184969511482E-005
 PAO|CG| trace_G_prev    2.0283138651533604E-004
 PAO|CG| trace_G_mix    6.7969746284458156E-007
 PAO|CG| trace_D    2.8344413962388054E-004
 PAO|CG| trace_D_Gnew  -3.0211500774097886E-007
 PAO|CG| beta:   0.30789360847733016     
 PAO| norm of gradient:   7.9454505831646500E-003
 PAO| energy improvement:  -4.5661396984364444E-005
 PAO| step     25                   -7.827057690  0.497E-03  0.448E+00     0.054
 PAO|LS| adapt:  T F F
 PAO|LS| adapt: scan_steps:    0.0000000000000000        0.0000000000000000        0.0000000000000000     
 PAO|LS| adapt: energies:   -7.8270576897419684        0.0000000000000000        0.0000000000000000     
 PAO| ======================= Iteration:        26 =============================

     Lanczos converged:  T threshold:   0.100E-02
     Est. extremal eigenvalues:    0.273E+01   0.185E+00
     Est. condition number :    0.147E+02
     NS sqrt iter    1 1.00000000   0.699E+00       0.001       63.147
     NS sqrt iter    2 1.00000000   0.328E+00       0.001      109.296
     NS sqrt iter    3 1.00000000   0.737E-01       0.001      110.592
     NS sqrt iter    4 1.00000000   0.166E-02       0.001      110.592
     NS sqrt iter    5 1.00000000   0.344E-07       0.001       61.312
     Final NS sqrt iter    5 1.00000000   0.333E-08

     Est. extremal eigenvalues     -0.92856     1.62947  converged:  T
     TRS4 it   1 1.00000000   0.843E+00       0.001       16.128   0.100E-07
     TRS4 it   2 1.00000000   0.594E+00       0.001       32.256   0.100E-07
     TRS4 it   3 1.00000000   0.399E+00       0.001       32.256   0.100E-07
     TRS4 it   4 1.00000000   0.196E+00       0.001       32.256   0.100E-07
     TRS4 it   5 1.00000000   0.577E-01       0.001       32.256   0.100E-07
     TRS4 it   6 1.00000000   0.580E-02       0.001       32.256   0.100E-07
     TRS4 it   7 1.00000000   0.719E-04       0.001       32.256   0.100E-07
     TRS4 it   8 1.00000000   0.154E-07       0.001       32.256   0.100E-07
     Final TRS4 iteration    8 1.00000000   0.154E-07
     Chemical potential (mu):       0.01067
 
 PAO| energy:  -7.8270583855430660      penalty:   1.3101037745852126E-005
 PAO|LS| adapt:  T T F
 PAO|LS| adapt: scan_steps:    0.0000000000000000       0.44794890109102198        0.0000000000000000     
 PAO|LS| adapt: energies:   -7.8270576897419684       -7.8270583855430660        0.0000000000000000     
 PAO| ======================= Iteration:        27 =============================

     Lanczos converged:  T threshold:   0.100E-02
     Est. extremal eigenvalues:    0.272E+01   0.185E+00
     Est. condition number :    0.147E+02
     NS sqrt iter    1 1.00000000   0.699E+00       0.001       64.512
     NS sqrt iter    2 1.00000000   0.328E+00       0.001      108.617
     NS sqrt iter    3 1.00000000   0.736E-01       0.001      110.592
     NS sqrt iter    4 1.00000000   0.165E-02       0.001      110.592
     NS sqrt iter    5 1.00000000   0.342E-07       0.001       61.312
     Final NS sqrt iter    5 1.00000000   0.331E-08

     Est. extremal eigenvalues     -0.92856     1.62948  converged:  T
     TRS4 it   1 1.00000000   0.843E+00       0.000       16.128   0.100E-07
     TRS4 it   2 1.00000000   0.594E+00       0.001       32.256   0.100E-07
     TRS4 it   3 1.00000000   0.399E+00       0.001       32.256   0.100E-07
     TRS4 it   4 1.00000000   0.196E+00       0.001       32.256   0.100E-07
     TRS4 it   5 1.00000000   0.576E-01       0.001       32.256   0.100E-07
     TRS4 it   6 1.00000000   0.579E-02       0.001       32.256   0.100E-07
     TRS4 it   7 1.00000000   0.715E-04       0.001       32.256   0.100E-07
     TRS4 it   8 1.00000000   0.152E-07       0.001       32.256   0.100E-07
     Final TRS4 iteration    8 1.00000000   0.152E-07
     Chemical potential (mu):       0.01079
 
 PAO| energy:  -7.8270037535972028      penalty:   1.2422225958110064E-005
 PAO|LS| adapt:  T T T
 PAO|LS| adapt: scan_steps:    0.0000000000000000       0.44794890109102198       0.89589780218204396     
 PAO|LS| adapt: energies:   -7.8270576897419684       -7.8270583855430660       -7.8270037535972028     
 PAO|LS| adapt: suggested step_size:   0.22960785067801515     
 PAO|LS| adapt: predicted energy  -7.8270649579860807     
 PAO| ======================= Iteration:        28 =============================

     Lanczos converged:  T threshold:   0.100E-02
     Est. extremal eigenvalues:    0.273E+01   0.185E+00
     Est. condition number :    0.148E+02
     NS sqrt iter    1 1.00000000   0.699E+00       0.001       53.467
     NS sqrt iter    2 1.00000000   0.328E+00       0.001       93.418
     NS sqrt iter    3 1.00000000   0.738E-01       0.001      110.592
     NS sqrt iter    4 1.00000000   0.166E-02       0.001      109.429
     NS sqrt iter    5 1.00000000   0.345E-07       0.001       61.312
     Final NS sqrt iter    5 1.00000000   0.333E-08

     Est. extremal eigenvalues     -0.92856     1.62946  converged:  T
     TRS4 it   1 1.00000000   0.843E+00       0.001       16.128   0.100E-07
     TRS4 it   2 1.00000000   0.594E+00       0.001       32.256   0.100E-07
     TRS4 it   3 1.00000000   0.399E+00       0.001       32.256   0.100E-07
     TRS4 it   4 1.00000000   0.196E+00       0.001       32.256   0.100E-07
     TRS4 it   5 1.00000000   0.577E-01       0.001       32.256   0.100E-07
     TRS4 it   6 1.00000000   0.581E-02       0.001       32.256   0.100E-07
     TRS4 it   7 1.00000000   0.721E-04       0.001       32.256   0.100E-07
     TRS4 it   8 1.00000000   0.155E-07       0.001       32.256   0.100E-07
     Final TRS4 iteration    8 1.00000000   0.155E-07
     Chemical potential (mu):       0.01062
 
 PAO| energy:  -7.8270649507624519      penalty:   1.3439597082137435E-005
 PAO|CG| trace_G_new    1.9985952951706633E-005
 PAO|CG| trace_G_prev    6.3130184969511482E-005
 PAO|CG| trace_G_mix    9.6436090652456654E-009
 PAO|CG| trace_D    9.0186295469935242E-005
 PAO|CG| trace_D_Gnew  -1.2828479854703444E-008
 PAO|CG| beta:   0.31643039462483563     
 PAO| norm of gradient:   4.4705651713968595E-003
 PAO| energy improvement:  -7.2610204835399372E-006
 PAO| step     28                   -7.827064951  0.279E-03  0.230E+00     0.054
 PAO|LS| adapt:  T F F
 PAO|LS| adapt: scan_steps:    0.0000000000000000        0.0000000000000000        0.0000000000000000     
 PAO|LS| adapt: energies:   -7.8270649507624519        0.0000000000000000        0.0000000000000000     
 PAO| ======================= Iteration:        29 =============================

     Lanczos converged:  T threshold:   0.100E-02
     Est. extremal eigenvalues:    0.273E+01   0.185E+00
     Est. condition number :    0.148E+02
     NS sqrt iter    1 1.00000000   0.699E+00       0.001       50.444
     NS sqrt iter    2 1.00000000   0.328E+00       0.001       89.135
     NS sqrt iter    3 1.00000000   0.737E-01       0.001      106.968
     NS sqrt iter    4 1.00000000   0.166E-02       0.001      110.592
     NS sqrt iter    5 1.00000000   0.345E-07       0.001       61.312
     Final NS sqrt iter    5 1.00000000   0.332E-08

     Est. extremal eigenvalues     -0.92856     1.62956  converged:  T
     TRS4 it   1 1.00000000   0.843E+00       0.000       16.128   0.100E-07
     TRS4 it   2 1.00000000   0.594E+00       0.001       32.256   0.100E-07
     TRS4 it   3 1.00000000   0.399E+00       0.001       32.256   0.100E-07
     TRS4 it   4 1.00000000   0.196E+00       0.001       32.256   0.100E-07
     TRS4 it   5 1.00000000   0.576E-01       0.001       32.256   0.100E-07
     TRS4 it   6 1.00000000   0.580E-02       0.001       32.256   0.100E-07
     TRS4 it   7 1.00000000   0.717E-04       0.001       32.256   0.100E-07
     TRS4 it   8 1.00000000   0.153E-07       0.001       32.256   0.100E-07
     Final TRS4 iteration    8 1.00000000   0.153E-07
     Chemical potential (mu):       0.01073
 
 PAO| energy:  -7.8270689199444838      penalty:   1.3077177963359453E-005
 PAO|LS| adapt:  T T F
 PAO|LS| adapt: scan_steps:    0.0000000000000000       0.22960785067801515        0.0000000000000000     
 PAO|LS| adapt: energies:   -7.8270649507624519       -7.8270689199444838        0.0000000000000000     
 PAO| ======================= Iteration:        30 =============================

     Lanczos converged:  T threshold:   0.100E-02
     Est. extremal eigenvalues:    0.272E+01   0.185E+00
     Est. condition number :    0.148E+02
     NS sqrt iter    1 1.00000000   0.699E+00       0.001       64.512
     NS sqrt iter    2 1.00000000   0.328E+00       0.001      104.497
     NS sqrt iter    3 1.00000000   0.736E-01       0.002       62.316
     NS sqrt iter    4 1.00000000   0.165E-02       0.002       49.723
     NS sqrt iter    5 1.00000000   0.344E-07       0.001       61.312
     Final NS sqrt iter    5 1.00000000   0.331E-08

     Est. extremal eigenvalues     -0.92856     1.62965  converged:  T
     TRS4 it   1 1.00000000   0.843E+00       0.000       16.128   0.100E-07
     TRS4 it   2 1.00000000   0.594E+00       0.001       32.256   0.100E-07
     TRS4 it   3 1.00000000   0.399E+00       0.001       32.256   0.100E-07
     TRS4 it   4 1.00000000   0.196E+00       0.001       32.256   0.100E-07
     TRS4 it   5 1.00000000   0.576E-01       0.001       32.256   0.100E-07
     TRS4 it   6 1.00000000   0.578E-02       0.001       32.256   0.100E-07
     TRS4 it   7 1.00000000   0.714E-04       0.001       32.256   0.100E-07
     TRS4 it   8 1.00000000   0.152E-07       0.001       32.256   0.100E-07
     Final TRS4 iteration    8 1.00000000   0.152E-07
     Chemical potential (mu):       0.01084
 
 PAO| energy:  -7.8270716479954823      penalty:   1.2720094970742598E-005
 PAO|LS| adapt:  T T F
 PAO|LS| adapt: scan_steps:    0.0000000000000000       0.45921570135603029        0.0000000000000000     
 PAO|LS| adapt: energies:   -7.8270649507624519       -7.8270716479954823        0.0000000000000000     
 PAO| ======================= Iteration:        31 =============================

     Lanczos converged:  T threshold:   0.100E-02
     Est. extremal eigenvalues:    0.272E+01   0.185E+00
     Est. condition number :    0.148E+02
     NS sqrt iter    1 1.00000000   0.698E+00       0.001       45.851
     NS sqrt iter    2 1.00000000   0.328E+00       0.001      101.845
     NS sqrt iter    3 1.00000000   0.735E-01       0.001      109.668
     NS sqrt iter    4 1.00000000   0.165E-02       0.001      110.592
     NS sqrt iter    5 1.00000000   0.344E-07       0.001       61.312
     Final NS sqrt iter    5 1.00000000   0.330E-08

     Est. extremal eigenvalues     -0.92857     1.62984  converged:  T
     TRS4 it   1 1.00000000   0.843E+00       0.000       16.128   0.100E-07
     TRS4 it   2 1.00000000   0.594E+00       0.001       32.256   0.100E-07
     TRS4 it   3 1.00000000   0.399E+00       0.001       32.256   0.100E-07
     TRS4 it   4 1.00000000   0.196E+00       0.001       32.256   0.100E-07
     TRS4 it   5 1.00000000   0.575E-01       0.001       32.256   0.100E-07
     TRS4 it   6 1.00000000   0.576E-02       0.001       32.256   0.100E-07
     TRS4 it   7 1.00000000   0.707E-04       0.001       32.256   0.100E-07
     TRS4 it   8 1.00000000   0.148E-07       0.001       32.256   0.100E-07
     Final TRS4 iteration    8 1.00000000   0.148E-07
     Chemical potential (mu):       0.01106
 
 PAO| energy:  -7.8270733795531031      penalty:   1.2021873921108918E-005
 PAO|LS| Need extra step
 PAO|LS| adapt:  T T F
 PAO|LS| adapt: scan_steps:    0.0000000000000000       0.91843140271206059        0.0000000000000000     
 PAO|LS| adapt: energies:   -7.8270649507624519       -7.8270733795531031        0.0000000000000000     
 PAO| ======================= Iteration:        32 =============================

     Lanczos converged:  T threshold:   0.100E-02
     Est. extremal eigenvalues:    0.272E+01   0.185E+00
     Est. condition number :    0.148E+02
     NS sqrt iter    1 1.00000000   0.698E+00       0.001       64.512
     NS sqrt iter    2 1.00000000   0.327E+00       0.001      109.875
     NS sqrt iter    3 1.00000000   0.732E-01       0.001       90.972
     NS sqrt iter    4 1.00000000   0.164E-02       0.001      103.330
     NS sqrt iter    5 1.00000000   0.343E-07       0.001       61.312
     Final NS sqrt iter    5 1.00000000   0.328E-08

     Est. extremal eigenvalues     -0.92857     1.63019  converged:  T
     TRS4 it   1 1.00000000   0.843E+00       0.000       16.128   0.100E-07
     TRS4 it   2 1.00000000   0.594E+00       0.001       32.256   0.100E-07
     TRS4 it   3 1.00000000   0.399E+00       0.001       32.256   0.100E-07
     TRS4 it   4 1.00000000   0.196E+00       0.001       32.256   0.100E-07
     TRS4 it   5 1.00000000   0.573E-01       0.001       32.256   0.100E-07
     TRS4 it   6 1.00000000   0.571E-02       0.001       32.256   0.100E-07
     TRS4 it   7 1.00000000   0.693E-04       0.001       32.256   0.100E-07
     TRS4 it   8 1.00000000   0.142E-07       0.001       32.256   0.100E-07
     Final TRS4 iteration    8 1.00000000   0.142E-07
     Chemical potential (mu):       0.01149
 
 PAO| energy:  -7.8270619360539975      penalty:   1.0688768895460500E-005
 PAO|LS| Need extra step
 PAO|LS| adapt:  T T T
 PAO|LS| adapt: scan_steps:    0.0000000000000000       0.91843140271206059        1.8368628054241212     
 PAO|LS| adapt: energies:   -7.8270649507624519       -7.8270733795531031       -7.8270619360539975     
 PAO|LS| adapt: suggested step_size:   0.84876648366030139     
 PAO|LS| adapt: predicted energy  -7.8270734367210686     
 PAO| ======================= Iteration:        33 =============================

     Lanczos converged:  T threshold:   0.100E-02
     Est. extremal eigenvalues:    0.272E+01   0.185E+00
     Est. condition number :    0.148E+02
     NS sqrt iter    1 1.00000000   0.698E+00       0.001       64.512
     NS sqrt iter    2 1.00000000   0.328E+00       0.001      110.592
     NS sqrt iter    3 1.00000000   0.735E-01       0.001      110.318
     NS sqrt iter    4 1.00000000   0.165E-02       0.001       92.216
     NS sqrt iter    5 1.00000000   0.344E-07       0.002       36.964
     Final NS sqrt iter    5 1.00000000   0.330E-08

     Est. extremal eigenvalues     -0.92857     1.62981  converged:  T
     TRS4 it   1 1.00000000   0.843E+00       0.000       16.128   0.100E-07
     TRS4 it   2 1.00000000   0.594E+00       0.001       32.256   0.100E-07
     TRS4 it   3 1.00000000   0.399E+00       0.001       32.256   0.100E-07
     TRS4 it   4 1.00000000   0.196E+00       0.001       32.256   0.100E-07
     TRS4 it   5 1.00000000   0.575E-01       0.001       32.256   0.100E-07
     TRS4 it   6 1.00000000   0.576E-02       0.001       32.256   0.100E-07
     TRS4 it   7 1.00000000   0.708E-04       0.001       32.256   0.100E-07
     TRS4 it   8 1.00000000   0.149E-07       0.001       32.256   0.100E-07
     Final TRS4 iteration    8 1.00000000   0.149E-07
     Chemical potential (mu):       0.01103
 
 PAO| energy:  -7.8270734364777326      penalty:   1.2126432633756726E-005
 PAO|CG| trace_G_new    4.1686179259729043E-005
 PAO|CG| trace_G_prev    1.9985952951706633E-005
 PAO|CG| trace_G_mix    4.3755124918592154E-008
 PAO|CG| trace_D    2.9024262540485668E-005
 PAO|CG| trace_D_Gnew  -3.5193607649270548E-009
 PAO|CG| beta:    2.0835846174277388     
 PAO| norm of gradient:   6.4564835057273270E-003
 PAO| energy improvement:  -8.4857152806705471E-006
 PAO| step     33                   -7.827073436  0.404E-03  0.849E+00     0.086
 PAO|LS| adapt:  T F F
 PAO|LS| adapt: scan_steps:    0.0000000000000000        0.0000000000000000        0.0000000000000000     
 PAO|LS| adapt: energies:   -7.8270734364777326        0.0000000000000000        0.0000000000000000     
 PAO| ======================= Iteration:        34 =============================

     Lanczos converged:  T threshold:   0.100E-02
     Est. extremal eigenvalues:    0.272E+01   0.184E+00
     Est. condition number :    0.148E+02
     NS sqrt iter    1 1.00000000   0.697E+00       0.001       62.788
     NS sqrt iter    2 1.00000000   0.327E+00       0.001      108.877
     NS sqrt iter    3 1.00000000   0.730E-01       0.001      110.592
     NS sqrt iter    4 1.00000000   0.164E-02       0.001      110.592
     NS sqrt iter    5 1.00000000   0.348E-07       0.001       61.440
     Final NS sqrt iter    5 1.00000000   0.331E-08

     Est. extremal eigenvalues     -0.92858     1.63032  converged:  T
     TRS4 it   1 1.00000000   0.844E+00       0.001       16.128   0.100E-07
     TRS4 it   2 1.00000000   0.594E+00       0.001       32.256   0.100E-07
     TRS4 it   3 1.00000000   0.399E+00       0.001       32.256   0.100E-07
     TRS4 it   4 1.00000000   0.196E+00       0.001       32.256   0.100E-07
     TRS4 it   5 1.00000000   0.571E-01       0.001       32.256   0.100E-07
     TRS4 it   6 1.00000000   0.568E-02       0.001       32.256   0.100E-07
     TRS4 it   7 1.00000000   0.683E-04       0.001       32.256   0.100E-07
     TRS4 it   8 1.00000000   0.137E-07       0.001       32.256   0.100E-07
     Final TRS4 iteration    8 1.00000000   0.137E-07
     Chemical potential (mu):       0.01179
 
 PAO| energy:  -7.8270794219714475      penalty:   8.8915883474082478E-006
 PAO|LS| adapt:  T T F
[...]
 PAO| ======================= Iteration:       891 =============================

     Lanczos converged:  T threshold:   0.100E-02
     Est. extremal eigenvalues:    0.251E+01   0.210E+00
     Est. condition number :    0.120E+02
     NS sqrt iter    1 1.00000000   0.642E+00       0.001       64.512
     NS sqrt iter    2 1.00000000   0.281E+00       0.001      107.874
     NS sqrt iter    3 1.00000000   0.476E-01       0.001      110.592
     NS sqrt iter    4 1.00000000   0.509E-03       0.001      110.592
     NS sqrt iter    5 1.00000000   0.876E-09       0.001       36.864
     Final NS sqrt iter    5 1.00000000   0.587E-10

     Est. extremal eigenvalues     -0.92840     1.48560  converged:  T
     TRS4 it   1 1.00000000   0.814E+00       0.000       16.128   0.100E-07
     TRS4 it   2 1.00000000   0.588E+00       0.001       32.256   0.100E-07
     TRS4 it   3 1.00000000   0.417E+00       0.001       32.256   0.100E-07
     TRS4 it   4 1.00000000   0.247E+00       0.001       32.256   0.100E-07
     TRS4 it   5 1.00000000   0.109E+00       0.001       32.256   0.100E-07
     TRS4 it   6 1.00000000   0.271E-01       0.001       32.256   0.100E-07
     TRS4 it   7 1.00000000   0.232E-02       0.001       32.256   0.100E-07
     TRS4 it   8 1.00000000   0.202E-04       0.001       32.256   0.100E-07
     TRS4 it   9 1.00000000   0.169E-08       0.001       32.256   0.100E-07
     Final TRS4 iteration    9 1.00000000   0.169E-08
     Chemical potential (mu):      -0.07745
 
 PAO| energy:  -7.8272085440599346      penalty:   2.8714828974026993E-011
 PAO|LS| Need extra step
 PAO|LS| adapt:  T T T
 PAO|LS| adapt: scan_steps:    0.0000000000000000       0.20000000000000001       0.40000000000000002     
 PAO|LS| adapt: energies:   -7.8272085440478927       -7.8272085440606576       -7.8272085440599346     
 PAO|LS| adapt: suggested step_size:   0.28927959963123934     
 PAO|LS| adapt: predicted energy  -7.8272085440620005     
 PAO| ======================= Iteration:       892 =============================

     Lanczos converged:  T threshold:   0.100E-02
     Est. extremal eigenvalues:    0.251E+01   0.210E+00
     Est. condition number :    0.120E+02
     NS sqrt iter    1 1.00000000   0.642E+00       0.001       64.512
     NS sqrt iter    2 1.00000000   0.281E+00       0.001      110.592
     NS sqrt iter    3 1.00000000   0.476E-01       0.001      110.592
     NS sqrt iter    4 1.00000000   0.509E-03       0.001      110.592
     NS sqrt iter    5 1.00000000   0.876E-09       0.001       36.864
     Final NS sqrt iter    5 1.00000000   0.587E-10

     Est. extremal eigenvalues     -0.92840     1.48560  converged:  T
     TRS4 it   1 1.00000000   0.814E+00       0.000       16.128   0.100E-07
     TRS4 it   2 1.00000000   0.588E+00       0.001       32.256   0.100E-07
     TRS4 it   3 1.00000000   0.417E+00       0.001       32.256   0.100E-07
     TRS4 it   4 1.00000000   0.247E+00       0.001       32.256   0.100E-07
     TRS4 it   5 1.00000000   0.109E+00       0.001       31.297   0.100E-07
     TRS4 it   6 1.00000000   0.271E-01       0.001       32.256   0.100E-07
     TRS4 it   7 1.00000000   0.232E-02       0.001       32.256   0.100E-07
     TRS4 it   8 1.00000000   0.202E-04       0.001       32.256   0.100E-07
     TRS4 it   9 1.00000000   0.169E-08       0.001       32.256   0.100E-07
     Final TRS4 iteration    9 1.00000000   0.169E-08
     Chemical potential (mu):      -0.07745
 
 PAO| energy:  -7.8272085440620041      penalty:   2.8791806551301681E-011
 PAO|CG| warming up with steepest descent
 PAO|CG| beta:    0.0000000000000000     
 PAO| norm of gradient:   6.4960327749405300E-006
 PAO| energy improvement:  -1.4111378732195590E-011
 PAO| step    892                   -7.827208544  0.406E-06  0.289E+00     0.074
 PAO| converged after          892  steps :-)
 PAO| Recalculating energy after mixing.

     Lanczos converged:  T threshold:   0.100E-02
     Est. extremal eigenvalues:    0.251E+01   0.210E+00
     Est. condition number :    0.120E+02
     NS sqrt iter    1 1.00000000   0.642E+00       0.001       64.512
     NS sqrt iter    2 1.00000000   0.281E+00       0.001      110.592
     NS sqrt iter    3 1.00000000   0.476E-01       0.001      110.592
     NS sqrt iter    4 1.00000000   0.509E-03       0.001      109.337
     NS sqrt iter    5 1.00000000   0.876E-09       0.001       24.945
     Final NS sqrt iter    5 1.00000000   0.587E-10

     Est. extremal eigenvalues     -0.92840     1.48560  converged:  T
     TRS4 it   1 1.00000000   0.814E+00       0.000       16.128   0.100E-07
     TRS4 it   2 1.00000000   0.588E+00       0.001       32.256   0.100E-07
     TRS4 it   3 1.00000000   0.417E+00       0.001       32.256   0.100E-07
     TRS4 it   4 1.00000000   0.247E+00       0.001       32.256   0.100E-07
     TRS4 it   5 1.00000000   0.109E+00       0.001       32.256   0.100E-07
     TRS4 it   6 1.00000000   0.271E-01       0.001       32.256   0.100E-07
     TRS4 it   7 1.00000000   0.232E-02       0.001       32.256   0.100E-07
     TRS4 it   8 1.00000000   0.202E-04       0.001       32.256   0.100E-07
     TRS4 it   9 1.00000000   0.169E-08       0.001       32.256   0.100E-07
     Final TRS4 iteration    9 1.00000000   0.169E-08
     Chemical potential (mu):      -0.07745
 
 PAO| energy:  -7.8272085440584753      penalty:   2.8892881932143518E-011
 PAO| Writing restart file.
     Est. extremal eigenvalues     -0.92840     1.48560  converged:  T
     TRS4 it   1 1.00000000   0.814E+00       0.000       16.128   0.100E-07
     TRS4 it   2 1.00000000   0.588E+00       0.001       32.256   0.100E-07
     TRS4 it   3 1.00000000   0.417E+00       0.001       32.256   0.100E-07
     TRS4 it   4 1.00000000   0.247E+00       0.001       32.256   0.100E-07
     TRS4 it   5 1.00000000   0.109E+00       0.001       32.256   0.100E-07
     TRS4 it   6 1.00000000   0.271E-01       0.001       32.256   0.100E-07
     TRS4 it   7 1.00000000   0.232E-02       0.001       32.256   0.100E-07
     TRS4 it   8 1.00000000   0.202E-04       0.001       32.256   0.100E-07
     TRS4 it   9 1.00000000   0.169E-08       0.001       32.256   0.100E-07
     Final TRS4 iteration    9 1.00000000   0.169E-08
     Chemical potential (mu):      -0.07745

 SCF     1       -34.447011180       -34.447011180    2.289962

*********************************************************
 Using MIXING_FRACTION=0.450 to mix KS matrix:  iscf=  2
 KS_nw=0.450*KS + 0.550*KS_old
*********************************************************
     Est. extremal eigenvalues     -0.92840     1.48560  converged:  T
     TRS4 it   1 1.00000000   0.814E+00       0.001       16.128   0.100E-07
     TRS4 it   2 1.00000000   0.588E+00       0.001       32.256   0.100E-07
     TRS4 it   3 1.00000000   0.417E+00       0.001       32.256   0.100E-07
     TRS4 it   4 1.00000000   0.247E+00       0.001       32.256   0.100E-07
     TRS4 it   5 1.00000000   0.109E+00       0.001       32.256   0.100E-07
     TRS4 it   6 1.00000000   0.271E-01       0.001       32.256   0.100E-07
     TRS4 it   7 1.00000000   0.232E-02       0.001       32.256   0.100E-07
     TRS4 it   8 1.00000000   0.202E-04       0.001       32.256   0.100E-07
     TRS4 it   9 1.00000000   0.169E-08       0.001       32.256   0.100E-07
     Final TRS4 iteration    9 1.00000000   0.169E-08
     Chemical potential (mu):      -0.07745

 SCF     2       -34.447011180         0.000000000    2.286396

 PAO| Storing density matrix for ASPC guess in slot:           1

 ENERGY| Total FORCE_EVAL ( QS ) energy (a.u.):              -34.447011180255544


 -------------------------------------------------------------------------------
 -                                                                             -
 -                                DBCSR STATISTICS                             -
 -                                                                             -
 -------------------------------------------------------------------------------
 COUNTER                                    TOTAL       BLAS       SMM       ACC
 flops     5 x     5 x     4                32000       0.0%    100.0%      0.0%
 flops    13 x     5 x     4                33280       0.0%    100.0%      0.0%
 flops     5 x    13 x     4                33280       0.0%    100.0%      0.0%
 flops    13 x    13 x     4                64896       0.0%    100.0%      0.0%
 flops     4 x     4 x     5              6981120       0.0%    100.0%      0.0%
 flops     5 x     4 x     5              8515200       0.0%    100.0%      0.0%
 flops     4 x     4 x    13              9075456       0.0%    100.0%      0.0%
 flops    13 x     4 x     5             11069760       0.0%    100.0%      0.0%
 flops     5 x     4 x    13             11069760       0.0%    100.0%      0.0%
 flops     5 x     4 x     4             13297760       0.0%    100.0%      0.0%
 flops    13 x     4 x    13             14390688       0.0%    100.0%      0.0%
 flops    13 x     4 x     4             17628416       0.0%    100.0%      0.0%
 flops     4 x     4 x     4            884271488       0.0%    100.0%      0.0%
 flops inhomo. stacks                           0       0.0%      0.0%      0.0%
 flops total                       976.463104E+06       0.0%    100.0%      0.0%
 flops max/rank                    976.463104E+06       0.0%    100.0%      0.0%
 matmuls inhomo. stacks                         0       0.0%      0.0%      0.0%
 matmuls total                            7195438       0.0%    100.0%      0.0%
 number of processed stacks                 57667       0.0%    100.0%      0.0%
 average stack size                                     0.0     124.8       0.0
 marketing flops                     1.592503E+09
 -------------------------------------------------------------------------------
 # multiplications                          47986
 max memory usage/rank             321.359872E+06
 # max total images/rank                        1
 # max 3D layers                                1
 # MPI messages exchanged                       0
 MPI messages size (bytes):
  total size                         0.000000E+00
  min size                           0.000000E+00
  max size                           0.000000E+00
  average size                       0.000000E+00
 MPI breakdown and total messages size (bytes):
             size <=      128                   0                        0
       128 < size <=     8192                   0                        0
      8192 < size <=    32768                   0                        0
     32768 < size <=   131072                   0                        0
    131072 < size <=  4194304                   0                        0
   4194304 < size <= 16777216                   0                        0
  16777216 < size                               0                        0
 -------------------------------------------------------------------------------

 MEMORY| Estimated peak process memory [MiB]                                 307

 -------------------------------------------------------------------------------
 -                                                                             -
 -                           R E F E R E N C E S                               -
 -                                                                             -
 -------------------------------------------------------------------------------
 
 CP2K version 7.0 (Development Version), the CP2K developers group (2018).
 CP2K is freely available from https://www.cp2k.org/ .

 Schuett, O; VandeVondele, J. 
 Journal of Chemical Theory and Computation, 14, (2018). 
 Machine Learning Adaptive Basis Sets for Efficient Large Scale Density Functional Theory Simulation.
 https://dx.doi.org/10.1021/acs.jctc.8b00378


 Schuett, Ole; Messmer, Peter; Hutter, Juerg; VandeVondele, Joost. 
 Electronic Structure Calculations on Graphics Processing Units, John Wiley & Sons, Ltd, 173-190 (2016). 
 GPU-Accelerated Sparse Matrix-Matrix Multiplication for Linear Scaling Density Functional Theory.
 https://dx.doi.org/10.1002/9781118670712.ch8


 Borstnik, U; VandeVondele, J; Weber, V; Hutter, J. 
 PARALLEL COMPUTING, 40 (5-6), 47-58 (2014). 
 Sparse matrix multiplication: The distributed block-compressed sparse
 row library.
 https://dx.doi.org/10.1016/j.parco.2014.03.012


 Hutter, J; Iannuzzi, M; Schiffmann, F; VandeVondele, J. 
 WILEY INTERDISCIPLINARY REVIEWS-COMPUTATIONAL MOLECULAR SCIENCE, 4 (1), 15-25 (2014). 
 CP2K: atomistic simulations of condensed matter systems.
 https://dx.doi.org/10.1002/wcms.1159


 VandeVondele, J; Borstnik, U; Hutter, J. 
 JOURNAL OF CHEMICAL THEORY AND COMPUTATION, 8 (10), 3565-3573 (2012). 
 Linear Scaling Self-Consistent Field Calculations with Millions of Atoms
 in the Condensed Phase.
 https://dx.doi.org/10.1021/ct200897x


 VandeVondele, J; Hutter, J. 
 JOURNAL OF CHEMICAL PHYSICS, 127 (11), 114105 (2007). 
 Gaussian basis sets for accurate calculations on molecular systems in
 gas and condensed phases.
 https://dx.doi.org/10.1063/1.2770708


 Krack, M. 
 THEORETICAL CHEMISTRY ACCOUNTS, 114 (1-3), 145-152 (2005). 
 Pseudopotentials for H to Kr optimized for gradient-corrected
 exchange-correlation functionals.
 https://dx.doi.org/10.1007/s00214-005-0655-y


 VandeVondele, J; Krack, M; Mohamed, F; Parrinello, M; Chassaing, T;
 Hutter, J. COMPUTER PHYSICS COMMUNICATIONS, 167 (2), 103-128 (2005). 
 QUICKSTEP: Fast and accurate density functional calculations using a
 mixed Gaussian and plane waves approach.
 https://dx.doi.org/10.1016/j.cpc.2004.12.014


 Frigo, M; Johnson, SG. 
 PROCEEDINGS OF THE IEEE, 93 (2), 216-231 (2005). 
 The design and implementation of FFTW3.
 https://dx.doi.org/10.1109/JPROC.2004.840301


 Niklasson, AMN; Tymczak, CJ; Challacombe, M. 
 JOURNAL OF CHEMICAL PHYSICS, 118 (19), 8611-8620 (2003). 
 Trace resetting density matrix purification in O(N)
 self-consistent-field theory.
 https://dx.doi.org/10.1063/1.1559913


 Hartwigsen, C; Goedecker, S; Hutter, J. 
 PHYSICAL REVIEW B, 58 (7), 3641-3662 (1998). 
 Relativistic separable dual-space Gaussian pseudopotentials from H to Rn.
 https://dx.doi.org/10.1103/PhysRevB.58.3641


 Lippert, G; Hutter, J; Parrinello, M. 
 MOLECULAR PHYSICS, 92 (3), 477-487 (1997). 
 A hybrid Gaussian and plane wave density functional scheme.
 https://dx.doi.org/10.1080/002689797170220


 Perdew, JP; Burke, K; Ernzerhof, M. 
 PHYSICAL REVIEW LETTERS, 77 (18), 3865-3868 (1996). 
 Generalized gradient approximation made simple.
 https://dx.doi.org/10.1103/PhysRevLett.77.3865


 Goedecker, S; Teter, M; Hutter, J. 
 PHYSICAL REVIEW B, 54 (3), 1703-1710 (1996). 
 Separable dual-space Gaussian pseudopotentials.
 https://dx.doi.org/10.1103/PhysRevB.54.1703


 -------------------------------------------------------------------------------
 -                                                                             -
 -                                T I M I N G                                  -
 -                                                                             -
 -------------------------------------------------------------------------------
 SUBROUTINE                       CALLS  ASD         SELF TIME        TOTAL TIME
                                MAXIMUM       AVERAGE  MAXIMUM  AVERAGE  MAXIMUM
 CP2K                                 1  1.0    0.027    0.027   54.760   54.760
 qs_energies                          1  2.0    0.000    0.000   54.303   54.303
 ls_scf                               1  3.0    0.000    0.000   54.180   54.180
 ls_scf_main                          7  4.0    0.001    0.001   34.405   34.405
 ls_scf_dm_to_ks                     15  5.0    0.000    0.000   34.268   34.268
 qs_ks_update_qs_env                 16  6.0    0.000    0.000   26.381   26.381
 rebuild_ks_matrix                   16  7.0    0.000    0.000   26.380   26.380
 qs_ks_build_kohn_sham_matrix        16  8.0    0.002    0.002   26.380   26.380
 pao_update                           7  4.0    0.025    0.025   17.188   17.188
 pao_calc_energy                    898  5.0    0.010    0.010   15.569   15.569
 qs_vxc_create                       16  9.0    0.000    0.000   15.274   15.274
 xc_vxc_pw_create                    16 10.0    0.303    0.303   15.274   15.274
 dbcsr_multiply_generic           47986  8.4    0.951    0.951   12.314   12.314
 xc_rho_set_and_dset_create          16 11.0    0.104    0.104   10.613   10.613
 qs_rho_update_rho                   16  6.0    0.000    0.000   10.381   10.381
 calculate_rho_elec                  16  7.0    8.082    8.082   10.381   10.381
 pw_transfer                        305 10.6    0.027    0.027   10.265   10.265
 fft_wrap_pw1pw2                    273 11.7    0.004    0.004    9.997    9.997
 fft_wrap_pw1pw2_200                177 12.8    0.997    0.997    9.561    9.561
 sum_up_and_integrate                16  9.0    0.058    0.058    9.198    9.198
 integrate_v_rspace                  16 10.0    7.913    7.913    9.141    9.141
 pao_dm_trs4                        898  6.0    0.010    0.010    8.126    8.126
 density_matrix_trs4                913  7.0    0.714    0.714    7.767    7.767
 ls_scf_init_matrix_S               905  7.0    0.009    0.009    7.391    7.391
 pao_rebuild_S                      898  6.0    0.008    0.008    7.340    7.340
 xc_functional_eval                  16 12.0    0.000    0.000    6.707    6.707
 pbe_lda_eval                        16 13.0    6.707    6.707    6.707    6.707
 matrix_sqrt_Newton_Schulz          905  8.0    0.343    0.343    6.626    6.626
 fft3d_s                            274 13.6    5.163    5.163    5.176    5.176
 multiply_cannon                  47986  9.4    2.253    2.253    4.846    4.846
 make_m2s                         95972  9.4    0.325    0.325    4.463    4.463
 make_images                      95972 10.4    1.156    1.156    3.952    3.952
 pao_guess_initial_P                  1  4.0    0.000    0.000    2.502    2.502
 pao_read_preopt_dm                   1  5.0    0.000    0.000    2.502    2.502
 density_rs2pw                       16  8.0    0.001    0.001    2.253    2.253
 arnoldi_extremal                  1818  8.5    0.013    0.013    2.023    2.023
 arnoldi_normal_ev                 1818  9.5    0.030    0.030    2.010    2.010
 pw_scatter_s                       144 14.2    2.000    2.000    2.000    2.000
 pw_gather_s                        129 13.1    1.774    1.774    1.774    1.774
 pao_calc_AB                       1180  5.8    0.003    0.003    1.585    1.585
 pao_calc_AB_direct                1180  6.8    0.060    0.060    1.583    1.583
 pao_calc_grad_lnv_wrt_AB           281  7.0    0.018    0.018    1.450    1.450
 build_subspace                    1818 10.5    0.120    0.120    1.439    1.439
 pw_derive                           96 11.5    1.342    1.342    1.342    1.342
 dbcsr_matrix_vector_mult         43615 11.5    0.232    0.232    1.276    1.276
 dbcsr_create_new                367059 10.7    0.713    0.713    1.273    1.273
 dbcsr_finalize                  113291  9.6    0.231    0.231    1.254    1.254
 potential_pw2rs                     16 11.0    0.006    0.006    1.225    1.225
 -------------------------------------------------------------------------------

 The number of warnings for this run is : 0
 
 -------------------------------------------------------------------------------
  **** **** ******  **  PROGRAM ENDED AT                 2019-02-14 01:10:46.335
 ***** ** ***  *** **   PROGRAM RAN ON                                      otto
 **    ****   ******    PROGRAM RAN BY                                       ole
 ***** **    ** ** **   PROGRAM PROCESS ID                                  5994
  **** **  *******  **  PROGRAM STOPPED IN /home/ole/git/pao_ml_equivar/2H2O_MD/
                                           frame_0175
